 Entering Gaussian System, Link 0=g09
 Initial command:
 /opt/gaussian/g09/l1.exe /panfs/panfs.cluster/home/shuo/Gau-13701.inp -scrdir=/panfs/panfs.cluster/home/shuo/
 Default is to use a total of  12 processors:
                               12 via shared-memory
                                1 via Linda
 Entering Link 1 = /opt/gaussian/g09/l1.exe PID=     13702.
  
 Copyright (c) 1988,1990,1992,1993,1995,1998,2003,2009,2011,
            Gaussian, Inc.  All Rights Reserved.
  
 This is part of the Gaussian(R) 09 program.  It is based on
 the Gaussian(R) 03 system (copyright 2003, Gaussian, Inc.),
 the Gaussian(R) 98 system (copyright 1998, Gaussian, Inc.),
 the Gaussian(R) 94 system (copyright 1995, Gaussian, Inc.),
 the Gaussian 92(TM) system (copyright 1992, Gaussian, Inc.),
 the Gaussian 90(TM) system (copyright 1990, Gaussian, Inc.),
 the Gaussian 88(TM) system (copyright 1988, Gaussian, Inc.),
 the Gaussian 86(TM) system (copyright 1986, Carnegie Mellon
 University), and the Gaussian 82(TM) system (copyright 1983,
 Carnegie Mellon University). Gaussian is a federally registered
 trademark of Gaussian, Inc.
  
 This software contains proprietary and confidential information,
 including trade secrets, belonging to Gaussian, Inc.
  
 This software is provided under written license and may be
 used, copied, transmitted, or stored only in accord with that
 written license.
  
 The following legend is applicable only to US Government
 contracts under FAR:
  
                    RESTRICTED RIGHTS LEGEND
  
 Use, reproduction and disclosure by the US Government is
 subject to restrictions as set forth in subparagraphs (a)
 and (c) of the Commercial Computer Software - Restricted
 Rights clause in FAR 52.227-19.
  
 Gaussian, Inc.
 340 Quinnipiac St., Bldg. 40, Wallingford CT 06492
  
  
 ---------------------------------------------------------------
 Warning -- This program may not be used in any manner that
 competes with the business of Gaussian, Inc. or will provide
 assistance to any competitor of Gaussian, Inc.  The licensee
 of this program is prohibited from giving any competitor of
 Gaussian, Inc. access to this program.  By using this program,
 the user acknowledges that Gaussian, Inc. is engaged in the
 business of creating and licensing software in the field of
 computational chemistry and represents and warrants to the
 licensee that it is not a competitor of Gaussian, Inc. and that
 it will not use this program in any manner prohibited above.
 ---------------------------------------------------------------
  

 Cite this work as:
 Gaussian 09, Revision C.01,
 M. J. Frisch, G. W. Trucks, H. B. Schlegel, G. E. Scuseria, 
 M. A. Robb, J. R. Cheeseman, G. Scalmani, V. Barone, B. Mennucci, 
 G. A. Petersson, H. Nakatsuji, M. Caricato, X. Li, H. P. Hratchian, 
 A. F. Izmaylov, J. Bloino, G. Zheng, J. L. Sonnenberg, M. Hada, 
 M. Ehara, K. Toyota, R. Fukuda, J. Hasegawa, M. Ishida, T. Nakajima, 
 Y. Honda, O. Kitao, H. Nakai, T. Vreven, J. A. Montgomery, Jr., 
 J. E. Peralta, F. Ogliaro, M. Bearpark, J. J. Heyd, E. Brothers, 
 K. N. Kudin, V. N. Staroverov, T. Keith, R. Kobayashi, J. Normand, 
 K. Raghavachari, A. Rendell, J. C. Burant, S. S. Iyengar, J. Tomasi, 
 M. Cossi, N. Rega, J. M. Millam, M. Klene, J. E. Knox, J. B. Cross, 
 V. Bakken, C. Adamo, J. Jaramillo, R. Gomperts, R. E. Stratmann, 
 O. Yazyev, A. J. Austin, R. Cammi, C. Pomelli, J. W. Ochterski, 
 R. L. Martin, K. Morokuma, V. G. Zakrzewski, G. A. Voth, 
 P. Salvador, J. J. Dannenberg, S. Dapprich, A. D. Daniels, 
 O. Farkas, J. B. Foresman, J. V. Ortiz, J. Cioslowski, 
 and D. J. Fox, Gaussian, Inc., Wallingford CT, 2010.
 
 ******************************************
 Gaussian 09:  EM64L-G09RevC.01 23-Sep-2011
                28-Dec-2013 
 ******************************************
 %chk=11_C18H10N4OS3Si.chk
 %NProcShared=12
 Will use up to   12 processors via shared memory.
 %Mem=8000MB
 Default route:  MaxDisk=100GB
 --------------------------------------------
 #B3LYP/6-31++G(d,p) opt scf=direct freq test
 --------------------------------------------
 1/14=-1,18=20,19=15,26=3,38=1/1,3;
 2/9=110,12=2,17=6,18=5,40=1/2;
 3/5=1,6=6,7=1111,11=2,16=1,25=1,30=1,71=1,74=-5/1,2,3;
 4//1;
 5/5=2,38=5/2;
 6/7=2,8=2,9=2,10=2,28=1/1;
 7//1,2,3,16;
 1/14=-1,18=20,19=15/3(2);
 2/9=110/2;
 99//99;
 2/9=110/2;
 3/5=1,6=6,7=1111,11=2,16=1,25=1,30=1,71=1,74=-5/1,2,3;
 4/5=5,16=3/1;
 5/5=2,38=5/2;
 7//1,2,3,16;
 1/14=-1,18=20,19=15/3(-5);
 2/9=110/2;
 6/7=2,8=2,9=2,10=2,19=2,28=1/1;
 99/9=1/99;
 ----------------------------------------------------------------------
 Geom opt of No.11 candidate from the CEPDB database with SMILE code of
  [SiH2]1ccc2c1c(sc2-c1cnc(s1)-c1ccc[nH]1)-c1nccc2nsnc12, HPC, 20131227
 , Shuo Dai, Gaussian09
 ----------------------------------------------------------------------
 Charge =  0 Multiplicity = 1
 Symbolic Z-Matrix:
 Si                   -1.54978   1.58078   0.00413 
 H                    -1.69879   2.32425  -1.26874 
 H                    -1.69407   2.306     1.28778 
 C                    -2.34326  -0.12133   0.00147 
 C                    -1.40417  -1.07859   0.00256 
 C                    -0.04065  -0.59854   0.00253 
 C                     0.11175   0.80852   0.00168 
 C                     1.40104   1.24913   0.00076 
 S                     2.43935  -0.08174   0.0057 
 C                     1.19296  -1.19269   0.00175 
 C                     1.60938  -2.53424  -0.0048 
 C                     2.871    -3.10112   0.015 
 N                     2.87481  -4.47768   0.01355 
 C                     1.62619  -4.85791  -0.01298 
 S                     0.42322  -3.69323  -0.05909 
 C                     1.16119  -6.18283  -0.00969 
 C                     1.85326  -7.34761  -0.01685 
 C                     0.88278  -8.37209  -0.01084 
 C                    -0.36873  -7.79284  -0.00217 
 N                    -0.187    -6.44925  -0.00267 
 H                    -0.9049   -5.73304  -0.00186 
 C                     1.98911   2.55457  -0.00108 
 N                     1.13329   3.61127   0.0006 
 C                     1.6215    4.876    -0.00096 
 C                     2.96248   5.25091  -0.00296 
 C                     3.87469   4.18023  -0.00602 
 N                     5.21388   4.28345  -0.01008 
 S                     5.82012   2.74218  -0.01394 
 N                     4.41344   1.90354  -0.00993 
 C                     3.39309   2.78511  -0.0055 
 H                    -3.41547  -0.25845   0.00258 
 H                    -1.68518  -2.12603   0.00442 
 H                     3.82066  -2.56965   0.03442 
 H                     2.93654  -7.40677  -0.02666 
 H                     1.08268  -9.42785  -0.0132 
 H                    -1.36977  -8.19709   0.0038 
 H                     0.83967   5.63235  -0.00112 
 H                     3.28661   6.27589  -0.00335 
 

 GradGradGradGradGradGradGradGradGradGradGradGradGradGradGradGradGradGrad
 Berny optimization.
 Initialization pass.
                           ----------------------------
                           !    Initial Parameters    !
                           ! (Angstroms and Degrees)  !
 --------------------------                            --------------------------
 ! Name  Definition              Value          Derivative Info.                !
 --------------------------------------------------------------------------------
 ! R1    R(1,2)                  1.4816         estimate D2E/DX2                !
 ! R2    R(1,3)                  1.4814         estimate D2E/DX2                !
 ! R3    R(1,4)                  1.878          estimate D2E/DX2                !
 ! R4    R(1,7)                  1.8322         estimate D2E/DX2                !
 ! R5    R(4,5)                  1.341          estimate D2E/DX2                !
 ! R6    R(4,31)                 1.0809         estimate D2E/DX2                !
 ! R7    R(5,6)                  1.4456         estimate D2E/DX2                !
 ! R8    R(5,32)                 1.0845         estimate D2E/DX2                !
 ! R9    R(6,7)                  1.4153         estimate D2E/DX2                !
 ! R10   R(6,10)                 1.3692         estimate D2E/DX2                !
 ! R11   R(7,8)                  1.3625         estimate D2E/DX2                !
 ! R12   R(8,9)                  1.688          estimate D2E/DX2                !
 ! R13   R(8,22)                 1.4318         estimate D2E/DX2                !
 ! R14   R(9,10)                 1.6696         estimate D2E/DX2                !
 ! R15   R(10,11)                1.4047         estimate D2E/DX2                !
 ! R16   R(11,12)                1.3833         estimate D2E/DX2                !
 ! R17   R(11,15)                1.6593         estimate D2E/DX2                !
 ! R18   R(12,13)                1.3766         estimate D2E/DX2                !
 ! R19   R(12,33)                1.0884         estimate D2E/DX2                !
 ! R20   R(13,14)                1.3055         estimate D2E/DX2                !
 ! R21   R(14,15)                1.675          estimate D2E/DX2                !
 ! R22   R(14,16)                1.4042         estimate D2E/DX2                !
 ! R23   R(16,17)                1.3549         estimate D2E/DX2                !
 ! R24   R(16,20)                1.3743         estimate D2E/DX2                !
 ! R25   R(17,18)                1.4112         estimate D2E/DX2                !
 ! R26   R(17,34)                1.0849         estimate D2E/DX2                !
 ! R27   R(18,19)                1.3791         estimate D2E/DX2                !
 ! R28   R(18,35)                1.0745         estimate D2E/DX2                !
 ! R29   R(19,20)                1.3558         estimate D2E/DX2                !
 ! R30   R(19,36)                1.0796         estimate D2E/DX2                !
 ! R31   R(20,21)                1.0141         estimate D2E/DX2                !
 ! R32   R(22,23)                1.3598         estimate D2E/DX2                !
 ! R33   R(22,30)                1.4228         estimate D2E/DX2                !
 ! R34   R(23,24)                1.3557         estimate D2E/DX2                !
 ! R35   R(24,25)                1.3924         estimate D2E/DX2                !
 ! R36   R(24,37)                1.0878         estimate D2E/DX2                !
 ! R37   R(25,26)                1.4066         estimate D2E/DX2                !
 ! R38   R(25,38)                1.075          estimate D2E/DX2                !
 ! R39   R(26,27)                1.3432         estimate D2E/DX2                !
 ! R40   R(26,30)                1.4759         estimate D2E/DX2                !
 ! R41   R(27,28)                1.6562         estimate D2E/DX2                !
 ! R42   R(28,29)                1.6377         estimate D2E/DX2                !
 ! R43   R(29,30)                1.3484         estimate D2E/DX2                !
 ! A1    A(2,1,3)              119.2738         estimate D2E/DX2                !
 ! A2    A(2,1,4)              114.2738         estimate D2E/DX2                !
 ! A3    A(2,1,7)              107.5511         estimate D2E/DX2                !
 ! A4    A(3,1,4)              113.8148         estimate D2E/DX2                !
 ! A5    A(3,1,7)              107.2071         estimate D2E/DX2                !
 ! A6    A(4,1,7)               90.0652         estimate D2E/DX2                !
 ! A7    A(1,4,5)              110.5551         estimate D2E/DX2                !
 ! A8    A(1,4,31)             122.2813         estimate D2E/DX2                !
 ! A9    A(5,4,31)             127.1632         estimate D2E/DX2                !
 ! A10   A(4,5,6)              115.0556         estimate D2E/DX2                !
 ! A11   A(4,5,32)             120.5312         estimate D2E/DX2                !
 ! A12   A(6,5,32)             124.4132         estimate D2E/DX2                !
 ! A13   A(5,6,7)              115.5771         estimate D2E/DX2                !
 ! A14   A(5,6,10)             134.8874         estimate D2E/DX2                !
 ! A15   A(7,6,10)             109.5354         estimate D2E/DX2                !
 ! A16   A(1,7,6)              108.7467         estimate D2E/DX2                !
 ! A17   A(1,7,8)              136.2039         estimate D2E/DX2                !
 ! A18   A(6,7,8)              115.0493         estimate D2E/DX2                !
 ! A19   A(7,8,9)              109.0925         estimate D2E/DX2                !
 ! A20   A(7,8,22)             133.1181         estimate D2E/DX2                !
 ! A21   A(9,8,22)             117.7892         estimate D2E/DX2                !
 ! A22   A(8,9,10)              93.7509         estimate D2E/DX2                !
 ! A23   A(6,10,9)             112.571          estimate D2E/DX2                !
 ! A24   A(6,10,11)            132.9612         estimate D2E/DX2                !
 ! A25   A(9,10,11)            114.4676         estimate D2E/DX2                !
 ! A26   A(10,11,12)           131.4293         estimate D2E/DX2                !
 ! A27   A(10,11,15)           117.0856         estimate D2E/DX2                !
 ! A28   A(12,11,15)           111.4826         estimate D2E/DX2                !
 ! A29   A(11,12,13)           114.3506         estimate D2E/DX2                !
 ! A30   A(11,12,33)           126.5782         estimate D2E/DX2                !
 ! A31   A(13,12,33)           119.0708         estimate D2E/DX2                !
 ! A32   A(12,13,14)           106.7757         estimate D2E/DX2                !
 ! A33   A(13,14,15)           119.008          estimate D2E/DX2                !
 ! A34   A(13,14,16)           126.2636         estimate D2E/DX2                !
 ! A35   A(15,14,16)           114.7282         estimate D2E/DX2                !
 ! A36   A(11,15,14)            88.3595         estimate D2E/DX2                !
 ! A37   A(14,16,17)           129.9418         estimate D2E/DX2                !
 ! A38   A(14,16,20)           120.5179         estimate D2E/DX2                !
 ! A39   A(17,16,20)           109.54           estimate D2E/DX2                !
 ! A40   A(16,17,18)           105.8316         estimate D2E/DX2                !
 ! A41   A(16,17,34)           123.8444         estimate D2E/DX2                !
 ! A42   A(18,17,34)           130.324          estimate D2E/DX2                !
 ! A43   A(17,18,19)           108.6139         estimate D2E/DX2                !
 ! A44   A(17,18,35)           125.8278         estimate D2E/DX2                !
 ! A45   A(19,18,35)           125.5583         estimate D2E/DX2                !
 ! A46   A(18,19,20)           107.1332         estimate D2E/DX2                !
 ! A47   A(18,19,36)           133.1739         estimate D2E/DX2                !
 ! A48   A(20,19,36)           119.6929         estimate D2E/DX2                !
 ! A49   A(16,20,19)           108.8811         estimate D2E/DX2                !
 ! A50   A(16,20,21)           123.8889         estimate D2E/DX2                !
 ! A51   A(19,20,21)           127.2295         estimate D2E/DX2                !
 ! A52   A(8,22,23)            116.7454         estimate D2E/DX2                !
 ! A53   A(8,22,30)            123.5755         estimate D2E/DX2                !
 ! A54   A(23,22,30)           119.679          estimate D2E/DX2                !
 ! A55   A(22,23,24)           119.8883         estimate D2E/DX2                !
 ! A56   A(23,24,25)           126.7275         estimate D2E/DX2                !
 ! A57   A(23,24,37)           112.9434         estimate D2E/DX2                !
 ! A58   A(25,24,37)           120.3291         estimate D2E/DX2                !
 ! A59   A(24,25,26)           114.8109         estimate D2E/DX2                !
 ! A60   A(24,25,38)           123.1684         estimate D2E/DX2                !
 ! A61   A(26,25,38)           122.0206         estimate D2E/DX2                !
 ! A62   A(25,26,27)           126.0234         estimate D2E/DX2                !
 ! A63   A(25,26,30)           120.5243         estimate D2E/DX2                !
 ! A64   A(27,26,30)           113.4522         estimate D2E/DX2                !
 ! A65   A(26,27,28)           107.0645         estimate D2E/DX2                !
 ! A66   A(27,28,29)            99.3307         estimate D2E/DX2                !
 ! A67   A(28,29,30)           108.371          estimate D2E/DX2                !
 ! A68   A(22,30,26)           118.3698         estimate D2E/DX2                !
 ! A69   A(22,30,29)           129.8486         estimate D2E/DX2                !
 ! A70   A(26,30,29)           111.7816         estimate D2E/DX2                !
 ! D1    D(2,1,4,5)            109.5055         estimate D2E/DX2                !
 ! D2    D(2,1,4,31)           -70.6955         estimate D2E/DX2                !
 ! D3    D(3,1,4,5)           -108.7396         estimate D2E/DX2                !
 ! D4    D(3,1,4,31)            71.0593         estimate D2E/DX2                !
 ! D5    D(7,1,4,5)              0.1569         estimate D2E/DX2                !
 ! D6    D(7,1,4,31)           179.9558         estimate D2E/DX2                !
 ! D7    D(2,1,7,6)           -115.7082         estimate D2E/DX2                !
 ! D8    D(2,1,7,8)             64.3781         estimate D2E/DX2                !
 ! D9    D(3,1,7,6)            114.8839         estimate D2E/DX2                !
 ! D10   D(3,1,7,8)            -65.0297         estimate D2E/DX2                !
 ! D11   D(4,1,7,6)             -0.1436         estimate D2E/DX2                !
 ! D12   D(4,1,7,8)            179.9428         estimate D2E/DX2                !
 ! D13   D(1,4,5,6)             -0.1272         estimate D2E/DX2                !
 ! D14   D(1,4,5,32)           179.8092         estimate D2E/DX2                !
 ! D15   D(31,4,5,6)          -179.914          estimate D2E/DX2                !
 ! D16   D(31,4,5,32)            0.0225         estimate D2E/DX2                !
 ! D17   D(4,5,6,7)              0.0144         estimate D2E/DX2                !
 ! D18   D(4,5,6,10)          -179.9032         estimate D2E/DX2                !
 ! D19   D(32,5,6,7)          -179.9193         estimate D2E/DX2                !
 ! D20   D(32,5,6,10)            0.1632         estimate D2E/DX2                !
 ! D21   D(5,6,7,1)              0.1077         estimate D2E/DX2                !
 ! D22   D(5,6,7,8)           -179.9582         estimate D2E/DX2                !
 ! D23   D(10,6,7,1)          -179.9543         estimate D2E/DX2                !
 ! D24   D(10,6,7,8)            -0.0202         estimate D2E/DX2                !
 ! D25   D(5,6,10,9)          -179.8705         estimate D2E/DX2                !
 ! D26   D(5,6,10,11)            0.3038         estimate D2E/DX2                !
 ! D27   D(7,6,10,9)             0.2085         estimate D2E/DX2                !
 ! D28   D(7,6,10,11)         -179.6172         estimate D2E/DX2                !
 ! D29   D(1,7,8,9)            179.7388         estimate D2E/DX2                !
 ! D30   D(1,7,8,22)            -0.135          estimate D2E/DX2                !
 ! D31   D(6,7,8,9)             -0.1709         estimate D2E/DX2                !
 ! D32   D(6,7,8,22)           179.9553         estimate D2E/DX2                !
 ! D33   D(7,8,9,10)             0.2458         estimate D2E/DX2                !
 ! D34   D(22,8,9,10)         -179.8583         estimate D2E/DX2                !
 ! D35   D(7,8,22,23)            0.1323         estimate D2E/DX2                !
 ! D36   D(7,8,22,30)         -179.8193         estimate D2E/DX2                !
 ! D37   D(9,8,22,23)         -179.7329         estimate D2E/DX2                !
 ! D38   D(9,8,22,30)            0.3155         estimate D2E/DX2                !
 ! D39   D(8,9,10,6)            -0.2686         estimate D2E/DX2                !
 ! D40   D(8,9,10,11)          179.5912         estimate D2E/DX2                !
 ! D41   D(6,10,11,12)        -178.8745         estimate D2E/DX2                !
 ! D42   D(6,10,11,15)           1.7652         estimate D2E/DX2                !
 ! D43   D(9,10,11,12)           1.3024         estimate D2E/DX2                !
 ! D44   D(9,10,11,15)        -178.058          estimate D2E/DX2                !
 ! D45   D(10,11,12,13)        179.3572         estimate D2E/DX2                !
 ! D46   D(10,11,12,33)         -0.4158         estimate D2E/DX2                !
 ! D47   D(15,11,12,13)         -1.2548         estimate D2E/DX2                !
 ! D48   D(15,11,12,33)        178.9722         estimate D2E/DX2                !
 ! D49   D(10,11,15,14)       -179.1338         estimate D2E/DX2                !
 ! D50   D(12,11,15,14)          1.3815         estimate D2E/DX2                !
 ! D51   D(11,12,13,14)          0.2704         estimate D2E/DX2                !
 ! D52   D(33,12,13,14)       -179.9382         estimate D2E/DX2                !
 ! D53   D(12,13,14,15)          0.8701         estimate D2E/DX2                !
 ! D54   D(12,13,14,16)       -179.2671         estimate D2E/DX2                !
 ! D55   D(13,14,15,11)         -1.3743         estimate D2E/DX2                !
 ! D56   D(16,14,15,11)        178.7475         estimate D2E/DX2                !
 ! D57   D(13,14,16,17)         -2.0501         estimate D2E/DX2                !
 ! D58   D(13,14,16,20)        178.1967         estimate D2E/DX2                !
 ! D59   D(15,14,16,17)        177.8178         estimate D2E/DX2                !
 ! D60   D(15,14,16,20)         -1.9355         estimate D2E/DX2                !
 ! D61   D(14,16,17,18)       -179.9109         estimate D2E/DX2                !
 ! D62   D(14,16,17,34)          0.0079         estimate D2E/DX2                !
 ! D63   D(20,16,17,18)         -0.1364         estimate D2E/DX2                !
 ! D64   D(20,16,17,34)        179.7824         estimate D2E/DX2                !
 ! D65   D(14,16,20,19)        179.9389         estimate D2E/DX2                !
 ! D66   D(14,16,20,21)          0.1581         estimate D2E/DX2                !
 ! D67   D(17,16,20,19)          0.1397         estimate D2E/DX2                !
 ! D68   D(17,16,20,21)       -179.6411         estimate D2E/DX2                !
 ! D69   D(16,17,18,19)          0.086          estimate D2E/DX2                !
 ! D70   D(16,17,18,35)       -179.9475         estimate D2E/DX2                !
 ! D71   D(34,17,18,19)       -179.8255         estimate D2E/DX2                !
 ! D72   D(34,17,18,35)          0.141          estimate D2E/DX2                !
 ! D73   D(17,18,19,20)         -0.003          estimate D2E/DX2                !
 ! D74   D(17,18,19,36)        179.9603         estimate D2E/DX2                !
 ! D75   D(35,18,19,20)       -179.9696         estimate D2E/DX2                !
 ! D76   D(35,18,19,36)         -0.0063         estimate D2E/DX2                !
 ! D77   D(18,19,20,16)         -0.0814         estimate D2E/DX2                !
 ! D78   D(18,19,20,21)        179.6901         estimate D2E/DX2                !
 ! D79   D(36,19,20,16)        179.9494         estimate D2E/DX2                !
 ! D80   D(36,19,20,21)         -0.2791         estimate D2E/DX2                !
 ! D81   D(8,22,23,24)         179.9986         estimate D2E/DX2                !
 ! D82   D(30,22,23,24)         -0.0478         estimate D2E/DX2                !
 ! D83   D(8,22,30,26)        -179.9566         estimate D2E/DX2                !
 ! D84   D(8,22,30,29)           0.0668         estimate D2E/DX2                !
 ! D85   D(23,22,30,26)          0.0931         estimate D2E/DX2                !
 ! D86   D(23,22,30,29)       -179.8834         estimate D2E/DX2                !
 ! D87   D(22,23,24,25)         -0.0661         estimate D2E/DX2                !
 ! D88   D(22,23,24,37)        179.8992         estimate D2E/DX2                !
 ! D89   D(23,24,25,26)          0.1201         estimate D2E/DX2                !
 ! D90   D(23,24,25,38)       -179.9502         estimate D2E/DX2                !
 ! D91   D(37,24,25,26)       -179.8428         estimate D2E/DX2                !
 ! D92   D(37,24,25,38)          0.0869         estimate D2E/DX2                !
 ! D93   D(24,25,26,27)        179.9095         estimate D2E/DX2                !
 ! D94   D(24,25,26,30)         -0.0639         estimate D2E/DX2                !
 ! D95   D(38,25,26,27)         -0.021          estimate D2E/DX2                !
 ! D96   D(38,25,26,30)       -179.9945         estimate D2E/DX2                !
 ! D97   D(25,26,27,28)       -179.9417         estimate D2E/DX2                !
 ! D98   D(30,26,27,28)          0.0334         estimate D2E/DX2                !
 ! D99   D(25,26,30,22)         -0.0348         estimate D2E/DX2                !
 ! D100  D(25,26,30,29)        179.9458         estimate D2E/DX2                !
 ! D101  D(27,26,30,22)        179.9886         estimate D2E/DX2                !
 ! D102  D(27,26,30,29)         -0.0307         estimate D2E/DX2                !
 ! D103  D(26,27,28,29)         -0.0239         estimate D2E/DX2                !
 ! D104  D(27,28,29,30)          0.0066         estimate D2E/DX2                !
 ! D105  D(28,29,30,22)        179.9894         estimate D2E/DX2                !
 ! D106  D(28,29,30,26)          0.0116         estimate D2E/DX2                !
 --------------------------------------------------------------------------------
 Trust Radius=3.00D-01 FncErr=1.00D-07 GrdErr=1.00D-06
 Number of steps in this run=    228 maximum allowed number of steps=    228.
 GradGradGradGradGradGradGradGradGradGradGradGradGradGradGradGradGradGrad

                          Input orientation:                          
 ---------------------------------------------------------------------
 Center     Atomic      Atomic             Coordinates (Angstroms)
 Number     Number       Type             X           Y           Z
 ---------------------------------------------------------------------
      1         14           0       -1.549780    1.580780    0.004130
      2          1           0       -1.698790    2.324250   -1.268740
      3          1           0       -1.694070    2.306000    1.287780
      4          6           0       -2.343260   -0.121330    0.001470
      5          6           0       -1.404170   -1.078590    0.002560
      6          6           0       -0.040650   -0.598540    0.002530
      7          6           0        0.111750    0.808520    0.001680
      8          6           0        1.401040    1.249130    0.000760
      9         16           0        2.439350   -0.081740    0.005700
     10          6           0        1.192960   -1.192690    0.001750
     11          6           0        1.609380   -2.534240   -0.004800
     12          6           0        2.871000   -3.101120    0.015000
     13          7           0        2.874810   -4.477680    0.013550
     14          6           0        1.626190   -4.857910   -0.012980
     15         16           0        0.423220   -3.693230   -0.059090
     16          6           0        1.161190   -6.182830   -0.009690
     17          6           0        1.853260   -7.347610   -0.016850
     18          6           0        0.882780   -8.372090   -0.010840
     19          6           0       -0.368730   -7.792840   -0.002170
     20          7           0       -0.187000   -6.449250   -0.002670
     21          1           0       -0.904900   -5.733040   -0.001860
     22          6           0        1.989110    2.554570   -0.001080
     23          7           0        1.133290    3.611270    0.000600
     24          6           0        1.621500    4.876000   -0.000960
     25          6           0        2.962480    5.250910   -0.002960
     26          6           0        3.874690    4.180230   -0.006020
     27          7           0        5.213880    4.283450   -0.010080
     28         16           0        5.820120    2.742180   -0.013940
     29          7           0        4.413440    1.903540   -0.009930
     30          6           0        3.393090    2.785110   -0.005500
     31          1           0       -3.415470   -0.258450    0.002580
     32          1           0       -1.685180   -2.126030    0.004420
     33          1           0        3.820660   -2.569650    0.034420
     34          1           0        2.936540   -7.406770   -0.026660
     35          1           0        1.082680   -9.427850   -0.013200
     36          1           0       -1.369770   -8.197090    0.003800
     37          1           0        0.839670    5.632350   -0.001120
     38          1           0        3.286610    6.275890   -0.003350
 ---------------------------------------------------------------------
                    Distance matrix (angstroms):
                    1          2          3          4          5
     1  Si   0.000000
     2  H    1.481604   0.000000
     3  H    1.481392   2.556589   0.000000
     4  C    1.877977   2.830130   2.822760   0.000000
     5  C    2.663354   3.644492   3.631980   1.340984   0.000000
     6  C    2.650832   3.592806   3.580785   2.351541   1.445557
     7  C    1.832232   2.681317   2.675348   2.625204   2.420578
     8  C    2.969401   3.518019   3.514698   3.987223   3.645201
     9  S    4.321705   4.953503   4.942691   4.782776   3.970688
    10  C    3.900611   4.727074   4.714833   3.694951   2.599635
    11  C    5.187847   6.012192   6.000956   4.630933   3.346708
    12  C    6.439224   7.208718   7.190047   6.005651   4.729467
    13  N    7.502135   8.296284   8.277478   6.797513   5.464760
    14  C    7.179402   8.013479   8.002356   6.179962   4.844232
    15  S    5.631333   6.494324   6.502902   4.518357   3.190532
    16  C    8.223332   9.062842   9.049650   7.001648   5.712660
    17  C    9.554960  10.379266  10.367150   8.356449   7.064831
    18  C   10.245838  11.075130  11.061111   8.859036   7.643655
    19  C    9.447734  10.282450  10.266794   7.921543   6.793623
    20  N    8.144851   8.992371   8.977245   6.685211   5.506861
    21  H    7.342198   8.194826   8.179983   5.793115   4.681153
    22  C    3.670427   3.906484   3.910085   5.092139   4.971339
    23  N    3.364783   3.359810   3.369648   5.100853   5.332307
    24  C    4.573349   4.375274   4.388480   6.379078   6.679209
    25  C    5.816390   5.647564   5.658795   7.550620   7.689619
    26  C    6.015157   6.008561   6.016456   7.560845   7.451283
    27  N    7.283661   7.294361   7.301679   8.747147   8.517642
    28  S    7.460871   7.634343   7.638572   8.651052   8.172449
    29  N    5.971965   6.254675   6.256813   7.053596   6.537419
    30  C    5.087481   5.266442   5.270798   6.430642   6.159703
    31  H    2.619841   3.351654   3.345349   1.080943   2.172086
    32  H    3.709282   4.628835   4.614107   2.109953   1.084482
    33  H    6.787386   7.490849   7.466935   6.632440   5.433519
    34  H   10.045102  10.849968  10.840120   8.997484   7.673883
    35  H   11.319014  12.141862  12.127907   9.917086   8.711763
    36  H    9.779527  10.603123  10.586249   8.134223   7.118583
    37  H    4.703692   4.358230   4.375581   6.575400   7.076125
    38  H    6.740533   6.486207   6.498786   8.521730   8.723063
                    6          7          8          9         10
     6  C    0.000000
     7  C    1.415289   0.000000
     8  C    2.343578   1.362500   0.000000
     9  S    2.533277   2.492048   1.687995   0.000000
    10  C    1.369236   2.274611   2.450670   1.669645   0.000000
    11  C    2.543538   3.662920   3.789106   2.589154   1.404708
    12  C    3.839371   4.785282   4.591912   3.050092   2.541279
    13  N    4.852603   5.964776   5.913418   4.417463   3.690517
    14  C    4.573929   5.865337   6.111204   4.844933   3.690765
    15  S    3.129869   4.512921   5.038515   4.136646   2.617041
    16  C    5.712168   7.069684   7.435837   6.233557   4.990254
    17  C    7.009794   8.340003   8.608644   7.289505   6.190265
    18  C    7.828217   9.212939   9.635175   8.435229   7.186108
    19  C    7.201778   8.614770   9.213540   8.206488   6.782394
    20  N    5.852542   7.263917   7.860467   6.887886   5.434679
    21  H    5.206730   6.620090   7.353099   6.566678   5.001581
    22  C    3.749939   2.563821   1.431783   2.674489   3.830903
    23  N    4.370428   2.983111   2.377266   3.917160   4.804331
    24  C    5.721306   4.338634   3.633565   5.024750   6.083802
    25  C    6.575324   5.278401   4.295620   5.358255   6.682156
    26  C    6.177913   5.052544   3.835406   4.497191   6.004998
    27  N    7.172452   6.173087   4.872880   5.172345   6.793824
    28  S    6.746059   6.027004   4.664513   4.405056   6.074048
    29  N    5.108765   4.438890   3.082681   2.799752   4.467468
    30  C    4.820760   3.830686   2.515460   3.021353   4.545714
    31  H    3.391913   3.685065   5.046937   5.857487   4.702173
    32  H    2.244484   3.441010   4.573453   4.603354   3.025693
    33  H    4.335436   5.016883   4.520926   2.845793   2.966799
    34  H    7.430781   8.687418   8.791082   7.341955   6.454120
    35  H    8.900496  10.282325  10.681734   9.444082   8.235912
    36  H    7.713918   9.126660   9.844210   8.964837   7.458499
    37  H    6.292771   4.878444   4.419022   5.933789   6.834178
    38  H    7.637309   6.322333   5.368771   6.413844   7.756487
                   11         12         13         14         15
    11  C    0.000000
    12  C    1.383268   0.000000
    13  N    2.319183   1.376566   0.000000
    14  C    2.323745   2.153287   1.305500   0.000000
    15  S    1.659271   2.519466   2.575060   1.675035   0.000000
    16  C    3.676018   3.524343   2.417555   1.404154   2.597142
    17  C    4.819559   4.366862   3.046471   2.500036   3.924448
    18  C    5.882897   5.633543   4.374381   3.591953   4.701623
    19  C    5.618345   5.701612   4.638004   3.548751   4.175791
    20  N    4.307469   4.534496   3.641707   2.412494   2.823331
    21  H    4.068653   4.602685   3.982760   2.678132   2.434749
    22  C    5.102960   5.724056   7.087822   7.421369   6.441303
    23  N    6.163926   6.933688   8.274308   8.483522   7.339175
    24  C    7.410251   8.074401   9.437284   9.733919   8.652801
    25  C    7.901863   8.352550   9.728999  10.196765   9.297776
    26  C    7.086306   7.350231   8.715478   9.313634   8.596908
    27  N    7.711896   7.747360   9.068032   9.820183   9.304851
    28  S    6.750631   6.545403   7.797563   8.680462   8.398992
    29  N    5.249445   5.237019   6.564138   7.313411   6.873726
    30  C    5.610446   5.909374   7.281284   7.844600   7.126843
    31  H    5.516194   6.899321   7.574275   6.824486   5.151413
    32  H    3.319766   4.659366   5.130677   4.292859   2.627832
    33  H    2.211911   1.088435   2.129706   3.170817   3.579633
    34  H    5.050087   4.306350   2.930016   2.865989   4.484218
    35  H    6.913707   6.574678   5.264658   4.602147   5.772596
    36  H    6.398694   6.629718   5.643630   4.486221   4.848043
    37  H    8.202784   8.966608  10.312842  10.519711   9.335054
    38  H    8.968361   9.386234  10.761465  11.256935  10.372341
                   16         17         18         19         20
    16  C    0.000000
    17  C    1.354889   0.000000
    18  C    2.206892   1.411179   0.000000
    19  C    2.221001   2.266205   1.379088   0.000000
    20  N    1.374280   2.229330   2.200411   1.355825   0.000000
    21  H    2.114498   3.196014   3.187548   2.128439   1.014070
    22  C    8.776542   9.903124  10.982530  10.612648   9.263057
    23  N    9.794145  10.982518  11.985984  11.502600  10.146785
    24  C   11.068409  12.225817  13.268673  12.824216  11.468738
    25  C   11.574761  12.647263  13.780832  13.462406  12.116640
    26  C   10.712428  11.703734  12.903964  12.702796  11.379068
    27  N   11.223516  12.106832  13.376140  13.304224  12.015008
    28  S   10.067842  10.841580  12.161593  12.218373  10.980346
    29  N    8.715877   9.598872  10.865272  10.811521   9.535890
    30  C    9.241501  10.249059  11.436118  11.226946   9.904063
    31  H    7.486270   8.832671   9.181846   8.127095   6.982052
    32  H    4.955769   6.307607   6.753363   5.817716   4.575459
    33  H    4.486624   5.167416   6.503960   6.695823   5.577993
    34  H    2.156429   1.084939   2.269366   3.327831   3.267097
    35  H    3.245971   2.218379   1.074521   2.186314   3.237940
    36  H    3.234685   3.333161   2.259385   1.079599   2.110434
    37  H   11.819557  13.019484  14.004510  13.479464  12.125144
    38  H   12.638716  13.698702  14.843914  14.535841  13.190722
                   21         22         23         24         25
    21  H    0.000000
    22  C    8.778370   0.000000
    23  N    9.564013   1.359796   0.000000
    24  C   10.905706   2.350356   1.355689   0.000000
    25  C   11.644904   2.866653   2.456495   1.392404   0.000000
    26  C   11.005336   2.489620   2.799827   2.358174   1.406589
    27  N   11.737530   3.658996   4.135596   3.640933   2.450476
    28  S   10.819214   3.835623   4.766750   4.709752   3.802625
    29  N    9.306028   2.510238   3.698086   4.078054   3.648317
    30  C    9.541049   1.422789   2.406091   2.740506   2.503118
    31  H    6.022800   6.092830   5.972098   7.192611   8.428008
    32  H    3.690447   5.950500   6.392214   7.743551   8.718947
    33  H    5.686763   5.441826   6.739946   7.763714   7.867594
    34  H    4.190304  10.006327  11.164661  12.352993  12.657729
    35  H    4.195500  12.016661  13.039226  14.314000  14.798640
    36  H    2.507524  11.264115  12.070737  13.410943  14.128593
    37  H   11.498505   3.285414   2.042298   1.087807   2.156808
    38  H   12.719401   3.941032   3.425931   2.175383   1.075009
                   26         27         28         29         30
    26  C    0.000000
    27  N    1.343168   0.000000
    28  S    2.419245   1.656217   0.000000
    29  N    2.339569   2.510911   1.637706   0.000000
    30  C    1.475906   2.358033   2.427424   1.348443   0.000000
    31  H    8.535127   9.751651   9.710828   8.121957   7.457869
    32  H    8.407210   9.416935   8.945912   7.309638   7.064575
    33  H    6.750217   6.993427   5.675889   4.512514   5.371952
    34  H   11.624935  11.909987  10.550658   9.426738  10.202123
    35  H   13.891552  14.320146  13.059593  11.810774  12.429579
    36  H   13.442563  14.110582  13.090549  11.639091  11.970532
    37  H    3.364524   4.577480   5.758310   5.164875   3.824493
    38  H    2.176611   2.772045   4.348091   4.515222   3.492404
                   31         32         33         34         35
    31  H    0.000000
    32  H    2.545930   0.000000
    33  H    7.596330   5.523764   0.000000
    34  H    9.562812   7.017655   4.917634   0.000000
    35  H   10.213300   7.808837   7.384694   2.742580   0.000000
    36  H    8.197981   6.079248   7.655690   4.378338   2.744006
    37  H    7.266894   8.158882   8.726991  13.206671  15.062165
    38  H    9.360316   9.762736   8.861727  13.687157  15.857643
                   36         37         38
    36  H    0.000000
    37  H   14.004823   0.000000
    38  H   15.203588   2.530151   0.000000
 Stoichiometry    C18H11N5S3Si
 Framework group  C1[X(C18H11N5S3Si)]
 Deg. of freedom   108
 Full point group                 C1      NOp   1
 Largest Abelian subgroup         C1      NOp   1
 Largest concise Abelian subgroup C1      NOp   1
                         Standard orientation:                         
 ---------------------------------------------------------------------
 Center     Atomic      Atomic             Coordinates (Angstroms)
 Number     Number       Type             X           Y           Z
 ---------------------------------------------------------------------
      1         14           0        1.422501    3.622140    0.004370
      2          1           0        2.104738    3.949245   -1.269484
      3          1           0        2.090261    3.943588    1.287058
      4          6           0       -0.423263    3.968476    0.002710
      5          6           0       -1.117580    2.821239    0.005897
      6          6           0       -0.314224    1.619468    0.006847
      7          6           0        1.086649    1.820952    0.004613
      8          6           0        1.833379    0.681303    0.004634
      9         16           0        0.801758   -0.654746    0.012193
     10          6           0       -0.583710    0.277014    0.008089
     11          6           0       -1.779991   -0.459258    0.003482
     12          6           0       -2.016094   -1.822053    0.025305
     13          7           0       -3.348663   -2.167297    0.025379
     14          6           0       -4.026832   -1.052102   -0.002115
     15         16           0       -3.197092    0.402167   -0.050843
     16          6           0       -5.425694   -0.930378    0.002123
     17          6           0       -6.382338   -1.889820   -0.002985
     18          6           0       -7.615573   -1.203874    0.003082
     19          6           0       -7.364956    0.152234    0.009726
     20          7           0       -6.018291    0.309558    0.007944
     21          1           0       -5.502603    1.182715    0.007168
     22          6           0        3.243908    0.435526    0.002004
     23          7           0        4.055218    1.526774    0.001570
     24          6           0        5.401532    1.367633   -0.000846
     25          6           0        6.097442    0.161608   -0.001774
     26          6           0        5.286579   -0.987737   -0.002642
     27          7           0        5.718849   -2.259443   -0.005333
     28         16           0        4.376195   -3.229150   -0.006820
     29          7           0        3.214756   -2.074537   -0.003442
     30          6           0        3.815592   -0.867354   -0.001115
     31          1           0       -0.822132    4.973135    0.002784
     32          1           0       -2.201988    2.833573    0.008602
     33          1           0       -1.265597   -2.610121    0.045190
     34          1           0       -6.170872   -2.953916   -0.011529
     35          1           0       -8.588721   -1.659481    0.002108
     36          1           0       -8.004939    1.021676    0.015033
     37          1           0        5.940241    2.312679   -0.002706
     38          1           0        7.170792    0.101931   -0.002937
 ---------------------------------------------------------------------
 Rotational constants (GHZ):      0.3201004      0.0742359      0.0603096
 Standard basis: 6-31++G(d,p) (6D, 7F)
 There are   595 symmetry adapted basis functions of A   symmetry.
 Integral buffers will be    131072 words long.
 Raffenetti 2 integral format.
 Two-electron integral symmetry is turned on.
   595 basis functions,  1048 primitive gaussians,   595 cartesian basis functions
   108 alpha electrons      108 beta electrons
       nuclear repulsion energy      2853.6007519801 Hartrees.
 NAtoms=   38 NActive=   38 NUniq=   38 SFac= 1.00D+00 NAtFMM=   60 NAOKFM=F Big=F
 One-electron integrals computed using PRISM.
 NBasis=   595 RedAO= T  NBF=   595
 NBsUse=   588 1.00D-06 NBFU=   588
 Harris functional with IExCor=  402 diagonalized for initial guess.
 ExpMin= 3.31D-02 ExpMax= 2.19D+04 ExpMxC= 3.30D+03 IAcc=3 IRadAn=         5 AccDes= 0.00D+00
 HarFok:  IExCor=  402 AccDes= 0.00D+00 IRadAn=         5 IDoV= 1
 ScaDFX=  1.000000  1.000000  1.000000  1.000000
 FoFCou: FMM=F IPFlag=           0 FMFlag=      100000 FMFlg1=           0
         NFxFlg=           0 DoJE=T BraDBF=F KetDBF=T FulRan=T
         Omega=  0.000000  0.000000  1.000000  0.000000  0.000000 ICntrl=     500 IOpCl=  0
         NMat0=    1 NMatS0=    1 NMatT0=    0 NMatD0=    1 NMtDS0=    0 NMtDT0=    0
         I1Cent=           4 NGrid=           0.
 Petite list used in FoFCou.
 Initial guess orbital symmetries:
       Occupied  (A) (A) (A) (A) (A) (A) (A) (A) (A) (A) (A) (A)
                 (A) (A) (A) (A) (A) (A) (A) (A) (A) (A) (A) (A)
                 (A) (A) (A) (A) (A) (A) (A) (A) (A) (A) (A) (A)
                 (A) (A) (A) (A) (A) (A) (A) (A) (A) (A) (A) (A)
                 (A) (A) (A) (A) (A) (A) (A) (A) (A) (A) (A) (A)
                 (A) (A) (A) (A) (A) (A) (A) (A) (A) (A) (A) (A)
                 (A) (A) (A) (A) (A) (A) (A) (A) (A) (A) (A) (A)
                 (A) (A) (A) (A) (A) (A) (A) (A) (A) (A) (A) (A)
                 (A) (A) (A) (A) (A) (A) (A) (A) (A) (A) (A) (A)
       Virtual   (A) (A) (A) (A) (A) (A) (A) (A) (A) (A) (A) (A)
                 (A) (A) (A) (A) (A) (A) (A) (A) (A) (A) (A) (A)
                 (A) (A) (A) (A) (A) (A) (A) (A) (A) (A) (A) (A)
                 (A) (A) (A) (A) (A) (A) (A) (A) (A) (A) (A) (A)
                 (A) (A) (A) (A) (A) (A) (A) (A) (A) (A) (A) (A)
                 (A) (A) (A) (A) (A) (A) (A) (A) (A) (A) (A) (A)
                 (A) (A) (A) (A) (A) (A) (A) (A) (A) (A) (A) (A)
                 (A) (A) (A) (A) (A) (A) (A) (A) (A) (A) (A) (A)
                 (A) (A) (A) (A) (A) (A) (A) (A) (A) (A) (A) (A)
                 (A) (A) (A) (A) (A) (A) (A) (A) (A) (A) (A) (A)
                 (A) (A) (A) (A) (A) (A) (A) (A) (A) (A) (A) (A)
                 (A) (A) (A) (A) (A) (A) (A) (A) (A) (A) (A) (A)
                 (A) (A) (A) (A) (A) (A) (A) (A) (A) (A) (A) (A)
                 (A) (A) (A) (A) (A) (A) (A) (A) (A) (A) (A) (A)
                 (A) (A) (A) (A) (A) (A) (A) (A) (A) (A) (A) (A)
                 (A) (A) (A) (A) (A) (A) (A) (A) (A) (A) (A) (A)
                 (A) (A) (A) (A) (A) (A) (A) (A) (A) (A) (A) (A)
                 (A) (A) (A) (A) (A) (A) (A) (A) (A) (A) (A) (A)
                 (A) (A) (A) (A) (A) (A) (A) (A) (A) (A) (A) (A)
                 (A) (A) (A) (A) (A) (A) (A) (A) (A) (A) (A) (A)
                 (A) (A) (A) (A) (A) (A) (A) (A) (A) (A) (A) (A)
                 (A) (A) (A) (A) (A) (A) (A) (A) (A) (A) (A) (A)
                 (A) (A) (A) (A) (A) (A) (A) (A) (A) (A) (A) (A)
                 (A) (A) (A) (A) (A) (A) (A) (A) (A) (A) (A) (A)
                 (A) (A) (A) (A) (A) (A) (A) (A) (A) (A) (A) (A)
                 (A) (A) (A) (A) (A) (A) (A) (A) (A) (A) (A) (A)
                 (A) (A) (A) (A) (A) (A) (A) (A) (A) (A) (A) (A)
                 (A) (A) (A) (A) (A) (A) (A) (A) (A) (A) (A) (A)
                 (A) (A) (A) (A) (A) (A) (A) (A) (A) (A) (A) (A)
                 (A) (A) (A) (A) (A) (A) (A) (A) (A) (A) (A) (A)
                 (A) (A) (A) (A) (A) (A) (A) (A) (A) (A) (A) (A)
                 (A) (A) (A) (A) (A) (A) (A) (A) (A) (A) (A) (A)
                 (A) (A) (A) (A) (A) (A) (A) (A) (A) (A) (A) (A)
                 (A) (A) (A) (A) (A) (A) (A) (A) (A) (A) (A) (A)
                 (A) (A) (A) (A) (A) (A) (A) (A) (A) (A) (A) (A)
                 (A) (A) (A) (A) (A) (A) (A) (A) (A) (A) (A) (A)
                 (A) (A) (A) (A) (A) (A) (A) (A) (A) (A) (A) (A)
                 (A) (A) (A) (A) (A) (A) (A) (A) (A) (A) (A) (A)
                 (A) (A) (A) (A) (A) (A) (A) (A) (A) (A) (A) (A)
                 (A) (A) (A) (A) (A) (A) (A) (A) (A) (A) (A) (A)
 The electronic state of the initial guess is 1-A.
 Requested convergence on RMS density matrix=1.00D-08 within 128 cycles.
 Requested convergence on MAX density matrix=1.00D-06.
 Requested convergence on             energy=1.00D-06.
 No special actions if energy rises.
 EnCoef did     3 forward-backward iterations
 Restarting incremental Fock formation.
 SCF Done:  E(RB3LYP) =  -2450.31339249     A.U. after   25 cycles
             Convg  =    0.1994D-08             -V/T =  2.0052

 **********************************************************************

            Population analysis using the SCF density.

 **********************************************************************

 Orbital symmetries:
       Occupied  (A) (A) (A) (A) (A) (A) (A) (A) (A) (A) (A) (A)
                 (A) (A) (A) (A) (A) (A) (A) (A) (A) (A) (A) (A)
                 (A) (A) (A) (A) (A) (A) (A) (A) (A) (A) (A) (A)
                 (A) (A) (A) (A) (A) (A) (A) (A) (A) (A) (A) (A)
                 (A) (A) (A) (A) (A) (A) (A) (A) (A) (A) (A) (A)
                 (A) (A) (A) (A) (A) (A) (A) (A) (A) (A) (A) (A)
                 (A) (A) (A) (A) (A) (A) (A) (A) (A) (A) (A) (A)
                 (A) (A) (A) (A) (A) (A) (A) (A) (A) (A) (A) (A)
                 (A) (A) (A) (A) (A) (A) (A) (A) (A) (A) (A) (A)
       Virtual   (A) (A) (A) (A) (A) (A) (A) (A) (A) (A) (A) (A)
                 (A) (A) (A) (A) (A) (A) (A) (A) (A) (A) (A) (A)
                 (A) (A) (A) (A) (A) (A) (A) (A) (A) (A) (A) (A)
                 (A) (A) (A) (A) (A) (A) (A) (A) (A) (A) (A) (A)
                 (A) (A) (A) (A) (A) (A) (A) (A) (A) (A) (A) (A)
                 (A) (A) (A) (A) (A) (A) (A) (A) (A) (A) (A) (A)
                 (A) (A) (A) (A) (A) (A) (A) (A) (A) (A) (A) (A)
                 (A) (A) (A) (A) (A) (A) (A) (A) (A) (A) (A) (A)
                 (A) (A) (A) (A) (A) (A) (A) (A) (A) (A) (A) (A)
                 (A) (A) (A) (A) (A) (A) (A) (A) (A) (A) (A) (A)
                 (A) (A) (A) (A) (A) (A) (A) (A) (A) (A) (A) (A)
                 (A) (A) (A) (A) (A) (A) (A) (A) (A) (A) (A) (A)
                 (A) (A) (A) (A) (A) (A) (A) (A) (A) (A) (A) (A)
                 (A) (A) (A) (A) (A) (A) (A) (A) (A) (A) (A) (A)
                 (A) (A) (A) (A) (A) (A) (A) (A) (A) (A) (A) (A)
                 (A) (A) (A) (A) (A) (A) (A) (A) (A) (A) (A) (A)
                 (A) (A) (A) (A) (A) (A) (A) (A) (A) (A) (A) (A)
                 (A) (A) (A) (A) (A) (A) (A) (A) (A) (A) (A) (A)
                 (A) (A) (A) (A) (A) (A) (A) (A) (A) (A) (A) (A)
                 (A) (A) (A) (A) (A) (A) (A) (A) (A) (A) (A) (A)
                 (A) (A) (A) (A) (A) (A) (A) (A) (A) (A) (A) (A)
                 (A) (A) (A) (A) (A) (A) (A) (A) (A) (A) (A) (A)
                 (A) (A) (A) (A) (A) (A) (A) (A) (A) (A) (A) (A)
                 (A) (A) (A) (A) (A) (A) (A) (A) (A) (A) (A) (A)
                 (A) (A) (A) (A) (A) (A) (A) (A) (A) (A) (A) (A)
                 (A) (A) (A) (A) (A) (A) (A) (A) (A) (A) (A) (A)
                 (A) (A) (A) (A) (A) (A) (A) (A) (A) (A) (A) (A)
                 (A) (A) (A) (A) (A) (A) (A) (A) (A) (A) (A) (A)
                 (A) (A) (A) (A) (A) (A) (A) (A) (A) (A) (A) (A)
                 (A) (A) (A) (A) (A) (A) (A) (A) (A) (A) (A) (A)
                 (A) (A) (A) (A) (A) (A) (A) (A) (A) (A) (A) (A)
                 (A) (A) (A) (A) (A) (A) (A) (A) (A) (A) (A) (A)
                 (A) (A) (A) (A) (A) (A) (A) (A) (A) (A) (A) (A)
                 (A) (A) (A) (A) (A) (A) (A) (A) (A) (A) (A) (A)
                 (A) (A) (A) (A) (A) (A) (A) (A) (A) (A) (A) (A)
                 (A) (A) (A) (A) (A) (A) (A) (A) (A) (A) (A) (A)
                 (A) (A) (A) (A) (A) (A) (A) (A) (A) (A) (A) (A)
                 (A) (A) (A) (A) (A) (A) (A) (A) (A) (A) (A) (A)
                 (A) (A) (A) (A) (A) (A) (A) (A) (A) (A) (A) (A)
                 (A) (A) (A) (A) (A) (A) (A) (A) (A) (A) (A) (A)
 The electronic state is 1-A.
 Alpha  occ. eigenvalues --  -88.99716 -88.92836 -88.91251 -66.13029 -14.40199
 Alpha  occ. eigenvalues --  -14.39549 -14.38716 -14.35644 -14.34903 -10.26933
 Alpha  occ. eigenvalues --  -10.26691 -10.26421 -10.26032 -10.24479 -10.23654
 Alpha  occ. eigenvalues --  -10.23587 -10.23522 -10.23074 -10.23034 -10.22575
 Alpha  occ. eigenvalues --  -10.21753 -10.21750 -10.21177 -10.18888 -10.18799
 Alpha  occ. eigenvalues --  -10.18769 -10.18535  -8.04984  -7.99339  -7.97504
 Alpha  occ. eigenvalues --   -6.01545  -6.00955  -6.00749  -5.95710  -5.95356
 Alpha  occ. eigenvalues --   -5.95017  -5.93926  -5.93484  -5.93204  -5.27933
 Alpha  occ. eigenvalues --   -3.63845  -3.63767  -3.63717  -1.03454  -1.01397
 Alpha  occ. eigenvalues --   -0.98793  -0.95931  -0.92522  -0.90796  -0.85028
 Alpha  occ. eigenvalues --   -0.82931  -0.81499  -0.81273  -0.79952  -0.78995
 Alpha  occ. eigenvalues --   -0.75042  -0.72916  -0.71346  -0.68822  -0.64893
 Alpha  occ. eigenvalues --   -0.64244  -0.63431  -0.62077  -0.61120  -0.59346
 Alpha  occ. eigenvalues --   -0.58638  -0.57126  -0.55024  -0.54800  -0.53068
 Alpha  occ. eigenvalues --   -0.51452  -0.50307  -0.49023  -0.48171  -0.47740
 Alpha  occ. eigenvalues --   -0.47200  -0.46071  -0.45963  -0.44426  -0.43599
 Alpha  occ. eigenvalues --   -0.43534  -0.42921  -0.42223  -0.41584  -0.40958
 Alpha  occ. eigenvalues --   -0.40780  -0.40112  -0.39589  -0.39512  -0.38202
 Alpha  occ. eigenvalues --   -0.37297  -0.36832  -0.35691  -0.33905  -0.33131
 Alpha  occ. eigenvalues --   -0.32244  -0.31786  -0.31746  -0.30375  -0.29759
 Alpha  occ. eigenvalues --   -0.29673  -0.29575  -0.28218  -0.27335  -0.26612
 Alpha  occ. eigenvalues --   -0.24283  -0.23496  -0.19805
 Alpha virt. eigenvalues --   -0.11954  -0.07591  -0.04810  -0.03185  -0.02218
 Alpha virt. eigenvalues --   -0.02155  -0.02004  -0.00630  -0.00056   0.00010
 Alpha virt. eigenvalues --    0.00485   0.00911   0.00977   0.01296   0.01521
 Alpha virt. eigenvalues --    0.01780   0.02248   0.02620   0.02832   0.03454
 Alpha virt. eigenvalues --    0.03522   0.03688   0.03740   0.04282   0.04405
 Alpha virt. eigenvalues --    0.04849   0.04996   0.05324   0.05928   0.06008
 Alpha virt. eigenvalues --    0.06607   0.06710   0.06891   0.07216   0.07683
 Alpha virt. eigenvalues --    0.08230   0.08378   0.08745   0.08939   0.09079
 Alpha virt. eigenvalues --    0.09724   0.10207   0.10327   0.10367   0.10648
 Alpha virt. eigenvalues --    0.10831   0.11192   0.11311   0.11435   0.11466
 Alpha virt. eigenvalues --    0.11649   0.11952   0.12116   0.12184   0.12523
 Alpha virt. eigenvalues --    0.12905   0.13008   0.13044   0.13114   0.13706
 Alpha virt. eigenvalues --    0.13922   0.14046   0.14165   0.14404   0.14758
 Alpha virt. eigenvalues --    0.14886   0.15299   0.15417   0.15523   0.16086
 Alpha virt. eigenvalues --    0.16253   0.16870   0.16950   0.16989   0.17094
 Alpha virt. eigenvalues --    0.17461   0.17856   0.17945   0.18323   0.18585
 Alpha virt. eigenvalues --    0.18922   0.19216   0.19747   0.20071   0.20221
 Alpha virt. eigenvalues --    0.20524   0.20719   0.21148   0.21272   0.21575
 Alpha virt. eigenvalues --    0.21675   0.21701   0.21992   0.22728   0.23008
 Alpha virt. eigenvalues --    0.23263   0.23425   0.23832   0.24172   0.24258
 Alpha virt. eigenvalues --    0.24342   0.24544   0.24696   0.24793   0.25062
 Alpha virt. eigenvalues --    0.25382   0.25515   0.26201   0.26472   0.26657
 Alpha virt. eigenvalues --    0.26679   0.27068   0.27488   0.27768   0.28054
 Alpha virt. eigenvalues --    0.28188   0.28299   0.28751   0.29169   0.29717
 Alpha virt. eigenvalues --    0.29806   0.30081   0.30186   0.30902   0.31396
 Alpha virt. eigenvalues --    0.31571   0.31945   0.32331   0.32629   0.32729
 Alpha virt. eigenvalues --    0.33200   0.33554   0.33713   0.34389   0.34529
 Alpha virt. eigenvalues --    0.35038   0.35267   0.35402   0.36056   0.36605
 Alpha virt. eigenvalues --    0.36956   0.37228   0.37426   0.37837   0.38238
 Alpha virt. eigenvalues --    0.38700   0.39059   0.39381   0.40331   0.40953
 Alpha virt. eigenvalues --    0.41318   0.41682   0.42835   0.43295   0.43530
 Alpha virt. eigenvalues --    0.44211   0.45124   0.45647   0.46631   0.48371
 Alpha virt. eigenvalues --    0.48923   0.49395   0.49593   0.50406   0.50787
 Alpha virt. eigenvalues --    0.51917   0.52275   0.53567   0.54174   0.55308
 Alpha virt. eigenvalues --    0.56941   0.57381   0.59166   0.59370   0.61139
 Alpha virt. eigenvalues --    0.62869   0.63473   0.63959   0.64950   0.65422
 Alpha virt. eigenvalues --    0.65786   0.66063   0.66138   0.66297   0.67704
 Alpha virt. eigenvalues --    0.67799   0.67935   0.68136   0.68872   0.69139
 Alpha virt. eigenvalues --    0.69441   0.70169   0.70836   0.71534   0.72097
 Alpha virt. eigenvalues --    0.72603   0.72680   0.73596   0.73802   0.74275
 Alpha virt. eigenvalues --    0.74579   0.75573   0.76613   0.76883   0.77165
 Alpha virt. eigenvalues --    0.77280   0.78026   0.78221   0.78705   0.79437
 Alpha virt. eigenvalues --    0.80980   0.81669   0.82561   0.82655   0.83596
 Alpha virt. eigenvalues --    0.84738   0.85342   0.86574   0.86916   0.87519
 Alpha virt. eigenvalues --    0.87588   0.88006   0.89694   0.91255   0.91809
 Alpha virt. eigenvalues --    0.91923   0.92676   0.92894   0.93806   0.94537
 Alpha virt. eigenvalues --    0.95424   0.95683   0.96090   0.96385   0.96479
 Alpha virt. eigenvalues --    0.96877   0.97857   0.99296   0.99360   1.00540
 Alpha virt. eigenvalues --    1.00937   1.01686   1.02194   1.03791   1.04235
 Alpha virt. eigenvalues --    1.04507   1.05348   1.06109   1.06914   1.07245
 Alpha virt. eigenvalues --    1.07716   1.08668   1.09941   1.10968   1.11281
 Alpha virt. eigenvalues --    1.11634   1.12410   1.13786   1.14952   1.15426
 Alpha virt. eigenvalues --    1.15713   1.16642   1.16749   1.17812   1.18044
 Alpha virt. eigenvalues --    1.18994   1.19959   1.20636   1.21458   1.21497
 Alpha virt. eigenvalues --    1.22536   1.23769   1.24033   1.24625   1.24995
 Alpha virt. eigenvalues --    1.25725   1.26864   1.27263   1.27507   1.27837
 Alpha virt. eigenvalues --    1.28306   1.29204   1.29918   1.30797   1.31723
 Alpha virt. eigenvalues --    1.31952   1.32433   1.32643   1.32761   1.33157
 Alpha virt. eigenvalues --    1.34983   1.35324   1.35562   1.36452   1.37451
 Alpha virt. eigenvalues --    1.38583   1.38616   1.39079   1.40764   1.41687
 Alpha virt. eigenvalues --    1.41898   1.42050   1.44508   1.45345   1.46638
 Alpha virt. eigenvalues --    1.47279   1.49016   1.50545   1.51786   1.54081
 Alpha virt. eigenvalues --    1.54573   1.57517   1.59998   1.60907   1.62527
 Alpha virt. eigenvalues --    1.64290   1.65249   1.66989   1.67264   1.70876
 Alpha virt. eigenvalues --    1.70996   1.71617   1.73633   1.75006   1.75854
 Alpha virt. eigenvalues --    1.76820   1.78798   1.81056   1.82765   1.83588
 Alpha virt. eigenvalues --    1.84446   1.84523   1.85690   1.87436   1.88336
 Alpha virt. eigenvalues --    1.88949   1.89138   1.89614   1.90995   1.92659
 Alpha virt. eigenvalues --    1.93110   1.93253   1.96696   1.96943   1.97522
 Alpha virt. eigenvalues --    1.98171   1.99665   2.00423   2.00975   2.01273
 Alpha virt. eigenvalues --    2.01516   2.03928   2.05700   2.07838   2.10040
 Alpha virt. eigenvalues --    2.11550   2.11845   2.13886   2.14599   2.14874
 Alpha virt. eigenvalues --    2.15782   2.16181   2.16600   2.18577   2.18968
 Alpha virt. eigenvalues --    2.20530   2.20858   2.21432   2.22027   2.25653
 Alpha virt. eigenvalues --    2.25749   2.27285   2.28104   2.29210   2.29916
 Alpha virt. eigenvalues --    2.32051   2.33399   2.33420   2.34391   2.36213
 Alpha virt. eigenvalues --    2.36644   2.37162   2.37978   2.39049   2.40286
 Alpha virt. eigenvalues --    2.40610   2.41332   2.42443   2.42973   2.43353
 Alpha virt. eigenvalues --    2.45055   2.45566   2.46703   2.46870   2.47803
 Alpha virt. eigenvalues --    2.47818   2.49034   2.50241   2.50625   2.51767
 Alpha virt. eigenvalues --    2.54145   2.55473   2.55727   2.56682   2.58655
 Alpha virt. eigenvalues --    2.59214   2.61581   2.62633   2.63566   2.64041
 Alpha virt. eigenvalues --    2.64798   2.66205   2.67518   2.68155   2.69516
 Alpha virt. eigenvalues --    2.69922   2.71052   2.72158   2.73671   2.74848
 Alpha virt. eigenvalues --    2.76300   2.77428   2.79289   2.80201   2.82974
 Alpha virt. eigenvalues --    2.83304   2.87063   2.89729   2.90349   2.92893
 Alpha virt. eigenvalues --    2.97357   2.98359   3.02204   3.02816   3.04217
 Alpha virt. eigenvalues --    3.07393   3.08621   3.11538   3.12792   3.14202
 Alpha virt. eigenvalues --    3.17551   3.24241   3.28131   3.30142   3.33234
 Alpha virt. eigenvalues --    3.33464   3.34461   3.36243   3.39259   3.55926
 Alpha virt. eigenvalues --    3.66585   3.68532   3.71851   3.84043   3.95403
 Alpha virt. eigenvalues --    4.01444   4.03173   4.13121   4.21288   4.25248
 Alpha virt. eigenvalues --    4.31018   4.32752   4.33583   4.34465   4.36047
 Alpha virt. eigenvalues --    4.38086   4.40535   4.41970   4.46488   4.47800
 Alpha virt. eigenvalues --    4.51633   4.54265   4.56262   4.57849   4.59920
 Alpha virt. eigenvalues --    4.62732   4.76660   4.78021   4.80567   4.81795
          Condensed to atoms (all electrons):
              1          2          3          4          5          6
     1  Si  12.747246   0.336393   0.348268   0.068305   0.214406  -0.210029
     2  H    0.336393   0.792752  -0.044315  -0.026280  -0.002175   0.036565
     3  H    0.348268  -0.044315   0.786264   0.051217  -0.035798   0.019099
     4  C    0.068305  -0.026280   0.051217  10.060973  -2.999343  -1.486813
     5  C    0.214406  -0.002175  -0.035798  -2.999343  16.443734  -5.283945
     6  C   -0.210029   0.036565   0.019099  -1.486813  -5.283945  15.893706
     7  C   -0.186273   0.009770   0.003611   0.962196  -3.968134   2.996962
     8  C   -0.494911   0.006662  -0.002161   1.003875  -3.093205  -0.020537
     9  S   -0.433598   0.026216   0.029609   0.399459   0.353063  -0.306375
    10  C    0.067674   0.003664  -0.009774  -1.085184   3.885781  -2.407125
    11  C    0.017114   0.004426   0.004338  -0.168624   0.165803   1.667878
    12  C    0.004274   0.000067   0.000331  -0.126737   0.629299  -2.198867
    13  N   -0.000379  -0.000032  -0.000005   0.014510   0.002098   0.077225
    14  C   -0.028399   0.002348   0.001395  -0.265635   0.319452  -2.317282
    15  S   -0.004368   0.002890  -0.004395  -0.472972   0.364675   0.323474
    16  C   -0.000213   0.000240   0.000009  -0.078374   0.011496  -0.129927
    17  C   -0.000466   0.000042   0.000014  -0.010630  -0.015720  -0.025896
    18  C    0.000156  -0.000008  -0.000007   0.000367  -0.011944   0.024589
    19  C   -0.000424   0.000019   0.000020   0.002452   0.017314  -0.032009
    20  N   -0.000551   0.000011   0.000018   0.007713   0.008943  -0.005543
    21  H    0.002675  -0.000125  -0.000156  -0.006143   0.028023  -0.044672
    22  C    0.049261   0.005813   0.011013   0.268907  -0.616959  -0.152081
    23  N    0.017797   0.011488   0.010151   0.004540  -0.018231  -0.056119
    24  C    0.113531  -0.023205  -0.023535   0.012073  -0.001324  -0.118421
    25  C   -0.150687   0.017582   0.017354  -0.025900   0.032447   0.149182
    26  C    0.273340  -0.024964  -0.024517   0.005106  -0.041905  -0.126486
    27  N   -0.000702   0.000137   0.000134   0.000059  -0.000605  -0.006775
    28  S   -0.001775   0.000104   0.000081   0.001743  -0.004815  -0.008177
    29  N   -0.014677   0.001123   0.001175   0.008604  -0.005951  -0.011969
    30  C    0.313971  -0.024586  -0.029570  -0.041967  -0.280012  -0.286073
    31  H   -0.008230  -0.000447  -0.002665   0.328227  -0.191920   0.140521
    32  H   -0.023107   0.000368   0.004033   0.240918   0.128493  -0.075315
    33  H    0.001361  -0.000005  -0.000051  -0.007095  -0.006833  -0.115893
    34  H   -0.000008   0.000001   0.000001   0.000029   0.001272  -0.001705
    35  H    0.000006  -0.000000  -0.000000  -0.000011  -0.000223   0.000825
    36  H   -0.000007   0.000001   0.000000  -0.000505   0.000610  -0.001546
    37  H    0.005727  -0.002944  -0.002996  -0.001759   0.001905  -0.001875
    38  H   -0.001274   0.000260   0.000268  -0.000065  -0.000195  -0.000161
              7          8          9         10         11         12
     1  Si  -0.186273  -0.494911  -0.433598   0.067674   0.017114   0.004274
     2  H    0.009770   0.006662   0.026216   0.003664   0.004426   0.000067
     3  H    0.003611  -0.002161   0.029609  -0.009774   0.004338   0.000331
     4  C    0.962196   1.003875   0.399459  -1.085184  -0.168624  -0.126737
     5  C   -3.968134  -3.093205   0.353063   3.885781   0.165803   0.629299
     6  C    2.996962  -0.020537  -0.306375  -2.407125   1.667878  -2.198867
     7  C   10.073105   1.779667  -0.722113  -3.710730   0.157127  -0.139552
     8  C    1.779667  14.243950   1.479863  -4.372407   0.491432  -0.452413
     9  S   -0.722113   1.479863  20.813505  -0.472490   0.020335  -0.767316
    10  C   -3.710730  -4.372407  -0.472490  14.043156  -1.365660  -0.341979
    11  C    0.157127   0.491432   0.020335  -1.365660  17.652909  -4.491974
    12  C   -0.139552  -0.452413  -0.767316  -0.341979  -4.491974  13.290264
    13  N    0.020228   0.019188   0.073370   0.078121   1.164622  -0.922861
    14  C   -0.228721   0.288108  -0.359480   0.797617  -7.463451   1.193106
    15  S   -0.010308  -0.277581  -0.721003   0.169021   0.796922  -1.269331
    16  C   -0.059849  -0.065402  -0.065441  -0.107699  -0.397694   0.682539
    17  C   -0.003814  -0.005569  -0.042785  -0.080483  -0.080223  -0.047845
    18  C    0.001572  -0.000295   0.006043  -0.005446   0.223933  -0.011505
    19  C   -0.002451  -0.000262  -0.004348   0.012560  -0.310497   0.036292
    20  N    0.002387   0.000066   0.001438   0.026481  -0.038038  -0.064617
    21  H   -0.003651  -0.002680  -0.011520  -0.006878  -0.016460   0.056000
    22  C   -0.445762   1.153989   0.160977   0.703082  -0.338896   0.073765
    23  N    0.128760  -0.129686   0.073997  -0.060671   0.007003  -0.001562
    24  C   -0.770544  -0.604443  -0.184035   0.315326  -0.034510   0.007372
    25  C    1.018440   0.316894   0.170483  -0.411663   0.045235  -0.010094
    26  C   -0.256450  -3.648978  -2.111048  -0.027584  -0.035415  -0.015261
    27  N   -0.010618   0.056455   0.038884   0.024244  -0.004486   0.000502
    28  S   -0.059563  -0.013623   0.124163   0.049041  -0.016072  -0.000468
    29  N   -0.069783  -0.056549   0.089418   0.094142  -0.026910   0.005535
    30  C   -0.440317  -1.478706  -1.629670   0.661848  -0.452890  -0.094482
    31  H    0.059068   0.052174  -0.013149  -0.059784  -0.008459  -0.002606
    32  H    0.043665   0.018938   0.076752  -0.066266  -0.074532  -0.048736
    33  H    0.014154   0.035328  -0.027837  -0.145244  -0.505047   0.844042
    34  H   -0.000314   0.000065  -0.000460   0.000855  -0.007702  -0.014566
    35  H    0.000037  -0.000037   0.000017  -0.001175   0.014494   0.002790
    36  H   -0.000160  -0.000041  -0.000219  -0.000281  -0.009817   0.004086
    37  H   -0.017369  -0.046865  -0.011396   0.009382  -0.000996   0.000171
    38  H    0.009975   0.006522  -0.002797  -0.003092   0.000028  -0.000065
             13         14         15         16         17         18
     1  Si  -0.000379  -0.028399  -0.004368  -0.000213  -0.000466   0.000156
     2  H   -0.000032   0.002348   0.002890   0.000240   0.000042  -0.000008
     3  H   -0.000005   0.001395  -0.004395   0.000009   0.000014  -0.000007
     4  C    0.014510  -0.265635  -0.472972  -0.078374  -0.010630   0.000367
     5  C    0.002098   0.319452   0.364675   0.011496  -0.015720  -0.011944
     6  C    0.077225  -2.317282   0.323474  -0.129927  -0.025896   0.024589
     7  C    0.020228  -0.228721  -0.010308  -0.059849  -0.003814   0.001572
     8  C    0.019188   0.288108  -0.277581  -0.065402  -0.005569  -0.000295
     9  S    0.073370  -0.359480  -0.721003  -0.065441  -0.042785   0.006043
    10  C    0.078121   0.797617   0.169021  -0.107699  -0.080483  -0.005446
    11  C    1.164622  -7.463451   0.796922  -0.397694  -0.080223   0.223933
    12  C   -0.922861   1.193106  -1.269331   0.682539  -0.047845  -0.011505
    13  N    7.144679  -0.066615   0.143949  -0.313114  -0.194375   0.055392
    14  C   -0.066615  15.524174  -1.242749   0.669704  -0.755767   0.419342
    15  S    0.143949  -1.242749  19.533849  -1.053864  -0.625446  -0.040371
    16  C   -0.313114   0.669704  -1.053864   8.185419  -1.563928   1.002282
    17  C   -0.194375  -0.755767  -0.625446  -1.563928   9.756151  -1.575347
    18  C    0.055392   0.419342  -0.040371   1.002282  -1.575347   6.871453
    19  C   -0.031831  -0.162025  -0.044844  -0.423951   0.825264  -0.465398
    20  N    0.029087  -0.010741   0.099298   0.115598  -0.151145  -0.164188
    21  H   -0.009325  -0.065714   0.029315  -0.007550   0.097041  -0.023657
    22  C   -0.000503  -0.213320   0.028280   0.005453  -0.000628   0.000194
    23  N   -0.000016   0.002065   0.001442  -0.000004   0.000006  -0.000001
    24  C   -0.000023  -0.004593   0.003426   0.000068  -0.000006   0.000001
    25  C   -0.000023   0.004384  -0.003415  -0.000021   0.000006  -0.000001
    26  C    0.000736  -0.001281   0.001680  -0.001208  -0.000053  -0.000001
    27  N   -0.000001  -0.000215  -0.000142   0.000006  -0.000000   0.000000
    28  S   -0.000081  -0.003287   0.000288   0.000089   0.000004   0.000000
    29  N   -0.000255  -0.001968  -0.003578   0.000471   0.000034   0.000001
    30  C    0.005902  -0.088208  -0.045102  -0.007279  -0.001069   0.000031
    31  H    0.000154  -0.000814   0.007735  -0.000873  -0.000123   0.000084
    32  H    0.001485   0.001190  -0.101792  -0.028294   0.001093  -0.003769
    33  H   -0.124709   0.177562   0.019439   0.009201   0.003531  -0.000409
    34  H   -0.018203  -0.062570   0.028343  -0.198196   0.661345  -0.260790
    35  H    0.001190   0.030319  -0.001605  -0.021822  -0.095092   0.436896
    36  H   -0.001309  -0.000556  -0.027681   0.029510   0.029961  -0.097620
    37  H   -0.000001  -0.000139   0.000006   0.000002  -0.000000   0.000000
    38  H    0.000000   0.000016  -0.000034  -0.000000   0.000000  -0.000000
             19         20         21         22         23         24
     1  Si  -0.000424  -0.000551   0.002675   0.049261   0.017797   0.113531
     2  H    0.000019   0.000011  -0.000125   0.005813   0.011488  -0.023205
     3  H    0.000020   0.000018  -0.000156   0.011013   0.010151  -0.023535
     4  C    0.002452   0.007713  -0.006143   0.268907   0.004540   0.012073
     5  C    0.017314   0.008943   0.028023  -0.616959  -0.018231  -0.001324
     6  C   -0.032009  -0.005543  -0.044672  -0.152081  -0.056119  -0.118421
     7  C   -0.002451   0.002387  -0.003651  -0.445762   0.128760  -0.770544
     8  C   -0.000262   0.000066  -0.002680   1.153989  -0.129686  -0.604443
     9  S   -0.004348   0.001438  -0.011520   0.160977   0.073997  -0.184035
    10  C    0.012560   0.026481  -0.006878   0.703082  -0.060671   0.315326
    11  C   -0.310497  -0.038038  -0.016460  -0.338896   0.007003  -0.034510
    12  C    0.036292  -0.064617   0.056000   0.073765  -0.001562   0.007372
    13  N   -0.031831   0.029087  -0.009325  -0.000503  -0.000016  -0.000023
    14  C   -0.162025  -0.010741  -0.065714  -0.213320   0.002065  -0.004593
    15  S   -0.044844   0.099298   0.029315   0.028280   0.001442   0.003426
    16  C   -0.423951   0.115598  -0.007550   0.005453  -0.000004   0.000068
    17  C    0.825264  -0.151145   0.097041  -0.000628   0.000006  -0.000006
    18  C   -0.465398  -0.164188  -0.023657   0.000194  -0.000001   0.000001
    19  C    6.037331   0.125588  -0.075508  -0.000210   0.000000  -0.000001
    20  N    0.125588   6.851396   0.266444  -0.000069   0.000000   0.000000
    21  H   -0.075508   0.266444   0.501204   0.000348   0.000002   0.000022
    22  C   -0.000210  -0.000069   0.000348  11.149807   0.388420  -2.569377
    23  N    0.000000   0.000000   0.000002   0.388420   7.134123  -0.407421
    24  C   -0.000001   0.000000   0.000022  -2.569377  -0.407421   9.747990
    25  C    0.000001  -0.000000  -0.000017   3.566964   0.334459  -6.102894
    26  C   -0.000003   0.000002   0.000036  -8.237717  -0.183761   5.437293
    27  N   -0.000000  -0.000000  -0.000000   0.132362  -0.000331   0.076090
    28  S   -0.000002  -0.000000  -0.000004   0.132989   0.000686  -0.014373
    29  N    0.000001  -0.000001  -0.000030  -0.328868   0.019945   0.141480
    30  C   -0.000084  -0.000007   0.000023   0.990470  -0.034400   0.454953
    31  H   -0.000231   0.000033   0.000435   0.009693   0.002069  -0.000866
    32  H    0.014801   0.005788  -0.031374  -0.005199  -0.000175  -0.000013
    33  H    0.002681  -0.000683   0.000949  -0.006716  -0.000123   0.000195
    34  H    0.069071   0.037851   0.001775  -0.000044   0.000000  -0.000001
    35  H   -0.109928   0.022751  -0.000220   0.000008  -0.000000   0.000000
    36  H    0.413904  -0.070671  -0.006659  -0.000008   0.000000  -0.000000
    37  H   -0.000000  -0.000000   0.000001  -0.109443  -0.138470   0.694663
    38  H    0.000000  -0.000000  -0.000000   0.112696   0.019335  -0.295339
             25         26         27         28         29         30
     1  Si  -0.150687   0.273340  -0.000702  -0.001775  -0.014677   0.313971
     2  H    0.017582  -0.024964   0.000137   0.000104   0.001123  -0.024586
     3  H    0.017354  -0.024517   0.000134   0.000081   0.001175  -0.029570
     4  C   -0.025900   0.005106   0.000059   0.001743   0.008604  -0.041967
     5  C    0.032447  -0.041905  -0.000605  -0.004815  -0.005951  -0.280012
     6  C    0.149182  -0.126486  -0.006775  -0.008177  -0.011969  -0.286073
     7  C    1.018440  -0.256450  -0.010618  -0.059563  -0.069783  -0.440317
     8  C    0.316894  -3.648978   0.056455  -0.013623  -0.056549  -1.478706
     9  S    0.170483  -2.111048   0.038884   0.124163   0.089418  -1.629670
    10  C   -0.411663  -0.027584   0.024244   0.049041   0.094142   0.661848
    11  C    0.045235  -0.035415  -0.004486  -0.016072  -0.026910  -0.452890
    12  C   -0.010094  -0.015261   0.000502  -0.000468   0.005535  -0.094482
    13  N   -0.000023   0.000736  -0.000001  -0.000081  -0.000255   0.005902
    14  C    0.004384  -0.001281  -0.000215  -0.003287  -0.001968  -0.088208
    15  S   -0.003415   0.001680  -0.000142   0.000288  -0.003578  -0.045102
    16  C   -0.000021  -0.001208   0.000006   0.000089   0.000471  -0.007279
    17  C    0.000006  -0.000053  -0.000000   0.000004   0.000034  -0.001069
    18  C   -0.000001  -0.000001   0.000000   0.000000   0.000001   0.000031
    19  C    0.000001  -0.000003  -0.000000  -0.000002   0.000001  -0.000084
    20  N   -0.000000   0.000002  -0.000000  -0.000000  -0.000001  -0.000007
    21  H   -0.000017   0.000036  -0.000000  -0.000004  -0.000030   0.000023
    22  C    3.566964  -8.237717   0.132362   0.132989  -0.328868   0.990470
    23  N    0.334459  -0.183761  -0.000331   0.000686   0.019945  -0.034400
    24  C   -6.102894   5.437293   0.076090  -0.014373   0.141480   0.454953
    25  C   21.569338  -8.808065  -0.611626  -0.250287  -0.057650  -4.432098
    26  C   -8.808065  29.846210  -0.330248  -0.896539   1.028007  -5.641865
    27  N   -0.611626  -0.330248   7.388610   0.115405  -0.146542   0.691396
    28  S   -0.250287  -0.896539   0.115405  15.629873  -0.206562   0.513197
    29  N   -0.057650   1.028007  -0.146542  -0.206562   7.835620  -0.872572
    30  C   -4.432098  -5.641865   0.691396   0.513197  -0.872572  17.815164
    31  H   -0.000960   0.001136   0.000001   0.000034   0.000015   0.004516
    32  H    0.000557  -0.002022   0.000018   0.000047   0.000624  -0.005567
    33  H   -0.000589   0.000665   0.000230  -0.003677   0.002463  -0.013637
    34  H    0.000001  -0.000004  -0.000000   0.000001   0.000003  -0.000038
    35  H   -0.000000  -0.000000   0.000000   0.000000   0.000000   0.000000
    36  H    0.000000  -0.000000  -0.000000  -0.000000  -0.000000  -0.000003
    37  H   -0.510007   0.293248  -0.000964   0.001114   0.003674   0.038132
    38  H    0.745979  -0.248682  -0.026020  -0.005237  -0.009921  -0.043317
             31         32         33         34         35         36
     1  Si  -0.008230  -0.023107   0.001361  -0.000008   0.000006  -0.000007
     2  H   -0.000447   0.000368  -0.000005   0.000001  -0.000000   0.000001
     3  H   -0.002665   0.004033  -0.000051   0.000001  -0.000000   0.000000
     4  C    0.328227   0.240918  -0.007095   0.000029  -0.000011  -0.000505
     5  C   -0.191920   0.128493  -0.006833   0.001272  -0.000223   0.000610
     6  C    0.140521  -0.075315  -0.115893  -0.001705   0.000825  -0.001546
     7  C    0.059068   0.043665   0.014154  -0.000314   0.000037  -0.000160
     8  C    0.052174   0.018938   0.035328   0.000065  -0.000037  -0.000041
     9  S   -0.013149   0.076752  -0.027837  -0.000460   0.000017  -0.000219
    10  C   -0.059784  -0.066266  -0.145244   0.000855  -0.001175  -0.000281
    11  C   -0.008459  -0.074532  -0.505047  -0.007702   0.014494  -0.009817
    12  C   -0.002606  -0.048736   0.844042  -0.014566   0.002790   0.004086
    13  N    0.000154   0.001485  -0.124709  -0.018203   0.001190  -0.001309
    14  C   -0.000814   0.001190   0.177562  -0.062570   0.030319  -0.000556
    15  S    0.007735  -0.101792   0.019439   0.028343  -0.001605  -0.027681
    16  C   -0.000873  -0.028294   0.009201  -0.198196  -0.021822   0.029510
    17  C   -0.000123   0.001093   0.003531   0.661345  -0.095092   0.029961
    18  C    0.000084  -0.003769  -0.000409  -0.260790   0.436896  -0.097620
    19  C   -0.000231   0.014801   0.002681   0.069071  -0.109928   0.413904
    20  N    0.000033   0.005788  -0.000683   0.037851   0.022751  -0.070671
    21  H    0.000435  -0.031374   0.000949   0.001775  -0.000220  -0.006659
    22  C    0.009693  -0.005199  -0.006716  -0.000044   0.000008  -0.000008
    23  N    0.002069  -0.000175  -0.000123   0.000000  -0.000000   0.000000
    24  C   -0.000866  -0.000013   0.000195  -0.000001   0.000000  -0.000000
    25  C   -0.000960   0.000557  -0.000589   0.000001  -0.000000   0.000000
    26  C    0.001136  -0.002022   0.000665  -0.000004  -0.000000  -0.000000
    27  N    0.000001   0.000018   0.000230  -0.000000   0.000000  -0.000000
    28  S    0.000034   0.000047  -0.003677   0.000001   0.000000  -0.000000
    29  N    0.000015   0.000624   0.002463   0.000003   0.000000  -0.000000
    30  C    0.004516  -0.005567  -0.013637  -0.000038   0.000000  -0.000003
    31  H    0.572739  -0.042068   0.000131  -0.000009   0.000001  -0.000013
    32  H   -0.042068   0.914293  -0.001186   0.000311  -0.000093   0.000092
    33  H    0.000131  -0.001186   0.670174  -0.000142  -0.000104   0.000111
    34  H   -0.000009   0.000311  -0.000142   0.614232  -0.008528  -0.002199
    35  H    0.000001  -0.000093  -0.000104  -0.008528   0.608284  -0.002342
    36  H   -0.000013   0.000092   0.000111  -0.002199  -0.002342   0.596735
    37  H   -0.000169   0.000013   0.000013  -0.000000   0.000000  -0.000000
    38  H    0.000004  -0.000001  -0.000009   0.000000  -0.000000   0.000000
             37         38
     1  Si   0.005727  -0.001274
     2  H   -0.002944   0.000260
     3  H   -0.002996   0.000268
     4  C   -0.001759  -0.000065
     5  C    0.001905  -0.000195
     6  C   -0.001875  -0.000161
     7  C   -0.017369   0.009975
     8  C   -0.046865   0.006522
     9  S   -0.011396  -0.002797
    10  C    0.009382  -0.003092
    11  C   -0.000996   0.000028
    12  C    0.000171  -0.000065
    13  N   -0.000001   0.000000
    14  C   -0.000139   0.000016
    15  S    0.000006  -0.000034
    16  C    0.000002  -0.000000
    17  C   -0.000000   0.000000
    18  C    0.000000  -0.000000
    19  C   -0.000000   0.000000
    20  N   -0.000000  -0.000000
    21  H    0.000001  -0.000000
    22  C   -0.109443   0.112696
    23  N   -0.138470   0.019335
    24  C    0.694663  -0.295339
    25  C   -0.510007   0.745979
    26  C    0.293248  -0.248682
    27  N   -0.000964  -0.026020
    28  S    0.001114  -0.005237
    29  N    0.003674  -0.009921
    30  C    0.038132  -0.043317
    31  H   -0.000169   0.000004
    32  H    0.000013  -0.000001
    33  H    0.000013  -0.000009
    34  H   -0.000000   0.000000
    35  H    0.000000  -0.000000
    36  H   -0.000000   0.000000
    37  H    0.674992  -0.027973
    38  H   -0.027973   0.598158
 Mulliken atomic charges:
              1
     1  Si   0.978573
     2  H   -0.109857
     3  H   -0.108459
     4  C   -0.637237
     5  C   -0.029578
     6  C    0.101590
     7  C   -0.174248
     8  C   -0.186826
[...]
 0547,-0.00001745,0.00000203,-0.00000309,0.00000935,-0.00000088,0.,-0.0
 0000515,0.00000094,-0.00000203,-0.00000291,-0.00000061,0.00000200,-0.0
 0000711,0.00000113,-0.00000703,0.00000275,-0.00000073,0.00000461,-0.00
 000023,0.00000103,-0.00000890,-0.00000031,-0.00000116,0.00000096,-0.00
 000019,-0.00000169,-0.00000161,-0.00000018,-0.00000423,0.00000259,-0.0
 0001903,-0.00001131,0.32447594,0.00001854,-0.00004261,0.00000245,-0.00
 000450,0.00001027,-0.00000290,-0.00000485,0.00001032,0.00000208,-0.000
 02024,0.00002083,-0.00000190,0.00001410,0.00000488,0.00000187,-0.00001
 575,0.00006007,-0.00000727,-0.00003286,-0.00001441,0.00000361,0.000046
 87,0.00006665,-0.00000800,-0.00001021,-0.00001589,0.00000377,-0.000014
 84,-0.00007549,-0.00000758,-0.00014580,0.00025647,-0.00006145,-0.00030
 649,-0.00043472,-0.00015207,-0.00012539,0.00009331,-0.00003808,0.00026
 107,0.00089888,0.00018219,-0.00014901,0.00017626,-0.00004333,0.0211950
 9,0.00763650,0.00904039,-0.00819095,-0.05768279,-0.00407889,-0.0210566
 2,0.00769845,-0.00865229,-0.00282348,-0.00521112,-0.00138982,0.0037118
 8,-0.00469972,0.00137197,0.00109356,0.00085643,0.00041281,-0.00003643,
 -0.00008767,0.00000764,-0.00002313,0.00005503,-0.00000171,0.00000439,-
 0.00002726,0.00000087,0.00000067,0.00001215,-0.00000079,0.00000654,0.0
 0000720,-0.00000066,-0.00000733,0.00002144,-0.00000040,0.00001370,-0.0
 0001933,0.00000038,-0.00001040,0.00000959,-0.00000092,0.00002599,-0.00
 000252,-0.00000012,-0.00000381,-0.00000066,0.00000130,0.00001085,0.000
 00085,-0.00000194,0.00001807,0.00000207,0.00000618,0.00653786,0.048949
 04,-0.00001209,0.00000246,0.00001129,0.00000184,-0.00000017,-0.0000021
 9,0.00000270,-0.00000091,-0.00000284,0.00000877,0.00000091,-0.00000782
 ,-0.00000698,-0.00001019,0.00000437,0.00000887,-0.00000217,-0.00000416
 ,0.00000969,0.00000763,-0.00001176,-0.00001310,-0.00000834,-0.00000965
 ,0.00000856,-0.00000467,0.00001625,-0.00007692,0.00001575,0.00016008,0
 .00001663,-0.00006215,-0.00002870,0.00024463,0.00007193,-0.00028303,-0
 .00002009,-0.00023757,0.00027510,0.00070311,-0.00013121,-0.00249915,0.
 00005618,0.00004387,-0.00013451,-0.00280391,-0.00153395,-0.00061563,-0
 .11832440,-0.00268606,-0.07910270,-0.00282575,0.00161968,-0.00032042,-
 0.00175087,-0.00072240,0.00318634,-0.00139606,0.00040167,0.00299423,-0
 .00087070,-0.00016626,0.00200565,0.00000118,0.00000754,-0.00000728,0.0
 0000508,-0.00000647,-0.00000366,-0.00000040,0.00000212,0.00000304,0.00
 000089,-0.00000073,-0.00000074,-0.00000010,-0.00000023,0.00000180,0.00
 000116,-0.00000060,-0.00000285,0.00000046,0.00000489,0.00000400,-0.000
 00001,-0.00000337,-0.00000453,-0.00000262,-0.00000051,0.00000225,0.000
 00180,-0.00000034,0.00000096,-0.00000070,0.00000324,0.00000497,-0.0000
 1158,-0.00001161,0.00001824,0.12646368,0.00333582,0.07569228,0.0000025
 2,0.00000781,-0.00000230,-0.00000039,-0.00000196,0.00000105,-0.0000001
 7,-0.00000171,0.00000012,0.00000154,-0.00000424,0.00000298,0.00000061,
 0.00000061,-0.00000080,-0.00000209,-0.00000127,0.00000134,0.00000061,0
 .00000113,0.00000132,-0.00001367,-0.00002133,0.00000123,0.00000654,-0.
 00000767,0.00000064,-0.00004185,0.00001267,0.00001926,0.00001832,-0.00
 015582,0.00007029,0.00004754,0.00001423,0.00000161,-0.00000724,0.00004
 149,-0.00000319,0.00104231,-0.00013668,-0.00006578,-0.00003442,-0.0002
 7723,-0.00005185,-0.00222416,-0.00358934,-0.00278234,0.01030619,-0.015
 83312,0.00397442,-0.07679558,0.07902449,-0.01867709,0.00094115,0.02431
 299,0.00138662,-0.00463700,0.00203751,-0.00379938,0.00082267,0.0012698
 6,-0.00052468,0.00001212,0.00001837,-0.00000464,0.00000219,-0.00001095
 ,0.00000102,-0.00000100,0.00000509,0.00000126,-0.00000046,-0.00000327,
 -0.00000082,-0.00000108,-0.00000196,0.00000141,0.00000055,-0.00000535,
 0.00000010,-0.00000309,0.00000087,-0.00000048,0.00000249,-0.00000015,0
 .00000126,-0.00000601,0.00000184,-0.00000129,0.00000037,-0.00000058,-0
 .00000165,-0.00000372,-0.00000215,-0.00000070,0.00000293,-0.00001058,-
 0.00000341,-0.00019641,0.00099922,0.00101966,0.07085885,-0.00000861,0.
 00004880,-0.00000186,0.00000303,-0.00001156,0.00000328,0.00000233,-0.0
 0001179,-0.00000268,0.00001810,-0.00002579,-0.00000049,-0.00001161,-0.
 00000080,-0.00000348,0.00001360,-0.00004009,0.00001158,0.00001612,0.00
 001715,0.00000032,-0.00004936,-0.00010105,0.00000107,0.00001232,0.0000
 1083,0.00000042,-0.00006582,0.00008447,-0.00002392,0.00007656,-0.00015
 521,0.00004529,0.00003065,0.00003951,0.00002137,-0.00015040,-0.0000992
 0,-0.00007424,0.00083166,0.00005307,0.00030548,-0.00008820,-0.00018698
 ,-0.00005213,-0.00245061,-0.00260780,-0.00117398,0.00960103,-0.0115700
 8,0.00375082,0.08101311,-0.33160940,0.02687517,-0.00215118,-0.00154466
 ,-0.00090680,0.00023977,0.00089768,0.00001648,-0.00011545,0.00015264,-
 0.00009847,0.00004422,0.00010801,-0.00001298,0.00002676,-0.00006699,0.
 00000327,-0.00000376,0.00003379,0.00000037,-0.00000203,-0.00001546,-0.
 00000014,-0.00000686,-0.00000954,0.00000211,0.00000811,-0.00002427,0.0
 0000038,-0.00002236,0.00001667,0.00000013,0.00001459,-0.00000621,-0.00
 000028,-0.00002792,0.00000478,0.00000213,0.00000309,0.00000077,-0.0000
 0015,-0.00000934,-0.00000149,0.00000416,-0.00000843,-0.00001358,-0.000
 00395,-0.00025607,0.00057688,-0.00002914,-0.08694066,0.34611278,-0.000
 00752,0.00000377,0.00000563,0.00000178,-0.00000042,-0.00000130,0.00000
 094,-0.00000146,-0.00000217,0.00000843,-0.00000429,-0.00000696,-0.0000
 0617,-0.00000441,0.00000126,0.00001056,-0.00001748,-0.00000164,0.00000
 296,0.00001016,-0.00000256,0.00000137,-0.00002893,0.00000649,-0.000007
 01,0.00001733,-0.00000029,0.00002161,0.00002148,-0.00008575,0.00006205
 ,-0.00007434,-0.00013735,0.00000475,0.00000215,0.00004192,-0.00000269,
 0.00002408,-0.00000736,-0.00004776,-0.00011144,0.00118089,-0.00005473,
 -0.00009766,0.00003771,-0.00279033,-0.00165245,0.00304649,0.00457193,-
 0.00690244,0.00170622,-0.01864028,0.02604413,-0.03495481,0.00079090,0.
 01014877,-0.00044505,-0.00379054,0.00079696,0.00294656,-0.00057325,0.0
 0046768,0.00194316,0.00000390,0.00002805,0.00000630,0.00000992,-0.0000
 1557,-0.00000099,0.00000018,0.00000860,-0.00000300,-0.00000118,-0.0000
 0344,0.00000099,-0.00000075,-0.00000226,-0.00000076,0.00000247,-0.0000
 0285,-0.00000086,-0.00000675,0.00000360,0.00000252,0.00000503,-0.00000
 048,-0.00000388,-0.00000538,0.00000089,0.00000100,0.00000179,-0.000000
 07,0.00000340,-0.00000171,-0.00000230,0.00000364,-0.00000273,-0.000005
 33,0.00000803,0.00098309,0.00048613,-0.00214856,0.01826667,-0.02889494
 ,0.02928360,0.00000430,0.00000834,-0.00000498,-0.00000044,-0.00000189,
 0.00000151,-0.00000067,-0.00000160,0.00000073,-0.00000109,-0.00000516,
 0.00000204,0.00000377,0.00000637,0.00000024,0.00000420,-0.00001596,0.0
 0000147,0.00000700,0.00000401,0.00000343,-0.00001466,-0.00000293,0.000
 00153,0.00000153,0.00000045,-0.00000138,0.00000456,0.00000989,-0.00002
 947,0.00005367,-0.00000538,0.00001856,-0.00007539,0.00006787,0.0002448
 6,0.00001065,-0.00003901,-0.00007667,0.00074398,0.00008385,-0.00079325
 ,-0.00000112,-0.00006555,-0.00000065,0.00052380,0.00194650,-0.00066209
 ,-0.00341396,0.00206754,-0.00322525,-0.00654290,-0.01528049,-0.0037828
 2,-0.24750258,-0.12150255,-0.09676910,0.00599917,0.00450329,0.00382176
 ,-0.00016216,-0.00070114,0.00067003,0.00000477,0.00000874,-0.00000099,
 0.00000112,-0.00000609,0.00000123,-0.00000033,0.00000341,0.00000013,-0
 .00000034,-0.00000152,-0.00000003,-0.00000060,-0.00000053,0.00000035,0
 .00000069,-0.00000326,0.00000078,-0.00000075,0.00000232,-0.00000114,0.
 00000080,-0.00000163,0.00000153,-0.00000377,0.00000067,-0.00000168,-0.
 00000092,0.00000093,-0.00000043,-0.00000081,-0.00000149,-0.00000080,-0
 .00000608,0.00000780,0.00000273,-0.00000760,-0.00097494,-0.00043887,-0
 .00010122,0.00041223,0.00118808,0.25047332,-0.00001335,0.00000200,-0.0
 0000270,0.00000288,-0.00000124,0.00000124,0.00000272,-0.00000092,0.000
 00008,0.00000790,-0.00000301,0.00000331,-0.00000173,-0.00000544,0.0000
 0009,-0.00000915,0.00000049,0.00000034,0.00000943,-0.00000187,-0.00000
 050,-0.00000819,-0.00001170,0.00000395,0.00001271,0.00000201,-0.000001
 11,-0.00001445,-0.00000252,-0.00000785,0.00002918,0.00000978,0.0000103
 5,-0.00013033,-0.00009178,-0.00003771,0.00002740,-0.00042892,-0.000011
 13,-0.00136071,0.00031812,-0.00061995,-0.00008679,0.00009092,-0.000033
 49,0.00350188,-0.00508316,0.00130628,0.00317649,-0.00057717,0.00121448
 ,0.00706667,0.01230544,0.00320026,-0.11231413,-0.13131828,-0.04952813,
 -0.02892184,-0.01347274,-0.01235671,0.00003072,0.00065377,0.00007220,0
 .00000634,0.00001136,-0.00000027,0.00000371,-0.00000652,0.00000050,-0.
 00000174,0.00000190,0.00000012,0.00000057,-0.00000204,-0.00000029,-0.0
 0000067,0.00000011,0.00000044,0.00000085,-0.00000193,0.00000040,-0.000
 00068,0.00000136,-0.00000050,0.00000030,-0.00000120,0.00000056,-0.0000
 0306,-0.00000055,-0.00000158,0.00000285,-0.00000107,-0.00000178,-0.000
 00784,0.00000068,-0.00000138,0.00000140,-0.00004270,-0.00000083,0.0002
 5527,0.00088743,0.00010202,-0.00074191,-0.00005279,-0.00024077,0.12947
 737,0.13682282,-0.00000915,-0.00000079,0.00001320,0.00000118,0.0000004
 4,-0.00000284,0.00000217,-0.00000035,-0.00000302,0.00000480,0.00000145
 ,-0.00000609,-0.00000698,-0.00001033,-0.00000736,0.00000078,0.00001478
 ,-0.00000035,-0.00000071,-0.00000429,-0.00000981,0.00000862,-0.0000043
 7,-0.00000267,-0.00000276,-0.00000538,-0.00000316,-0.00003108,0.000000
 06,0.00007186,0.00002951,0.00001405,0.00001965,0.00022106,0.00003919,-
 0.00054418,-0.00005967,-0.00003946,0.00015821,-0.00081889,0.00000157,0
 .00228335,-0.00000628,-0.00003954,-0.00000905,-0.00062691,0.00063052,0
 .00198312,-0.00320164,0.00074575,0.00308268,-0.00327440,-0.00614683,0.
 00016705,-0.09652060,-0.05331077,-0.06438283,0.00300655,0.00159933,-0.
 00159582,0.00069278,-0.00024911,-0.00151435,-0.00000188,0.00000255,0.0
 0000349,0.00000316,-0.00000260,-0.00000271,0.00000061,0.00000132,-0.00
 000067,-0.00000009,0.00000014,0.,-0.00000021,-0.00000004,-0.00000035,0
 .00000057,-0.00000015,-0.00000146,0.00000040,0.00000211,0.00000217,0.0
 0000004,-0.00000090,-0.00000321,-0.00000032,0.00000004,0.00000238,0.00
 000224,-0.00000101,0.00000226,-0.00000258,0.00000177,0.00000712,0.0000
 0455,0.00000447,-0.00001096,-0.00041264,-0.00040952,0.00080836,0.00116
 853,0.00023598,-0.00242378,0.09982912,0.05693023,0.06191850,-0.0000528
 3,-0.00026902,0.00003252,0.00003259,0.00007265,-0.00001847,0.00003832,
 0.00007332,-0.00000545,-0.00001975,0.00000496,-0.00000134,0.00001860,0
 .00003809,-0.00000383,-0.00006750,0.00007202,-0.00000214,-0.00006892,-
 0.00001333,-0.00000145,0.00044589,0.00013282,-0.00000778,-0.00004202,-
 0.00010587,0.00000385,0.00010149,-0.00006346,0.00000636,-0.00004312,0.
 00002489,-0.00001932,0.00002417,-0.00004614,-0.00000400,0.00003717,0.0
 0006407,0.00002560,-0.00004001,-0.00004174,-0.00001323,-0.00001902,-0.
 00000275,0.00000020,-0.00000072,0.00004291,-0.00000496,0.00000472,-0.0
 0002641,0.00000044,0.00002430,0.00000890,0.00001068,0.00000003,0.00003
 592,0.00000019,-0.00001757,-0.00001429,-0.00000659,-0.00000490,-0.0000
 0442,-0.00000254,0.00169537,-0.00382687,0.00045166,0.01221581,-0.00737
 959,-0.00043327,-0.22626144,0.13850800,0.00437660,-0.01731520,0.020409
 54,0.00046771,-0.00372588,-0.00328488,0.00083865,-0.00081396,0.0011674
 2,0.00004942,-0.00047915,0.00003183,-0.00005489,0.00027154,0.00021442,
 -0.00004295,-0.00013832,-0.00071939,0.00002988,0.00000943,0.00002356,-
 0.00000229,-0.00000820,0.00001287,0.00000052,0.00000310,-0.00000286,0.
 00000285,0.00000083,-0.00000250,0.00000033,0.00000019,0.00000272,0.000
 00057,0.00000022,0.00000009,0.00000015,0.23346810,0.00050593,-0.000431
 42,-0.00001071,-0.00008699,0.00011152,-0.00002782,-0.00007931,0.000113
 39,0.00002148,-0.00016755,0.00006676,0.00000752,0.00009101,0.00002947,
 -0.00000573,0.00003949,-0.00011263,0.00000787,-0.00008488,0.00005676,0
 .00000474,0.00075900,-0.00031577,-0.00001591,-0.00022930,-0.00012512,0
 .00003099,-0.00001957,-0.00007955,-0.00000933,-0.00000760,-0.00001360,
 0.00001911,-0.00002056,0.00005170,0.00000033,-0.00005514,-0.00007382,-
 0.00002943,0.00004683,0.00002460,0.00001846,0.00002205,-0.00000967,0.0
 0000352,0.00000413,-0.00004512,0.00000434,-0.00000547,0.00002780,-0.00
 000092,-0.00002775,-0.00001048,-0.00001199,-0.00000017,-0.00004466,-0.
 00000065,0.00001889,0.00001836,0.00000778,0.00000726,0.00000484,0.0000
 0307,-0.00084112,-0.00344218,0.00047642,0.01931921,-0.03275102,0.00028
 496,0.13713335,-0.16434977,-0.00245680,-0.00846761,0.01012792,0.000330
 22,-0.00262865,-0.00025161,0.00052619,-0.00024294,0.00054198,0.0000302
 7,-0.00013371,0.00024206,-0.00006448,0.00025198,0.00013257,-0.00003382
 ,-0.00062398,-0.00042913,0.00005112,-0.00000887,-0.00001703,0.00000146
 ,-0.00001936,-0.00000041,0.00000233,-0.00000823,0.00000560,-0.00000861
 ,-0.00000076,0.00000281,-0.00000040,-0.00000040,-0.00000305,-0.0000005
 5,-0.00000035,-0.00000060,-0.00000023,-0.14485841,0.19047377,-0.000009
 79,0.00004099,0.00016986,-0.00001819,0.00001676,-0.00006302,0.00001350
 ,-0.00004222,-0.00006487,0.00000584,-0.00000607,-0.00004619,-0.0000047
 5,-0.00000313,-0.00000670,0.00001016,-0.00000235,0.00004883,0.00000555
 ,0.00000041,-0.00001467,-0.00004161,0.00002101,0.00027090,0.00001167,0
 .00000309,-0.00004627,-0.00000732,0.00001989,-0.00001469,0.00000915,-0
 .00001924,-0.00000681,-0.00000808,0.00001423,-0.00000604,-0.00000769,-
 0.00000825,-0.00000454,0.00000700,0.00000645,-0.00000043,0.00000059,-0
 .00000407,0.00000489,0.00000060,-0.00000684,0.00000107,-0.00000028,0.0
 0000432,-0.00000098,-0.00000354,-0.00000082,-0.00000196,0.00000100,-0.
 00000446,-0.00000035,0.00000173,0.00000226,-0.00000085,0.00000006,-0.0
 0000022,0.00000221,0.00032060,0.00065206,0.00658861,-0.00156027,0.0018
 0061,-0.00099362,0.00443003,-0.00253177,-0.04250656,0.00171651,-0.0012
 9707,0.00671167,0.00081222,0.00055539,0.00846154,0.00011102,-0.0000501
 7,0.00092235,-0.00006811,-0.00007002,-0.00141481,-0.00003042,-0.000033
 01,-0.00032044,0.00000279,0.00005446,-0.00019972,-0.00000025,-0.000000
 10,-0.00000023,0.00000215,-0.00000049,0.00000902,-0.00000039,0.0000000
 5,0.00000172,-0.00000036,0.00000008,0.00000071,-0.00000020,-0.00000021
 ,0.00000043,-0.00000026,-0.00000009,0.00000069,-0.00540765,0.00107097,
 0.02665109,0.00034879,0.00018669,-0.00003304,-0.00005338,-0.00001762,-
 0.00000601,-0.00004548,-0.00001360,0.00001601,-0.00003095,-0.00000270,
 -0.00000172,-0.00000707,-0.00001458,0.00000261,0.00009099,-0.00001006,
 -0.00001559,-0.00001996,-0.00003532,0.00002428,0.00012096,-0.00027386,
 -0.00007101,-0.00005690,-0.00007789,-0.00000325,-0.00001552,-0.0000411
 3,-0.00000968,0.00001790,-0.00001538,0.00001749,-0.00001485,0.00001952
 ,-0.00000179,-0.00001816,-0.00003444,-0.00001262,0.00001989,0.00001796
 ,0.00000786,0.00001072,0.00000091,0.00000274,0.00000142,-0.00002145,0.
 00000168,-0.00000237,0.00001286,-0.00000051,-0.00001237,-0.00000463,-0
 .00000527,0.00000018,-0.00001893,-0.00000031,0.00000874,0.00000787,0.0
 0000331,0.00000256,0.00000221,0.00000150,-0.00162872,0.00143184,0.0000
 2243,-0.00518997,-0.00199893,0.00086077,0.00119935,-0.02956564,0.00127
 470,-0.07236058,-0.06337028,0.00502680,0.00976515,0.02332697,-0.001433
 38,0.00215709,-0.00163218,-0.00017696,0.00040286,0.00050875,-0.0000783
 0,-0.00061054,0.00179795,0.00000061,-0.00338266,0.00113308,0.00042819,
 -0.00000740,-0.00002088,0.00000231,0.00000161,-0.00000708,0.00000131,-
 0.00000325,0.00000159,-0.00000124,-0.00000041,0.00000114,-0.00000007,-
 0.00000015,-0.00000135,-0.00000022,-0.00000020,-0.00000014,-0.00000004
 ,0.00072665,0.00041954,-0.00029299,0.06858602,0.00011261,0.00009500,-0
 .00001045,-0.00002086,-0.00001557,-0.00000060,-0.00001626,-0.00001276,
 0.00000545,-0.00001516,-0.00000427,-0.00000198,-0.00002029,-0.00000212
 ,0.00000354,-0.00005704,0.00008846,-0.00001648,-0.00010560,-0.00012013
 ,0.00002891,0.00003005,0.00011724,-0.00006147,0.00003224,-0.00000320,-
 0.00000981,0.00009443,0.00000958,-0.00000809,-0.00002158,0.00001328,-0
 .00000167,0.00001674,-0.00001130,0.00000201,0.00000505,0.00001041,0.00
 000846,-0.00001444,0.00000355,-0.00000601,-0.00000405,-0.00000699,0.00
 000474,0.00000210,0.00000260,-0.00000265,0.00000111,-0.00000221,0.0000
 0005,0.00000115,0.00000042,0.00000077,-0.00000036,0.00000171,-0.000000
 30,-0.00000083,-0.00000132,0.00000053,0.00000016,0.00000096,-0.0000000
 3,0.00060226,0.00022167,-0.00004714,-0.00159831,0.00166336,0.00038368,
 0.00142028,-0.00401363,0.00013695,-0.06345266,-0.33428365,0.01666155,-
 0.00718680,-0.01566431,0.00119236,-0.00102279,0.00157733,-0.00010620,0
 .00032689,-0.00050796,-0.00002201,0.00008139,-0.00086490,0.00006541,0.
 00278568,0.00059585,0.00002961,-0.00000345,-0.00000951,0.00000109,-0.0
 0000074,-0.00000303,0.00000085,-0.00000116,0.00000154,-0.00000206,0.00
 000007,0.00000037,-0.00000005,0.00000014,-0.00000006,0.00000011,-0.000
 00014,-0.00000006,-0.00000006,-0.00027903,0.00047470,-0.00018243,0.068
 30920,0.35064898,-0.00002342,-0.00001218,0.00003201,-0.00005771,-0.000
 02578,0.00001214,0.00006457,0.00002931,-0.00000146,-0.00000189,0.00000
 156,-0.00005408,0.00000520,-0.00000130,0.00002265,-0.00002094,-0.00002
 077,-0.00019526,0.00003588,0.00003186,0.00027869,-0.00007773,-0.000053
 78,-0.00137660,-0.00002597,-0.00000550,-0.00020544,-0.00000388,0.00002
 677,-0.00006687,0.00002911,-0.00002400,0.00011946,-0.00000905,0.000009
 44,-0.00000443,-0.00001629,-0.00001668,-0.00000940,0.00002756,-0.00000
 053,0.00001595,-0.00000778,0.00002407,0.00001099,0.00000069,-0.0000033
 6,-0.00000967,0.00000141,0.00000339,-0.00000201,-0.00000352,0.00000011
 ,-0.00000055,0.00000046,-0.00000574,-0.00000110,-0.00000012,0.00000355
 ,0.00000023,-0.00000003,-0.00000088,0.00000169,0.00005701,-0.00010832,
 -0.00005703,0.00083704,0.00042931,0.00841001,-0.00008864,0.00188171,0.
 00096440,0.00504712,0.01665656,-0.03297353,-0.00010905,-0.00052660,0.0
 0250511,-0.00020212,-0.00007534,-0.00220868,-0.00007045,-0.00003192,-0
 .00058399,0.00007003,-0.00002828,0.00074619,0.00035716,0.00011030,0.00
 492920,0.00000103,0.00000134,0.00000512,0.00000201,0.00000411,0.000014
 31,-0.00000040,-0.00000011,0.00000235,-0.00000020,0.00000010,0.0000002
 5,-0.00000020,0.00000003,0.00000086,-0.00000026,-0.00000007,0.00000059
 ,-0.00026601,-0.00022580,-0.00413184,-0.00555059,-0.01804658,0.0238097
 1\\-0.00000601,0.00001639,-0.00000991,0.00000345,-0.00000080,0.0000027
 0,0.00000025,-0.00000522,0.00000479,0.00000072,-0.00001373,-0.00000172
 ,0.00000082,0.00000607,0.00000485,-0.00000919,0.00001817,-0.00001042,-
 0.00000189,-0.00001465,0.00000274,0.00000085,0.00000499,-0.00000010,0.
 00000705,0.00000941,-0.00000227,0.00000518,-0.00002267,0.00000411,-0.0
 0001609,-0.00000413,0.00000151,-0.00000054,-0.00000549,-0.00000096,0.0
 0000830,0.00001233,0.00000188,-0.00000380,-0.00001816,0.00000227,0.000
 00655,0.00002045,0.00000044,0.00000342,0.00000200,-0.00000598,0.000005
 74,-0.00000869,-0.00001064,-0.00000649,0.00000555,0.00000238,0.0000127
 5,-0.00000896,-0.00001510,-0.00001965,0.00000450,0.00003707,0.00000630
 ,-0.00000053,-0.00001717,0.00000250,-0.00000883,0.00000496,0.00000022,
 0.00001394,-0.00000439,-0.00000707,-0.00001395,0.00000159,0.00000624,0
 .00000017,-0.00000109,0.00000250,0.00000809,-0.00000528,0.00000331,0.0
 0001244,0.00000121,-0.00000664,-0.00000270,-0.00000288,-0.00000259,-0.
 00000268,-0.00000069,0.00000692,-0.00000573,0.00000025,0.00000177,0.00
 000003,0.00000534,-0.00000299,0.00000097,0.00000409,0.00000129,-0.0000
 0001,0.00000019,-0.00000040,0.00000056,0.00000036,-0.00000263,-0.00000
 022,0.00000166,-0.00000306,0.00000058,0.00000552,0.00000086,0.00000004
 ,-0.00000047,0.00000206,0.00000046,-0.00000085\\\@


 THE MOST BEAUTIFUL EXPERIENCE WE CAN HAVE IS THE MYSTERIOUS.
 IT IS THE FUNDAMENTAL EMOTION WHICH STANDS AT AT THE CRADLE 
 OF TRUE ART AND TRUE SCIENCE.

                                    -- ALBERT EINSTEIN
 Job cpu time:  0 days 13 hours 54 minutes 29.5 seconds.
 File lengths (MBytes):  RWF=   1475 Int=      0 D2E=      0 Chk=     26 Scr=      1
 Normal termination of Gaussian 09 at Sun Dec 29 04:25:05 2013.
