 Entering Gaussian System, Link 0=g09
 Initial command:
 /opt/gaussian/g09/l1.exe /panfs/panfs.cluster/home/shuo/Gau-2974.inp -scrdir=/panfs/panfs.cluster/home/shuo/
 Default is to use a total of  12 processors:
                               12 via shared-memory
                                1 via Linda
 Entering Link 1 = /opt/gaussian/g09/l1.exe PID=      2975.
  
 Copyright (c) 1988,1990,1992,1993,1995,1998,2003,2009,2011,
            Gaussian, Inc.  All Rights Reserved.
  
 This is part of the Gaussian(R) 09 program.  It is based on
 the Gaussian(R) 03 system (copyright 2003, Gaussian, Inc.),
 the Gaussian(R) 98 system (copyright 1998, Gaussian, Inc.),
 the Gaussian(R) 94 system (copyright 1995, Gaussian, Inc.),
 the Gaussian 92(TM) system (copyright 1992, Gaussian, Inc.),
 the Gaussian 90(TM) system (copyright 1990, Gaussian, Inc.),
 the Gaussian 88(TM) system (copyright 1988, Gaussian, Inc.),
 the Gaussian 86(TM) system (copyright 1986, Carnegie Mellon
 University), and the Gaussian 82(TM) system (copyright 1983,
 Carnegie Mellon University). Gaussian is a federally registered
 trademark of Gaussian, Inc.
  
 This software contains proprietary and confidential information,
 including trade secrets, belonging to Gaussian, Inc.
  
 This software is provided under written license and may be
 used, copied, transmitted, or stored only in accord with that
 written license.
  
 The following legend is applicable only to US Government
 contracts under FAR:
  
                    RESTRICTED RIGHTS LEGEND
  
 Use, reproduction and disclosure by the US Government is
 subject to restrictions as set forth in subparagraphs (a)
 and (c) of the Commercial Computer Software - Restricted
 Rights clause in FAR 52.227-19.
  
 Gaussian, Inc.
 340 Quinnipiac St., Bldg. 40, Wallingford CT 06492
  
  
 ---------------------------------------------------------------
 Warning -- This program may not be used in any manner that
 competes with the business of Gaussian, Inc. or will provide
 assistance to any competitor of Gaussian, Inc.  The licensee
 of this program is prohibited from giving any competitor of
 Gaussian, Inc. access to this program.  By using this program,
 the user acknowledges that Gaussian, Inc. is engaged in the
 business of creating and licensing software in the field of
 computational chemistry and represents and warrants to the
 licensee that it is not a competitor of Gaussian, Inc. and that
 it will not use this program in any manner prohibited above.
 ---------------------------------------------------------------
  

 Cite this work as:
 Gaussian 09, Revision C.01,
 M. J. Frisch, G. W. Trucks, H. B. Schlegel, G. E. Scuseria, 
 M. A. Robb, J. R. Cheeseman, G. Scalmani, V. Barone, B. Mennucci, 
 G. A. Petersson, H. Nakatsuji, M. Caricato, X. Li, H. P. Hratchian, 
 A. F. Izmaylov, J. Bloino, G. Zheng, J. L. Sonnenberg, M. Hada, 
 M. Ehara, K. Toyota, R. Fukuda, J. Hasegawa, M. Ishida, T. Nakajima, 
 Y. Honda, O. Kitao, H. Nakai, T. Vreven, J. A. Montgomery, Jr., 
 J. E. Peralta, F. Ogliaro, M. Bearpark, J. J. Heyd, E. Brothers, 
 K. N. Kudin, V. N. Staroverov, T. Keith, R. Kobayashi, J. Normand, 
 K. Raghavachari, A. Rendell, J. C. Burant, S. S. Iyengar, J. Tomasi, 
 M. Cossi, N. Rega, J. M. Millam, M. Klene, J. E. Knox, J. B. Cross, 
 V. Bakken, C. Adamo, J. Jaramillo, R. Gomperts, R. E. Stratmann, 
 O. Yazyev, A. J. Austin, R. Cammi, C. Pomelli, J. W. Ochterski, 
 R. L. Martin, K. Morokuma, V. G. Zakrzewski, G. A. Voth, 
 P. Salvador, J. J. Dannenberg, S. Dapprich, A. D. Daniels, 
 O. Farkas, J. B. Foresman, J. V. Ortiz, J. Cioslowski, 
 and D. J. Fox, Gaussian, Inc., Wallingford CT, 2010.
 
 ******************************************
 Gaussian 09:  EM64L-G09RevC.01 23-Sep-2011
                29-Dec-2013 
 ******************************************
 %chk=81_C18H9N5S2SeSi.chk
 %NProcShared=12
 Will use up to   12 processors via shared memory.
 %Mem=8000MB
 Default route:  MaxDisk=100GB
 --------------------------------------------
 #B3LYP/6-31++G(d,p) opt scf=direct freq test
 --------------------------------------------
 1/14=-1,18=20,19=15,26=3,38=1/1,3;
 2/9=110,12=2,17=6,18=5,40=1/2;
 3/5=1,6=6,7=1111,11=2,16=1,25=1,30=1,71=1,74=-5/1,2,3;
 4//1;
 5/5=2,38=5/2;
 6/7=2,8=2,9=2,10=2,28=1/1;
 7//1,2,3,16;
 1/14=-1,18=20,19=15/3(2);
 2/9=110/2;
 99//99;
 2/9=110/2;
 3/5=1,6=6,7=1111,11=2,16=1,25=1,30=1,71=1,74=-5/1,2,3;
 4/5=5,16=3/1;
 5/5=2,38=5/2;
 7//1,2,3,16;
 1/14=-1,18=20,19=15/3(-5);
 2/9=110/2;
 6/7=2,8=2,9=2,10=2,19=2,28=1/1;
 99/9=1/99;
 ----------------------------------------------------------------------
 Geom opt of No.81 candidate from the CEPDB database with SMILE code of
  C1ccc2c1c(sc2-c1ccc[Se]1)-c1ncc(-c2nccs2)c2nsnc12, HPC, 20131227, Shu
 o Dai, Gaussian09
 ----------------------------------------------------------------------
 Charge =  0 Multiplicity = 1
 Symbolic Z-Matrix:
 C                    -1.249     1.158    -0.004 
 C                    -2.094    -0.044     0.002 
 C                    -1.292    -1.075     0. 
 C                    -0.015    -0.662     0. 
 C                     0.021     0.714     0.002 
 C                     1.349     1.058     0.001 
 S                     2.041    -0.071     0. 
 C                     1.242    -1.078    -0.001 
 C                     1.66611  -2.49802  -0.00298 
 C                     1.90952  -2.93308  -1.22793 
 C                     1.89142  -4.41659  -1.14378 
 C                     1.64456  -4.70431   0.12323 
 Se                    1.50368  -3.55697   0.8066 
 C                     1.88961   2.39699   0.00103 
 N                     1.06362   3.46572   0.00574 
 C                     1.54464   4.73679  -0.00168 
 C                     2.87175   4.99356  -0.00192 
 C                     3.34611   6.35742   0.00199 
 N                     2.58553   7.41789   0.01263 
 C                     3.40074   8.50042   0.00059 
 C                     4.66568   8.01414  -0.00636 
 S                     4.58231   6.71175  -0.00511 
 C                     3.78213   3.93494  -0.00596 
 N                     5.12128   3.8362   -0.01208 
 S                     5.44348   2.55877  -0.01275 
 N                     4.3536    1.80536  -0.00921 
 C                     3.28537   2.60132  -0.00445 
 H                    -1.44005   1.75197   0.86525 
 H                    -1.44662   1.77375  -0.85646 
 H                    -3.12569  -0.06895   0.00687 
 H                    -1.59544  -2.06138  -0.00138 
 H                     2.07754  -2.35993  -2.06953 
 H                     2.04083  -5.08514  -1.91562 
 H                     1.57214  -5.65379   0.52105 
 H                     0.87975   5.52604  -0.00728 
 H                     3.11636   9.49246  -0.00262 
 H                     5.53455   8.57097  -0.01167 
 

 GradGradGradGradGradGradGradGradGradGradGradGradGradGradGradGradGradGrad
 Berny optimization.
 Initialization pass.
                           ----------------------------
                           !    Initial Parameters    !
                           ! (Angstroms and Degrees)  !
 --------------------------                            --------------------------
 ! Name  Definition              Value          Derivative Info.                !
 --------------------------------------------------------------------------------
 ! R1    R(1,2)                  1.4693         estimate D2E/DX2                !
 ! R2    R(1,5)                  1.3454         estimate D2E/DX2                !
 ! R3    R(1,28)                 1.07           estimate D2E/DX2                !
 ! R4    R(1,29)                 1.07           estimate D2E/DX2                !
 ! R5    R(2,3)                  1.3062         estimate D2E/DX2                !
 ! R6    R(2,30)                 1.032          estimate D2E/DX2                !
 ! R7    R(3,4)                  1.3421         estimate D2E/DX2                !
 ! R8    R(3,31)                 1.032          estimate D2E/DX2                !
 ! R9    R(4,5)                  1.3765         estimate D2E/DX2                !
 ! R10   R(4,7)                  2.1393         estimate D2E/DX2                !
 ! R11   R(4,8)                  1.324          estimate D2E/DX2                !
 ! R12   R(5,6)                  1.3718         estimate D2E/DX2                !
 ! R13   R(5,7)                  2.1672         estimate D2E/DX2                !
 ! R14   R(6,7)                  1.3242         estimate D2E/DX2                !
 ! R15   R(6,14)                 1.444          estimate D2E/DX2                !
 ! R16   R(7,8)                  1.2855         estimate D2E/DX2                !
 ! R17   R(8,9)                  1.482          estimate D2E/DX2                !
 ! R18   R(9,10)                 1.3225         estimate D2E/DX2                !
 ! R19   R(9,13)                 1.3428         estimate D2E/DX2                !
 ! R20   R(10,11)                1.486          estimate D2E/DX2                !
 ! R21   R(10,13)                2.1664         estimate D2E/DX2                !
 ! R22   R(10,32)                1.032          estimate D2E/DX2                !
 ! R23   R(11,12)                1.3225         estimate D2E/DX2                !
 ! R24   R(11,13)                2.1664         estimate D2E/DX2                !
 ! R25   R(11,33)                1.032          estimate D2E/DX2                !
 ! R26   R(12,13)                1.3428         estimate D2E/DX2                !
 ! R27   R(12,34)                1.032          estimate D2E/DX2                !
 ! R28   R(14,15)                1.3507         estimate D2E/DX2                !
 ! R29   R(14,27)                1.4106         estimate D2E/DX2                !
 ! R30   R(15,16)                1.3591         estimate D2E/DX2                !
 ! R31   R(16,17)                1.3517         estimate D2E/DX2                !
 ! R32   R(16,35)                1.032          estimate D2E/DX2                !
 ! R33   R(17,18)                1.444          estimate D2E/DX2                !
 ! R34   R(17,23)                1.3962         estimate D2E/DX2                !
 ! R35   R(18,19)                1.3051         estimate D2E/DX2                !
 ! R36   R(18,22)                1.286          estimate D2E/DX2                !
 ! R37   R(19,20)                1.3552         estimate D2E/DX2                !
 ! R38   R(20,21)                1.3552         estimate D2E/DX2                !
 ! R39   R(20,22)                2.1437         estimate D2E/DX2                !
 ! R40   R(20,36)                1.032          estimate D2E/DX2                !
 ! R41   R(21,22)                1.3051         estimate D2E/DX2                !
 ! R42   R(21,37)                1.032          estimate D2E/DX2                !
 ! R43   R(23,24)                1.3428         estimate D2E/DX2                !
 ! R44   R(23,25)                2.1573         estimate D2E/DX2                !
 ! R45   R(23,27)                1.4231         estimate D2E/DX2                !
 ! R46   R(24,25)                1.3174         estimate D2E/DX2                !
 ! R47   R(25,26)                1.3249         estimate D2E/DX2                !
 ! R48   R(25,27)                2.1585         estimate D2E/DX2                !
 ! R49   R(26,27)                1.3322         estimate D2E/DX2                !
 ! A1    A(2,1,5)              105.8357         estimate D2E/DX2                !
 ! A2    A(2,1,28)             110.3724         estimate D2E/DX2                !
 ! A3    A(2,1,29)             111.5808         estimate D2E/DX2                !
 ! A4    A(5,1,28)             110.3724         estimate D2E/DX2                !
 ! A5    A(5,1,29)             111.5806         estimate D2E/DX2                !
 ! A6    A(28,1,29)            107.1452         estimate D2E/DX2                !
 ! A7    A(1,2,3)              107.0136         estimate D2E/DX2                !
 ! A8    A(1,2,30)             126.4929         estimate D2E/DX2                !
 ! A9    A(3,2,30)             126.4935         estimate D2E/DX2                !
 ! A10   A(2,3,4)              109.9569         estimate D2E/DX2                !
 ! A11   A(2,3,31)             125.0218         estimate D2E/DX2                !
 ! A12   A(4,3,31)             125.0214         estimate D2E/DX2                !
 ! A13   A(3,4,5)              109.4206         estimate D2E/DX2                !
 ! A14   A(3,4,8)              143.7662         estimate D2E/DX2                !
 ! A15   A(5,4,8)              106.8132         estimate D2E/DX2                !
 ! A16   A(1,5,4)              107.7707         estimate D2E/DX2                !
 ! A17   A(1,5,6)              146.2064         estimate D2E/DX2                !
 ! A18   A(4,5,6)              106.0211         estimate D2E/DX2                !
 ! A19   A(5,6,14)             126.5086         estimate D2E/DX2                !
 ! A20   A(7,6,14)             126.5084         estimate D2E/DX2                !
 ! A21   A(4,7,6)               74.5319         estimate D2E/DX2                !
 ! A22   A(5,7,8)               72.8068         estimate D2E/DX2                !
 ! A23   A(6,7,8)              110.0645         estimate D2E/DX2                !
 ! A24   A(4,8,9)              124.9408         estimate D2E/DX2                !
 ! A25   A(7,8,9)              124.9409         estimate D2E/DX2                !
 ! A26   A(8,9,10)             111.6611         estimate D2E/DX2                !
 ! A27   A(8,9,13)             136.0706         estimate D2E/DX2                !
 ! A28   A(9,10,11)            105.8858         estimate D2E/DX2                !
 ! A29   A(9,10,32)            127.0572         estimate D2E/DX2                !
 ! A30   A(11,10,32)           127.057          estimate D2E/DX2                !
 ! A31   A(13,10,32)           163.0006         estimate D2E/DX2                !
 ! A32   A(10,11,12)           105.8855         estimate D2E/DX2                !
 ! A33   A(10,11,33)           127.0576         estimate D2E/DX2                !
 ! A34   A(12,11,33)           127.0569         estimate D2E/DX2                !
 ! A35   A(13,11,33)           162.9989         estimate D2E/DX2                !
 ! A36   A(11,12,34)           125.6313         estimate D2E/DX2                !
 ! A37   A(13,12,34)           125.6307         estimate D2E/DX2                !
 ! A38   A(9,13,11)             75.4329         estimate D2E/DX2                !
 ! A39   A(9,13,12)            110.7497         estimate D2E/DX2                !
 ! A40   A(10,13,12)            75.4327         estimate D2E/DX2                !
 ! A41   A(6,14,15)            120.3143         estimate D2E/DX2                !
 ! A42   A(6,14,27)            120.3144         estimate D2E/DX2                !
 ! A43   A(15,14,27)           119.3713         estimate D2E/DX2                !
 ! A44   A(14,15,16)           121.5701         estimate D2E/DX2                !
 ! A45   A(15,16,17)           121.6784         estimate D2E/DX2                !
 ! A46   A(15,16,35)           119.1606         estimate D2E/DX2                !
 ! A47   A(17,16,35)           119.161          estimate D2E/DX2                !
 ! A48   A(16,17,18)           120.1282         estimate D2E/DX2                !
 ! A49   A(16,17,23)           119.7441         estimate D2E/DX2                !
 ! A50   A(18,17,23)           120.1277         estimate D2E/DX2                !
 ! A51   A(17,18,19)           125.1735         estimate D2E/DX2                !
 ! A52   A(17,18,22)           125.17           estimate D2E/DX2                !
 ! A53   A(19,18,22)           109.6564         estimate D2E/DX2                !
 ! A54   A(18,19,20)           107.3639         estimate D2E/DX2                !
 ! A55   A(19,20,21)           105.9556         estimate D2E/DX2                !
 ! A56   A(19,20,22)            70.4324         estimate D2E/DX2                !
 ! A57   A(19,20,36)           127.0226         estimate D2E/DX2                !
 ! A58   A(21,20,36)           127.0219         estimate D2E/DX2                !
 ! A59   A(22,20,36)           162.5443         estimate D2E/DX2                !
 ! A60   A(20,21,37)           126.3181         estimate D2E/DX2                !
 ! A61   A(22,21,37)           126.3169         estimate D2E/DX2                !
 ! A62   A(18,22,20)            72.5451         estimate D2E/DX2                !
 ! A63   A(18,22,21)           109.6565         estimate D2E/DX2                !
 ! A64   A(17,23,24)           134.9117         estimate D2E/DX2                !
 ! A65   A(17,23,27)           118.8753         estimate D2E/DX2                !
 ! A66   A(24,23,27)           106.213          estimate D2E/DX2                !
 ! A67   A(23,25,26)            74.2913         estimate D2E/DX2                !
 ! A68   A(24,25,26)           110.4989         estimate D2E/DX2                !
 ! A69   A(24,25,27)            74.7143         estimate D2E/DX2                !
 ! A70   A(14,27,23)           118.7584         estimate D2E/DX2                !
 ! A71   A(14,27,26)           134.9812         estimate D2E/DX2                !
 ! A72   A(23,27,26)           106.2604         estimate D2E/DX2                !
 ! A73   L(3,4,7,1,-1)         181.8846         estimate D2E/DX2                !
 ! A74   L(1,5,7,3,-1)         178.033          estimate D2E/DX2                !
 ! A75   L(17,23,25,1,-1)      189.669          estimate D2E/DX2                !
 ! A76   L(14,27,25,10,-1)     170.7763         estimate D2E/DX2                !
 ! A77   L(3,4,7,1,-2)         180.0038         estimate D2E/DX2                !
 ! A78   L(1,5,7,3,-2)         179.68           estimate D2E/DX2                !
 ! A79   L(17,23,25,1,-2)      179.9792         estimate D2E/DX2                !
 ! A80   L(14,27,25,10,-2)     182.1921         estimate D2E/DX2                !
 ! D1    D(5,1,2,3)             -0.4953         estimate D2E/DX2                !
 ! D2    D(5,1,2,30)           179.5048         estimate D2E/DX2                !
 ! D3    D(28,1,2,3)          -119.9232         estimate D2E/DX2                !
 ! D4    D(28,1,2,30)           60.0769         estimate D2E/DX2                !
 ! D5    D(29,1,2,3)           121.0608         estimate D2E/DX2                !
 ! D6    D(29,1,2,30)          -58.9391         estimate D2E/DX2                !
 ! D7    D(2,1,5,4)              0.485          estimate D2E/DX2                !
 ! D8    D(2,1,5,6)            179.8588         estimate D2E/DX2                !
 ! D9    D(28,1,5,4)           119.9129         estimate D2E/DX2                !
 ! D10   D(28,1,5,6)           -60.7133         estimate D2E/DX2                !
 ! D11   D(29,1,5,4)          -121.0712         estimate D2E/DX2                !
 ! D12   D(29,1,5,6)            58.3026         estimate D2E/DX2                !
 ! D13   D(2,1,7,8)              0.2845         estimate D2E/DX2                !
 ! D14   D(28,1,7,8)           119.4014         estimate D2E/DX2                !
 ! D15   D(29,1,7,8)          -120.7628         estimate D2E/DX2                !
 ! D16   D(1,2,3,4)              0.3034         estimate D2E/DX2                !
 ! D17   D(1,2,3,31)          -179.6964         estimate D2E/DX2                !
 ! D18   D(30,2,3,4)          -179.6967         estimate D2E/DX2                !
 ! D19   D(30,2,3,31)            0.3035         estimate D2E/DX2                !
 ! D20   D(2,3,4,5)             -0.0051         estimate D2E/DX2                !
 ! D21   D(2,3,4,8)            179.9799         estimate D2E/DX2                !
 ! D22   D(31,3,4,5)           179.9947         estimate D2E/DX2                !
 ! D23   D(31,3,4,8)            -0.0203         estimate D2E/DX2                !
 ! D24   D(2,3,7,6)             -0.0493         estimate D2E/DX2                !
 ! D25   D(31,3,7,6)           179.9525         estimate D2E/DX2                !
 ! D26   D(3,4,5,1)             -0.3244         estimate D2E/DX2                !
 ! D27   D(3,4,5,6)           -179.962          estimate D2E/DX2                !
 ! D28   D(8,4,5,1)            179.6849         estimate D2E/DX2                !
 ! D29   D(8,4,5,6)              0.0473         estimate D2E/DX2                !
 ! D30   D(3,4,8,9)              0.0041         estimate D2E/DX2                !
 ! D31   D(5,4,8,9)            179.9893         estimate D2E/DX2                !
 ! D32   D(1,5,6,14)             0.5542         estimate D2E/DX2                !
 ! D33   D(4,5,6,14)           179.9338         estimate D2E/DX2                !
 ! D34   D(14,6,7,4)          -179.9575         estimate D2E/DX2                !
 ! D35   D(14,6,7,8)          -179.9378         estimate D2E/DX2                !
 ! D36   D(5,6,14,15)            0.1779         estimate D2E/DX2                !
 ! D37   D(5,6,14,27)         -179.7943         estimate D2E/DX2                !
 ! D38   D(7,6,14,15)         -179.8222         estimate D2E/DX2                !
 ! D39   D(7,6,14,27)            0.2056         estimate D2E/DX2                !
 ! D40   D(5,7,8,9)           -179.9931         estimate D2E/DX2                !
 ! D41   D(6,7,8,9)            179.9675         estimate D2E/DX2                !
 ! D42   D(4,8,9,10)            95.0743         estimate D2E/DX2                !
 ! D43   D(4,8,9,13)           -60.5055         estimate D2E/DX2                !
 ! D44   D(7,8,9,10)           -84.9259         estimate D2E/DX2                !
 ! D45   D(7,8,9,13)           119.4943         estimate D2E/DX2                !
 ! D46   D(8,9,10,11)         -162.3841         estimate D2E/DX2                !
 ! D47   D(8,9,10,32)           17.6153         estimate D2E/DX2                !
 ! D48   D(8,9,13,11)          156.0725         estimate D2E/DX2                !
 ! D49   D(8,9,13,12)          156.337          estimate D2E/DX2                !
 ! D50   D(9,10,11,12)          -0.2465         estimate D2E/DX2                !
 ! D51   D(9,10,11,33)         179.7541         estimate D2E/DX2                !
 ! D52   D(32,10,11,12)        179.7541         estimate D2E/DX2                !
 ! D53   D(32,10,11,33)         -0.2453         estimate D2E/DX2                !
 ! D54   D(32,10,13,12)       -179.7764         estimate D2E/DX2                !
 ! D55   D(10,11,12,34)       -179.5917         estimate D2E/DX2                !
 ! D56   D(33,11,12,34)          0.4077         estimate D2E/DX2                !
 ! D57   D(33,11,13,9)        -179.3129         estimate D2E/DX2                !
 ! D58   D(34,12,13,9)         179.5579         estimate D2E/DX2                !
 ! D59   D(34,12,13,10)        179.7219         estimate D2E/DX2                !
 ! D60   D(6,14,15,16)        -179.6255         estimate D2E/DX2                !
 ! D61   D(27,14,15,16)          0.347          estimate D2E/DX2                !
 ! D62   D(6,14,25,24)         179.8815         estimate D2E/DX2                !
 ! D63   D(15,14,25,24)         -0.1039         estimate D2E/DX2                !
 ! D64   D(6,14,27,23)         179.9213         estimate D2E/DX2                !
 ! D65   D(6,14,27,26)          -0.0645         estimate D2E/DX2                !
 ! D66   D(15,14,27,23)         -0.0512         estimate D2E/DX2                !
 ! D67   D(15,14,27,26)        179.963          estimate D2E/DX2                !
 ! D68   D(14,15,16,17)         -0.6078         estimate D2E/DX2                !
 ! D69   D(14,15,16,35)        179.3918         estimate D2E/DX2                !
 ! D70   D(15,16,17,18)       -179.4534         estimate D2E/DX2                !
 ! D71   D(15,16,17,23)          0.5464         estimate D2E/DX2                !
 ! D72   D(35,16,17,18)          0.547          estimate D2E/DX2                !
 ! D73   D(35,16,17,23)       -179.4532         estimate D2E/DX2                !
 ! D74   D(16,17,18,19)          0.3603         estimate D2E/DX2                !
 ! D75   D(16,17,18,22)       -179.6055         estimate D2E/DX2                !
 ! D76   D(23,17,18,19)       -179.6395         estimate D2E/DX2                !
 ! D77   D(23,17,18,22)          0.3947         estimate D2E/DX2                !
 ! D78   D(16,17,23,24)        179.7135         estimate D2E/DX2                !
 ! D79   D(16,17,23,27)         -0.2439         estimate D2E/DX2                !
 ! D80   D(18,17,23,24)         -0.2866         estimate D2E/DX2                !
 ! D81   D(18,17,23,27)        179.756          estimate D2E/DX2                !
 ! D82   D(16,17,25,26)         -0.2325         estimate D2E/DX2                !
 ! D83   D(18,17,25,26)        179.7893         estimate D2E/DX2                !
 ! D84   D(17,18,19,20)       -179.46           estimate D2E/DX2                !
 ! D85   D(22,18,19,20)          0.5104         estimate D2E/DX2                !
 ! D86   D(17,18,22,20)        179.6475         estimate D2E/DX2                !
 ! D87   D(17,18,22,21)        179.642          estimate D2E/DX2                !
 ! D88   D(19,18,22,20)         -0.3228         estimate D2E/DX2                !
 ! D89   D(19,18,22,21)         -0.3283         estimate D2E/DX2                !
 ! D90   D(18,19,20,21)         -0.4886         estimate D2E/DX2                !
 ! D91   D(18,19,20,22)         -0.306          estimate D2E/DX2                !
 ! D92   D(18,19,20,36)        179.512          estimate D2E/DX2                !
 ! D93   D(19,20,21,37)       -179.7045         estimate D2E/DX2                !
 ! D94   D(36,20,21,37)          0.2949         estimate D2E/DX2                !
 ! D95   D(19,20,22,18)          0.3107         estimate D2E/DX2                !
 ! D96   D(36,20,22,18)       -179.205          estimate D2E/DX2                !
 ! D97   D(37,21,22,18)       -179.9908         estimate D2E/DX2                !
 ! D98   D(17,23,27,14)          0.0023         estimate D2E/DX2                !
 ! D99   D(17,23,27,26)        179.9919         estimate D2E/DX2                !
 ! D100  D(24,23,27,14)       -179.9663         estimate D2E/DX2                !
 ! D101  D(24,23,27,26)          0.0233         estimate D2E/DX2                !
 --------------------------------------------------------------------------------
 Trust Radius=3.00D-01 FncErr=1.00D-07 GrdErr=1.00D-06
 Number of steps in this run=    222 maximum allowed number of steps=    222.
 GradGradGradGradGradGradGradGradGradGradGradGradGradGradGradGradGradGrad

                          Input orientation:                          
 ---------------------------------------------------------------------
 Center     Atomic      Atomic             Coordinates (Angstroms)
 Number     Number       Type             X           Y           Z
 ---------------------------------------------------------------------
      1          6           0       -1.249000    1.158000   -0.004000
      2          6           0       -2.094000   -0.044000    0.002000
      3          6           0       -1.292000   -1.075000    0.000000
      4          6           0       -0.015000   -0.662000    0.000000
      5          6           0        0.021000    0.714000    0.002000
      6          6           0        1.349000    1.058000    0.001000
      7         16           0        2.041000   -0.071000    0.000000
      8          6           0        1.242000   -1.078000   -0.001000
      9          6           0        1.666110   -2.498020   -0.002980
     10          6           0        1.909520   -2.933080   -1.227930
     11          6           0        1.891420   -4.416590   -1.143780
     12          6           0        1.644560   -4.704310    0.123230
     13         34           0        1.503680   -3.556970    0.806600
     14          6           0        1.889610    2.396990    0.001030
     15          7           0        1.063620    3.465720    0.005740
     16          6           0        1.544640    4.736790   -0.001680
     17          6           0        2.871750    4.993560   -0.001920
     18          6           0        3.346110    6.357420    0.001990
     19          7           0        2.585530    7.417890    0.012630
     20          6           0        3.400740    8.500420    0.000590
     21          6           0        4.665680    8.014140   -0.006360
     22         16           0        4.582310    6.711750   -0.005110
     23          6           0        3.782130    3.934940   -0.005960
     24          7           0        5.121280    3.836200   -0.012080
     25         16           0        5.443480    2.558770   -0.012750
     26          7           0        4.353600    1.805360   -0.009210
     27          6           0        3.285370    2.601320   -0.004450
     28          1           0       -1.440050    1.751970    0.865250
     29          1           0       -1.446620    1.773750   -0.856460
     30          1           0       -3.125690   -0.068950    0.006870
     31          1           0       -1.595440   -2.061380   -0.001380
     32          1           0        2.077540   -2.359930   -2.069530
     33          1           0        2.040830   -5.085140   -1.915620
     34          1           0        1.572140   -5.653790    0.521050
     35          1           0        0.879750    5.526040   -0.007280
     36          1           0        3.116360    9.492460   -0.002620
     37          1           0        5.534550    8.570970   -0.011670
 ---------------------------------------------------------------------
                    Distance matrix (angstroms):
                    1          2          3          4          5
     1  C    0.000000
     2  C    1.469308   0.000000
     3  C    2.233418   1.306204   0.000000
     4  C    2.198902   2.168910   1.342124   0.000000
     5  C    1.345389   2.246729   2.219120   1.376472   0.000000
     6  C    2.599929   3.615059   3.394786   2.195199   1.371831
     7  S    3.512059   4.135089   3.480935   2.139256   2.167171
     8  C    3.347355   3.492572   2.534002   1.324049   2.168436
     9  C    4.675933   4.490063   3.282592   2.489399   3.608806
    10  C    5.311421   5.087994   3.900000   3.220154   4.287240
    11  C    6.499030   6.026270   4.754852   4.363441   5.579806
    12  C    6.538773   5.975786   4.670167   4.371452   5.657626
    13  Se   5.519535   5.092312   3.824475   3.367171   4.592048
    14  C    3.374314   4.672000   4.709284   3.603465   2.514788
    15  N    3.267090   4.721092   5.115380   4.266325   2.942624
    16  C    4.540063   6.007967   6.467104   5.619556   4.301666
    17  C    5.629574   7.073592   7.359636   6.349700   5.142123
    18  C    6.938951   8.400772   8.760875   7.782629   6.550156
    19  N    7.340989   8.807833   9.336197   8.488082   7.177678
    20  C    8.690871  10.158705  10.663511   9.778406   8.488285
    21  C    9.054839  10.517935  10.867679   9.858205   8.652466
    22  S    8.052845   9.498069   9.754026   8.689504   7.535158
    23  C    5.746622   7.096544   7.130661   5.962390   4.951830
    24  N    6.910375   8.192461   8.077759   6.827541   5.980066
    25  S    6.837508   7.974223   7.653178   6.337864   5.727712
    26  N    5.639878   6.707593   6.337930   5.017232   4.467954
    27  C    4.758538   5.994613   5.870917   4.641306   3.770694
    28  H    1.069998   2.097227   2.960124   2.933714   1.989284
    29  H    1.069995   2.111935   2.978726   2.952277   2.003480
    30  H    2.242206   1.032003   2.091555   3.166725   3.242637
    31  H    3.237968   2.078075   1.032000   2.110937   3.211794
    32  H    5.263850   5.201588   4.157860   3.397741   4.239061
    33  H    7.311229   6.796115   5.555050   5.240249   6.433273
    34  H    7.391549   6.721588   5.425874   5.263884   6.574511
    35  H    4.859152   6.314160   6.949121   6.252397   4.888074
    36  H    9.408485  10.867012  11.450103  10.626311   9.308203
    37  H   10.048320  11.507070  11.817219  10.772436   9.598510
                    6          7          8          9         10
     6  C    0.000000
     7  S    1.324200   0.000000
     8  C    2.138679   1.285477   0.000000
     9  C    3.570133   2.455805   1.482002   0.000000
    10  C    4.213451   3.117146   2.322124   1.322508   0.000000
    11  C    5.619242   4.496083   3.588018   2.243457   1.486005
    12  C    5.771179   4.651872   3.650700   2.210002   2.243456
    13  Se   4.687309   3.618191   2.620303   1.342825   2.166393
    14  C    1.444006   2.472629   3.534821   4.900111   5.469953
    15  N    2.424578   3.669291   4.547225   5.994103   6.571311
    16  C    3.683989   4.833345   5.822660   7.235830   7.775843
    17  C    4.219883   5.132243   6.286488   7.587973   8.078404
    18  C    5.663241   6.559566   7.727403   9.013392   9.481028
    19  N    6.478992   7.508671   8.601477   9.958456  10.446940
    20  C    7.720055   8.678602   9.818671  11.134390  11.595599
    21  C    7.706381   8.500498   9.715381  10.931740  11.354747
    22  S    6.513004   7.243202   8.475724   9.660439  10.082750
    23  C    3.767885   4.367966   5.619773   6.772040   7.222851
    24  N    4.684940   4.975388   6.260854   7.215305   7.590576
    25  S    4.360879   4.300317   5.556858   6.311873   6.642737
    26  N    3.096171   2.978075   4.242156   5.073630   5.469152
    27  C    2.476165   2.947842   4.208654   5.350259   5.832619
    28  H    3.001220   4.023628   3.994060   5.335210   6.127864
    29  H    3.010486   4.037341   4.011604   5.354020   5.792747
    30  H    4.614423   5.166695   4.482740   5.372320   5.922948
    31  H    4.289553   4.145517   3.003016   3.290648   3.814319
    32  H    4.062033   3.086015   2.572992   2.111628   1.031999
    33  H    6.472266   5.367607   4.512324   3.239104   2.263078
    34  H    6.735605   5.626621   4.617292   3.200363   3.251925
    35  H    4.492621   5.716241   6.613971   8.062501   8.608549
    36  H    8.617638   9.623730  10.735355  12.077866  12.543998
    37  H    8.600216   9.321409  10.560716  11.725504  12.122842
                   11         12         13         14         15
    11  C    0.000000
    12  C    1.322512   0.000000
    13  Se   2.166396   1.342844   0.000000
    14  C    6.909086   7.106578   6.020592   0.000000
    15  N    8.008587   8.191501   7.081893   1.350728   0.000000
    16  C    9.230873   9.442455   8.333154   2.365095   1.359064
    17  C    9.529733   9.776008   8.696947   2.776109   2.367211
    18  C   10.931981  11.192490  10.116179   4.219763   3.683979
    19  N   11.911087  12.159169  11.056597   5.068913   4.235080
    20  C   13.055144  13.321565  12.232299   6.287716   5.550708
    21  C   12.787232  13.072985  12.022884   6.265700   5.801992
    22  S   11.505538  11.788693  10.750974   5.086042   4.787276
    23  C    8.638141   8.900704   7.872757   2.438641   2.758732
    24  N    8.934276   9.222050   8.271410   3.537681   4.074577
    25  S    7.908983   8.197720   7.320904   3.557577   4.472815
    26  N    6.786917   7.052109   6.127167   2.534044   3.685239
    27  C    7.245152   7.488711   6.461947   1.410648   2.384002
    28  H    7.292875   7.193675   6.070736   3.499938   3.153420
    29  H    7.038847   7.244339   6.315585   3.500592   3.147611
    30  H    6.737756   6.652472   5.851232   5.588750   5.481260
    31  H    4.360079   4.183086   3.534709   5.658855   6.133473
    32  H    2.263074   3.239103   3.167703   5.191418   6.266816
    33  H    1.031998   2.111628   3.167699   7.725198   8.818377
    34  H    2.098633   1.031997   2.117281   8.073801   9.148202
    35  H   10.058380  10.259728   9.140720   3.287984   2.068549
    36  H   14.009440  14.273413  13.173580   7.200738   6.366742
    37  H   13.536277  13.834135  12.806421   7.169643   6.786243
                   16         17         18         19         20
    16  C    0.000000
    17  C    1.351722   0.000000
    18  C    2.423169   1.444004   0.000000
    19  N    2.876100   2.441211   1.305064   0.000000
    20  C    4.196430   3.546534   2.143697   1.355206   0.000000
    21  C    4.525697   3.513134   2.118031   2.164001   1.355208
    22  S    3.623247   2.424500   1.285998   2.118037   2.143707
    23  C    2.376835   1.396239   2.461420   3.682817   4.581387
    24  N    3.688296   2.529816   3.083501   4.388524   4.971455
    25  S    4.465965   3.541485   4.339230   5.637337   6.283006
    26  N    4.059999   3.515758   4.662232   5.884475   6.762534
    27  C    2.755065   2.427736   3.756597   4.867177   5.900230
    28  H    4.309187   5.463653   6.697964   7.002493   8.349998
    29  H    4.296265   5.453965   6.687094   6.990699   8.335438
    30  H    6.701283   7.848463   9.120441   9.416520  10.771649
    31  H    7.488339   8.350327   9.761922  10.360370  11.683897
    32  H    7.411034   7.679817   9.049456  10.009955  11.134786
    33  H   10.018966  10.292369  11.675323  12.662567  13.787264
    34  H   10.403757  10.739113  12.152595  13.120757  14.281328
    35  H    1.032001   2.061948   2.602731   2.547387   3.899024
    36  H    5.008663   4.505545   3.143451   2.141461   1.032001
    37  H    5.533572   4.459648   3.112758   3.166529   2.135011
                   21         22         23         24         25
    21  C    0.000000
    22  S    1.305056   0.000000
    23  C    4.173791   2.889803   0.000000
    24  N    4.202712   2.925632   1.342799   0.000000
    25  S    5.510542   4.241334   2.157307   1.317437   0.000000
    26  N    6.216619   4.911719   2.204926   2.171095   1.324944
    27  C    5.586043   4.310184   1.423136   2.212590   2.158545
    28  H    8.789449   7.850208   5.726738   6.940085   6.986043
    29  H    8.776409   7.839428   5.721356   6.935704   6.985813
    30  H   11.226841  10.266026   7.984314   9.124860   8.963034
    31  H   11.862451  10.729978   8.054448   8.938450   8.419757
    32  H   10.889282   9.634889   6.840273   7.203435   6.305038
    33  H   13.495416  12.217847   9.383004   9.628237   8.580694
    34  H   14.023568  12.737525   9.854214  10.145961   9.094963
    35  H    4.530332   3.887784   3.309896   4.565759   5.443561
    36  H    2.141457   3.143464   5.597257   6.001089   7.313798
    37  H    1.031999   2.088900   4.956186   4.752772   6.012890
                   26         27         28         29         30
    26  N    0.000000
    27  C    1.332175   0.000000
    28  H    5.859515   4.879279   0.000000
    29  H    5.861858   4.878783   1.721860   0.000000
    30  H    7.710582   6.944938   2.625633   2.638211   0.000000
    31  H    7.095267   6.750043   3.913672   3.932115   2.512272
    32  H    5.174457   5.507941   6.155818   5.565838   6.052572
    33  H    7.514140   8.017675   8.160627   7.767142   7.453258
    34  H    7.978510   8.447375   8.002315   8.135035   7.316039
    35  H    5.090294   3.786952   4.515128   4.495863   6.880964
    36  H    7.786033   6.893212   9.023816   9.007126  11.418574
    37  H    6.867906   6.379309   9.793508   9.780215  12.233083
                   31         32         33         34         35
    31  H    0.000000
    32  H    4.225773   0.000000
    33  H    5.101950   2.729800   0.000000
    34  H    4.817874   4.220906   2.545662   0.000000
    35  H    7.980949   8.238695  10.843754  11.213703   0.000000
    36  H   12.477671  12.076026  14.741871  15.233770   4.553563
    37  H   12.801708  11.647759  14.223939  14.775936   5.562264
                   36         37
    36  H    0.000000
    37  H    2.587831   0.000000
 Stoichiometry    C19H10N4S3Se
 Framework group  C1[X(C19H10N4S3Se)]
 Deg. of freedom   105
 Full point group                 C1      NOp   1
 Largest Abelian subgroup         C1      NOp   1
 Largest concise Abelian subgroup C1      NOp   1
                         Standard orientation:                         
 ---------------------------------------------------------------------
 Center     Atomic      Atomic             Coordinates (Angstroms)
 Number     Number       Type             X           Y           Z
 ---------------------------------------------------------------------
      1          6           0        1.192697    3.278053    0.069970
      2          6           0        2.587835    3.738738    0.084952
      3          6           0        3.342303    2.672517    0.095958
      4          6           0        2.577278    1.569855    0.082940
      5          6           0        1.249979    1.933905    0.062406
      6          6           0        0.536208    0.762443    0.051006
      7         16           0        1.416333   -0.226872    0.062965
      8          6           0        2.611425    0.246246    0.082078
      9          6           0        3.847626   -0.570944    0.100469
     10          6           0        4.175819   -0.932099    1.329649
     11          6           0        5.602072   -1.344265    1.265369
     12          6           0        5.967224   -1.189057    0.003778
     13         34           0        4.919827   -0.720717   -0.693968
     14          6           0       -0.901811    0.632788    0.029963
     15          7           0       -1.685403    1.732902    0.015886
     16          6           0       -3.041272    1.640599    0.003548
     17          6           0       -3.671291    0.444727   -0.007445
     18          6           0       -5.113873    0.385692   -0.032308
     19          7           0       -5.908414    1.420818   -0.052590
     20          6           0       -7.180674    0.954036   -0.059766
     21          6           0       -7.081650   -0.397537   -0.053789
     22         16           0       -5.811037   -0.694923   -0.037206
     23          6           0       -2.921801   -0.733231    0.005330
     24          7           0       -3.215149   -2.043596    0.004880
     25         16           0       -2.085886   -2.721946    0.020662
     26          7           0       -1.049201   -1.896964    0.033572
     27          6           0       -1.501595   -0.643988    0.024504
     28          1           0        0.692118    3.634482   -0.805972
     29          1           0        0.648296    3.644014    0.915305
     30          1           0        2.910516    4.718995    0.086489
     31          1           0        4.374163    2.677284    0.112259
     32          1           0        3.566472   -0.928426    2.162539
     33          1           0        6.187494   -1.682264    2.045149
     34          1           0        6.902644   -1.394012   -0.380931
     35          1           0       -3.604184    2.505558    0.002553
     36          1           0       -8.047810    1.513527   -0.068091
     37          1           0       -7.866229   -1.067915   -0.061010
 ---------------------------------------------------------------------
 Rotational constants (GHZ):      0.4149076      0.0646963      0.0571029
 Standard basis: 6-31++G(d,p) (6D, 7F)
 There are   600 symmetry adapted basis functions of A   symmetry.
 Integral buffers will be    131072 words long.
 Raffenetti 2 integral format.
 Two-electron integral symmetry is turned on.
   600 basis functions,  1071 primitive gaussians,   600 cartesian basis functions
   117 alpha electrons      117 beta electrons
       nuclear repulsion energy      3466.7714302972 Hartrees.
 NAtoms=   37 NActive=   37 NUniq=   37 SFac= 1.00D+00 NAtFMM=   60 NAOKFM=F Big=F
 One-electron integrals computed using PRISM.
 NBasis=   600 RedAO= T  NBF=   600
 NBsUse=   591 1.00D-06 NBFU=   591
 Harris functional with IExCor=  402 diagonalized for initial guess.
 ExpMin= 3.00D-02 ExpMax= 5.61D+05 ExpMxC= 5.42D+03 IAcc=3 IRadAn=         5 AccDes= 0.00D+00
 HarFok:  IExCor=  402 AccDes= 0.00D+00 IRadAn=         5 IDoV= 1
 ScaDFX=  1.000000  1.000000  1.000000  1.000000
 FoFCou: FMM=F IPFlag=           0 FMFlag=      100000 FMFlg1=           0
         NFxFlg=           0 DoJE=T BraDBF=F KetDBF=T FulRan=T
         Omega=  0.000000  0.000000  1.000000  0.000000  0.000000 ICntrl=     500 IOpCl=  0
         NMat0=    1 NMatS0=    1 NMatT0=    0 NMatD0=    1 NMtDS0=    0 NMtDT0=    0
         I1Cent=           4 NGrid=           0.
 Petite list used in FoFCou.
 Initial guess orbital symmetries:
       Occupied  (A) (A) (A) (A) (A) (A) (A) (A) (A) (A) (A) (A)
                 (A) (A) (A) (A) (A) (A) (A) (A) (A) (A) (A) (A)
                 (A) (A) (A) (A) (A) (A) (A) (A) (A) (A) (A) (A)
                 (A) (A) (A) (A) (A) (A) (A) (A) (A) (A) (A) (A)
                 (A) (A) (A) (A) (A) (A) (A) (A) (A) (A) (A) (A)
                 (A) (A) (A) (A) (A) (A) (A) (A) (A) (A) (A) (A)
                 (A) (A) (A) (A) (A) (A) (A) (A) (A) (A) (A) (A)
                 (A) (A) (A) (A) (A) (A) (A) (A) (A) (A) (A) (A)
                 (A) (A) (A) (A) (A) (A) (A) (A) (A) (A) (A) (A)
                 (A) (A) (A) (A) (A) (A) (A) (A) (A)
       Virtual   (A) (A) (A) (A) (A) (A) (A) (A) (A) (A) (A) (A)
                 (A) (A) (A) (A) (A) (A) (A) (A) (A) (A) (A) (A)
                 (A) (A) (A) (A) (A) (A) (A) (A) (A) (A) (A) (A)
                 (A) (A) (A) (A) (A) (A) (A) (A) (A) (A) (A) (A)
                 (A) (A) (A) (A) (A) (A) (A) (A) (A) (A) (A) (A)
                 (A) (A) (A) (A) (A) (A) (A) (A) (A) (A) (A) (A)
                 (A) (A) (A) (A) (A) (A) (A) (A) (A) (A) (A) (A)
                 (A) (A) (A) (A) (A) (A) (A) (A) (A) (A) (A) (A)
                 (A) (A) (A) (A) (A) (A) (A) (A) (A) (A) (A) (A)
                 (A) (A) (A) (A) (A) (A) (A) (A) (A) (A) (A) (A)
                 (A) (A) (A) (A) (A) (A) (A) (A) (A) (A) (A) (A)
                 (A) (A) (A) (A) (A) (A) (A) (A) (A) (A) (A) (A)
                 (A) (A) (A) (A) (A) (A) (A) (A) (A) (A) (A) (A)
                 (A) (A) (A) (A) (A) (A) (A) (A) (A) (A) (A) (A)
                 (A) (A) (A) (A) (A) (A) (A) (A) (A) (A) (A) (A)
                 (A) (A) (A) (A) (A) (A) (A) (A) (A) (A) (A) (A)
                 (A) (A) (A) (A) (A) (A) (A) (A) (A) (A) (A) (A)
                 (A) (A) (A) (A) (A) (A) (A) (A) (A) (A) (A) (A)
                 (A) (A) (A) (A) (A) (A) (A) (A) (A) (A) (A) (A)
                 (A) (A) (A) (A) (A) (A) (A) (A) (A) (A) (A) (A)
                 (A) (A) (A) (A) (A) (A) (A) (A) (A) (A) (A) (A)
                 (A) (A) (A) (A) (A) (A) (A) (A) (A) (A) (A) (A)
                 (A) (A) (A) (A) (A) (A) (A) (A) (A) (A) (A) (A)
                 (A) (A) (A) (A) (A) (A) (A) (A) (A) (A) (A) (A)
                 (A) (A) (A) (A) (A) (A) (A) (A) (A) (A) (A) (A)
                 (A) (A) (A) (A) (A) (A) (A) (A) (A) (A) (A) (A)
                 (A) (A) (A) (A) (A) (A) (A) (A) (A) (A) (A) (A)
                 (A) (A) (A) (A) (A) (A) (A) (A) (A) (A) (A) (A)
                 (A) (A) (A) (A) (A) (A) (A) (A) (A) (A) (A) (A)
                 (A) (A) (A) (A) (A) (A) (A) (A) (A) (A) (A) (A)
                 (A) (A) (A) (A) (A) (A) (A) (A) (A) (A) (A) (A)
                 (A) (A) (A) (A) (A) (A) (A) (A) (A) (A) (A) (A)
                 (A) (A) (A) (A) (A) (A) (A) (A) (A) (A) (A) (A)
                 (A) (A) (A) (A) (A) (A) (A) (A) (A) (A) (A) (A)
                 (A) (A) (A) (A) (A) (A) (A) (A) (A) (A) (A) (A)
                 (A) (A) (A) (A) (A) (A) (A) (A) (A) (A) (A) (A)
                 (A) (A) (A) (A) (A) (A) (A) (A) (A) (A) (A) (A)
                 (A) (A) (A) (A) (A) (A) (A) (A) (A) (A) (A) (A)
                 (A) (A) (A) (A) (A) (A) (A) (A) (A) (A) (A) (A)
                 (A) (A) (A) (A) (A) (A)
 The electronic state of the initial guess is 1-A.
 Requested convergence on RMS density matrix=1.00D-08 within 128 cycles.
 Requested convergence on MAX density matrix=1.00D-06.
 Requested convergence on             energy=1.00D-06.
 No special actions if energy rises.
 SCF Done:  E(RB3LYP) =  -4541.32093891     A.U. after   16 cycles
             Convg  =    0.5543D-08             -V/T =  2.0014

 **********************************************************************

            Population analysis using the SCF density.

 **********************************************************************

 Orbital symmetries:
       Occupied  (A) (A) (A) (A) (A) (A) (A) (A) (A) (A) (A) (A)
                 (A) (A) (A) (A) (A) (A) (A) (A) (A) (A) (A) (A)
                 (A) (A) (A) (A) (A) (A) (A) (A) (A) (A) (A) (A)
                 (A) (A) (A) (A) (A) (A) (A) (A) (A) (A) (A) (A)
                 (A) (A) (A) (A) (A) (A) (A) (A) (A) (A) (A) (A)
                 (A) (A) (A) (A) (A) (A) (A) (A) (A) (A) (A) (A)
                 (A) (A) (A) (A) (A) (A) (A) (A) (A) (A) (A) (A)
                 (A) (A) (A) (A) (A) (A) (A) (A) (A) (A) (A) (A)
                 (A) (A) (A) (A) (A) (A) (A) (A) (A) (A) (A) (A)
                 (A) (A) (A) (A) (A) (A) (A) (A) (A)
       Virtual   (A) (A) (A) (A) (A) (A) (A) (A) (A) (A) (A) (A)
                 (A) (A) (A) (A) (A) (A) (A) (A) (A) (A) (A) (A)
                 (A) (A) (A) (A) (A) (A) (A) (A) (A) (A) (A) (A)
                 (A) (A) (A) (A) (A) (A) (A) (A) (A) (A) (A) (A)
                 (A) (A) (A) (A) (A) (A) (A) (A) (A) (A) (A) (A)
                 (A) (A) (A) (A) (A) (A) (A) (A) (A) (A) (A) (A)
                 (A) (A) (A) (A) (A) (A) (A) (A) (A) (A) (A) (A)
                 (A) (A) (A) (A) (A) (A) (A) (A) (A) (A) (A) (A)
                 (A) (A) (A) (A) (A) (A) (A) (A) (A) (A) (A) (A)
                 (A) (A) (A) (A) (A) (A) (A) (A) (A) (A) (A) (A)
                 (A) (A) (A) (A) (A) (A) (A) (A) (A) (A) (A) (A)
                 (A) (A) (A) (A) (A) (A) (A) (A) (A) (A) (A) (A)
                 (A) (A) (A) (A) (A) (A) (A) (A) (A) (A) (A) (A)
                 (A) (A) (A) (A) (A) (A) (A) (A) (A) (A) (A) (A)
                 (A) (A) (A) (A) (A) (A) (A) (A) (A) (A) (A) (A)
                 (A) (A) (A) (A) (A) (A) (A) (A) (A) (A) (A) (A)
                 (A) (A) (A) (A) (A) (A) (A) (A) (A) (A) (A) (A)
                 (A) (A) (A) (A) (A) (A) (A) (A) (A) (A) (A) (A)
                 (A) (A) (A) (A) (A) (A) (A) (A) (A) (A) (A) (A)
                 (A) (A) (A) (A) (A) (A) (A) (A) (A) (A) (A) (A)
                 (A) (A) (A) (A) (A) (A) (A) (A) (A) (A) (A) (A)
                 (A) (A) (A) (A) (A) (A) (A) (A) (A) (A) (A) (A)
                 (A) (A) (A) (A) (A) (A) (A) (A) (A) (A) (A) (A)
                 (A) (A) (A) (A) (A) (A) (A) (A) (A) (A) (A) (A)
                 (A) (A) (A) (A) (A) (A) (A) (A) (A) (A) (A) (A)
                 (A) (A) (A) (A) (A) (A) (A) (A) (A) (A) (A) (A)
                 (A) (A) (A) (A) (A) (A) (A) (A) (A) (A) (A) (A)
                 (A) (A) (A) (A) (A) (A) (A) (A) (A) (A) (A) (A)
                 (A) (A) (A) (A) (A) (A) (A) (A) (A) (A) (A) (A)
                 (A) (A) (A) (A) (A) (A) (A) (A) (A) (A) (A) (A)
                 (A) (A) (A) (A) (A) (A) (A) (A) (A) (A) (A) (A)
                 (A) (A) (A) (A) (A) (A) (A) (A) (A) (A) (A) (A)
                 (A) (A) (A) (A) (A) (A) (A) (A) (A) (A) (A) (A)
                 (A) (A) (A) (A) (A) (A) (A) (A) (A) (A) (A) (A)
                 (A) (A) (A) (A) (A) (A) (A) (A) (A) (A) (A) (A)
                 (A) (A) (A) (A) (A) (A) (A) (A) (A) (A) (A) (A)
                 (A) (A) (A) (A) (A) (A) (A) (A) (A) (A) (A) (A)
                 (A) (A) (A) (A) (A) (A) (A) (A) (A) (A) (A) (A)
                 (A) (A) (A) (A) (A) (A) (A) (A) (A) (A) (A) (A)
                 (A) (A) (A) (A) (A) (A)
 The electronic state is 1-A.
 Alpha  occ. eigenvalues -- -453.88562 -88.97098 -88.87501 -88.86518 -57.49728
 Alpha  occ. eigenvalues --  -52.16722 -52.16557 -52.16477 -14.35008 -14.34943
 Alpha  occ. eigenvalues --  -14.34511 -14.33485 -10.25838 -10.25559 -10.24857
 Alpha  occ. eigenvalues --  -10.22584 -10.22475 -10.21937 -10.20995 -10.18819
 Alpha  occ. eigenvalues --  -10.18601 -10.18377 -10.18143 -10.18050 -10.17848
 Alpha  occ. eigenvalues --  -10.17791 -10.17143 -10.17017 -10.16923 -10.16725
 Alpha  occ. eigenvalues --  -10.16436  -8.04485  -7.97902  -7.96572  -7.76691
 Alpha  occ. eigenvalues --   -6.00912  -6.00275  -6.00080  -5.94107  -5.93379
 Alpha  occ. eigenvalues --   -5.93297  -5.92812  -5.92100  -5.91983  -5.81152
 Alpha  occ. eigenvalues --   -5.80225  -5.79874  -2.17685  -2.17155  -2.16236
 Alpha  occ. eigenvalues --   -2.15705  -2.15524  -1.17043  -1.08950  -1.04681
 Alpha  occ. eigenvalues --   -1.02703  -0.97224  -0.95505  -0.89300  -0.87049
 Alpha  occ. eigenvalues --   -0.85872  -0.83904  -0.81964  -0.78921  -0.75923
 Alpha  occ. eigenvalues --   -0.74896  -0.73586  -0.72666  -0.68994  -0.68447
 Alpha  occ. eigenvalues --   -0.64313  -0.63227  -0.61229  -0.60466  -0.59167
 Alpha  occ. eigenvalues --   -0.57780  -0.56261  -0.55895  -0.55123  -0.54639
 Alpha  occ. eigenvalues --   -0.54459  -0.53195  -0.52892  -0.51333  -0.50057
 Alpha  occ. eigenvalues --   -0.49689  -0.47841  -0.47057  -0.45553  -0.44877
 Alpha  occ. eigenvalues --   -0.44386  -0.44080  -0.42966  -0.42720  -0.42230
 Alpha  occ. eigenvalues --   -0.41140  -0.39193  -0.38343  -0.37731  -0.36927
 Alpha  occ. eigenvalues --   -0.35391  -0.34602  -0.33645  -0.33283  -0.31612
 Alpha  occ. eigenvalues --   -0.31537  -0.30158  -0.29594  -0.29105  -0.28553
 Alpha  occ. eigenvalues --   -0.28290  -0.27597  -0.26787  -0.26219  -0.23838
 Alpha  occ. eigenvalues --   -0.22842  -0.21222
 Alpha virt. eigenvalues --   -0.07128  -0.02873  -0.01134  -0.00893  -0.00655
 Alpha virt. eigenvalues --   -0.00360   0.00046   0.00595   0.01275   0.01584
 Alpha virt. eigenvalues --    0.01711   0.01882   0.01928   0.02241   0.02429
 Alpha virt. eigenvalues --    0.02834   0.03192   0.03310   0.03365   0.03754
 Alpha virt. eigenvalues --    0.04115   0.04753   0.04917   0.05119   0.05257
 Alpha virt. eigenvalues --    0.05772   0.06048   0.06578   0.07046   0.07356
 Alpha virt. eigenvalues --    0.07686   0.07841   0.08026   0.08727   0.09057
 Alpha virt. eigenvalues --    0.09722   0.09810   0.09977   0.10015   0.10285
 Alpha virt. eigenvalues --    0.10535   0.10768   0.10924   0.11410   0.11785
 Alpha virt. eigenvalues --    0.12205   0.12264   0.12395   0.12683   0.12948
 Alpha virt. eigenvalues --    0.12982   0.13186   0.13437   0.13670   0.13890
 Alpha virt. eigenvalues --    0.14041   0.14322   0.14506   0.14840   0.14947
 Alpha virt. eigenvalues --    0.15149   0.15332   0.15399   0.15682   0.15963
 Alpha virt. eigenvalues --    0.16173   0.16566   0.16703   0.16801   0.16941
 Alpha virt. eigenvalues --    0.17040   0.17321   0.17744   0.17921   0.18085
 Alpha virt. eigenvalues --    0.18373   0.18962   0.19034   0.19409   0.19673
 Alpha virt. eigenvalues --    0.19957   0.20255   0.20558   0.20789   0.20914
 Alpha virt. eigenvalues --    0.21431   0.21782   0.21873   0.21986   0.22329
 Alpha virt. eigenvalues --    0.22655   0.23204   0.23778   0.23976   0.24250
 Alpha virt. eigenvalues --    0.24408   0.24679   0.25070   0.25172   0.25542
 Alpha virt. eigenvalues --    0.25847   0.26423   0.26498   0.27062   0.27262
 Alpha virt. eigenvalues --    0.27454   0.27720   0.28009   0.28185   0.28383
 Alpha virt. eigenvalues --    0.28817   0.29217   0.29667   0.30049   0.30373
 Alpha virt. eigenvalues --    0.30696   0.31264   0.31451   0.31734   0.32139
 Alpha virt. eigenvalues --    0.32193   0.32807   0.33341   0.33404   0.33799
 Alpha virt. eigenvalues --    0.34109   0.35182   0.35384   0.35790   0.36083
 Alpha virt. eigenvalues --    0.36625   0.36801   0.37394   0.37496   0.38206
 Alpha virt. eigenvalues --    0.38347   0.38650   0.39276   0.39473   0.39656
 Alpha virt. eigenvalues --    0.40096   0.40560   0.41154   0.41648   0.42214
 Alpha virt. eigenvalues --    0.42888   0.43849   0.44024   0.44688   0.45428
 Alpha virt. eigenvalues --    0.46655   0.46807   0.48011   0.49080   0.49208
 Alpha virt. eigenvalues --    0.49873   0.50579   0.51663   0.52005   0.52440
 Alpha virt. eigenvalues --    0.53274   0.54398   0.56255   0.58216   0.58860
 Alpha virt. eigenvalues --    0.60295   0.60622   0.61907   0.62145   0.63761
 Alpha virt. eigenvalues --    0.64606   0.65823   0.67359   0.67981   0.68095
 Alpha virt. eigenvalues --    0.68273   0.68837   0.69529   0.70398   0.71103
 Alpha virt. eigenvalues --    0.71507   0.72000   0.72625   0.72915   0.73729
 Alpha virt. eigenvalues --    0.73897   0.74426   0.74617   0.75277   0.75609
 Alpha virt. eigenvalues --    0.76129   0.76528   0.76695   0.77565   0.77600
 Alpha virt. eigenvalues --    0.77743   0.78934   0.79517   0.79972   0.80384
 Alpha virt. eigenvalues --    0.80412   0.80898   0.81334   0.82215   0.82630
 Alpha virt. eigenvalues --    0.83111   0.83483   0.83910   0.84262   0.85251
 Alpha virt. eigenvalues --    0.85856   0.86278   0.86960   0.87419   0.88120
 Alpha virt. eigenvalues --    0.88140   0.88833   0.89464   0.91037   0.91495
 Alpha virt. eigenvalues --    0.91690   0.92274   0.92748   0.93529   0.94259
 Alpha virt. eigenvalues --    0.96119   0.96528   0.96639   0.97239   0.97638
 Alpha virt. eigenvalues --    0.97930   0.98122   0.98896   0.99331   0.99798
 Alpha virt. eigenvalues --    1.01117   1.01594   1.02517   1.02690   1.03517
 Alpha virt. eigenvalues --    1.03948   1.04547   1.04837   1.07169   1.08037
 Alpha virt. eigenvalues --    1.08634   1.09710   1.11021   1.11889   1.13250
 Alpha virt. eigenvalues --    1.13858   1.15134   1.15792   1.16182   1.16929
 Alpha virt. eigenvalues --    1.18417   1.19403   1.20980   1.21612   1.21850
 Alpha virt. eigenvalues --    1.22229   1.23438   1.23849   1.25439   1.25670
 Alpha virt. eigenvalues --    1.26416   1.26985   1.27535   1.28127   1.28316
 Alpha virt. eigenvalues --    1.28927   1.30182   1.31313   1.32902   1.33573
 Alpha virt. eigenvalues --    1.33851   1.34280   1.34481   1.34746   1.35383
 Alpha virt. eigenvalues --    1.35964   1.36377   1.36814   1.37731   1.38366
 Alpha virt. eigenvalues --    1.38942   1.40073   1.41346   1.42115   1.42535
 Alpha virt. eigenvalues --    1.43599   1.44917   1.46239   1.46714   1.48556
 Alpha virt. eigenvalues --    1.51452   1.53530   1.54168   1.56029   1.58626
 Alpha virt. eigenvalues --    1.59257   1.60346   1.61336   1.63201   1.64797
 Alpha virt. eigenvalues --    1.65240   1.66874   1.68098   1.69730   1.70628
 Alpha virt. eigenvalues --    1.71248   1.72656   1.75151   1.76722   1.77284
 Alpha virt. eigenvalues --    1.78423   1.79011   1.82033   1.83634   1.84677
 Alpha virt. eigenvalues --    1.85681   1.85789   1.87918   1.87980   1.88959
 Alpha virt. eigenvalues --    1.89208   1.90177   1.90670   1.94264   1.94605
 Alpha virt. eigenvalues --    1.95004   1.95726   1.96303   1.98449   1.98683
 Alpha virt. eigenvalues --    2.00166   2.01351   2.03270   2.03682   2.04382
 Alpha virt. eigenvalues --    2.06814   2.07428   2.07933   2.08011   2.09991
 Alpha virt. eigenvalues --    2.10512   2.10822   2.12943   2.13438   2.15983
 Alpha virt. eigenvalues --    2.16807   2.16939   2.18064   2.20103   2.20524
 Alpha virt. eigenvalues --    2.21469   2.23063   2.24379   2.25081   2.25595
 Alpha virt. eigenvalues --    2.27936   2.29004   2.31710   2.32354   2.32882
 Alpha virt. eigenvalues --    2.35155   2.36031   2.37118   2.38720   2.38804
 Alpha virt. eigenvalues --    2.39287   2.41413   2.42789   2.43279   2.44994
 Alpha virt. eigenvalues --    2.45357   2.46485   2.47765   2.48603   2.50483
 Alpha virt. eigenvalues --    2.51586   2.51964   2.52394   2.53447   2.54528
 Alpha virt. eigenvalues --    2.55383   2.57665   2.58073   2.58892   2.60314
 Alpha virt. eigenvalues --    2.61679   2.62377   2.64555   2.65778   2.67129
 Alpha virt. eigenvalues --    2.67293   2.68042   2.69905   2.70428   2.72254
 Alpha virt. eigenvalues --    2.72689   2.72898   2.74135   2.75114   2.76437
 Alpha virt. eigenvalues --    2.77065   2.78359   2.78766   2.80157   2.81280
 Alpha virt. eigenvalues --    2.81670   2.82249   2.83022   2.85761   2.87315
 Alpha virt. eigenvalues --    2.90105   2.90620   2.92709   2.94785   2.96247
 Alpha virt. eigenvalues --    2.97890   2.99604   3.03585   3.04334   3.09999
 Alpha virt. eigenvalues --    3.10890   3.14486   3.16072   3.18350   3.22572
 Alpha virt. eigenvalues --    3.24372   3.25068   3.31142   3.39858   3.40709
 Alpha virt. eigenvalues --    3.43151   3.45696   3.47126   3.52278   3.55119
 Alpha virt. eigenvalues --    3.56131   3.60125   3.72664   3.81695   3.87066
 Alpha virt. eigenvalues --    3.89399   3.99393   4.07367   4.10573   4.23390
 Alpha virt. eigenvalues --    4.32092   4.34146   4.36395   4.36996   4.39768
 Alpha virt. eigenvalues --    4.42399   4.43291   4.44215   4.46868   4.49858
 Alpha virt. eigenvalues --    4.52917   4.55037   4.55303   4.60526   4.65128
 Alpha virt. eigenvalues --    4.67592   4.74657   4.76545   4.81394   4.88512
 Alpha virt. eigenvalues --    4.96903   4.98129   8.56432  84.20988
          Condensed to atoms (all electrons):
              1          2          3          4          5          6
     1  C   17.082718  -2.915871   1.113707   0.441395  -9.512900  -0.740783
     2  C   -2.915871   8.733681  -0.750227  -2.104395   2.638362   0.627461
     3  C    1.113707  -0.750227   9.778679  -0.355506  -6.122113  -1.853678
     4  C    0.441395  -2.104395  -0.355506  14.483141   0.180567  -3.926386
     5  C   -9.512900   2.638362  -6.122113   0.180567  24.640030   3.977740
     6  C   -0.740783   0.627461  -1.853678  -3.926386   3.977740  17.013992
     7  S    0.301715   0.114564  -0.950838  -3.412655  -1.278927  -0.176662
     8  C   -1.496920   0.794303   1.190753   2.251836  -2.876827  -4.431864
     9  C    2.167400  -1.277204   2.825485  -1.634084  -5.670033  -1.654484
    10  C    0.055476   0.200936   0.164420  -0.789054  -0.051306  -0.541597
    11  C    0.027357  -0.041691  -0.134874   1.133100   0.244397   0.075193
    12  C    0.056025   0.024449   0.165250  -1.145633  -0.279536   0.214057
    13  Se  -0.029798   0.046691  -0.016041   0.271573   0.151774  -0.131723
    14  C   -0.857401   0.239727  -0.128513  -0.024054   0.819822  -0.251536
    15  N    0.116069  -0.005388   0.009037   0.009171  -0.009673  -0.354990
    16  C    0.041011   0.017639   0.011936  -0.373735  -0.413881  -0.230861
    17  C   -0.234618  -0.065385   0.021251   0.523826   0.353842   0.707497
    18  C   -0.039299  -0.002361  -0.007359   0.014096   0.236014   0.074837
    19  N   -0.000479  -0.000111  -0.000031  -0.000343  -0.002299  -0.001325
    20  C   -0.000353  -0.000063  -0.000073  -0.000211   0.002568  -0.004241
    21  C    0.001868  -0.000005   0.000057  -0.001289  -0.003791  -0.012953
    22  S   -0.004348  -0.001112   0.000108   0.003276   0.010058  -0.028023
    23  C   -0.079363  -0.007478   0.065288   0.135210  -0.096393   0.272942
    24  N    0.016186   0.000058  -0.001565  -0.027935   0.003372  -0.278565
    25  S   -0.025870   0.001796   0.002704   0.001314  -0.060420  -0.173637
    26  N    0.004006   0.003494  -0.015971   0.051264  -0.079453  -0.129478
    27  C    0.089588  -0.131720   0.442823   0.584688  -0.335436  -1.831585
    28  H    0.568817  -0.060097   0.051891   0.076076  -0.294653  -0.075601
    29  H    0.504870  -0.034191   0.002774  -0.004934  -0.161992  -0.024244
    30  H   -0.155652   0.333522   0.021893   0.004850   0.094030   0.030329
    31  H    0.172439  -0.287602   0.223651   0.181431  -0.036448   0.075819
    32  H   -0.021677   0.016713   0.023854  -0.123225  -0.027483  -0.006769
    33  H   -0.000762   0.002790   0.005163   0.017082   0.000559  -0.000044
    34  H    0.003142  -0.001499   0.011298  -0.074630  -0.019799   0.010890
    35  H    0.001613  -0.001993   0.001291  -0.011877  -0.024639   0.010208
    36  H    0.000067   0.000001  -0.000000  -0.000002  -0.000070   0.000124
    37  H    0.000040  -0.000002   0.000002  -0.000031  -0.000066  -0.000591
              7          8          9         10         11         12
     1  C    0.301715  -1.496920   2.167400   0.055476   0.027357   0.056025
     2  C    0.114564   0.794303  -1.277204   0.200936  -0.041691   0.024449
     3  C   -0.950838   1.190753   2.825485   0.164420  -0.134874   0.165250
     4  C   -3.412655   2.251836  -1.634084  -0.789054   1.133100  -1.145633
     5  C   -1.278927  -2.876827  -5.670033  -0.051306   0.244397  -0.279536
     6  C   -0.176662  -4.431864  -1.654484  -0.541597   0.075193   0.214057
     7  S   29.689821  -3.878984  -1.523493   0.008673  -1.368450   0.556246
     8  C   -3.878984  20.602116  -5.295244  -1.372898   1.234505  -1.097110
     9  C   -1.523493  -5.295244  21.849930  -4.871115   2.983391  -1.722854
    10  C    0.008673  -1.372898  -4.871115  14.689755  -5.558848   2.961324
    11  C   -1.368450   1.234505   2.983391  -5.558848  10.950479  -2.829158
    12  C    0.556246  -1.097110  -1.722854   2.961324  -2.829158   8.138968
    13  Se  -0.188062  -0.319313  -0.498337   0.832444  -0.138073   0.032480
    14  C   -0.997168   1.296174  -0.949798   0.016600   0.035766  -0.061696
    15  N    0.288457  -0.111280   0.034466  -0.009093   0.000386   0.001008
    16  C    0.221777   0.129891  -0.129615  -0.005226   0.001309  -0.001856
    17  C   -0.306687  -0.100024   0.183272  -0.004921  -0.002525   0.002675
    18  C   -0.111619  -0.114250   0.013177  -0.000747  -0.000158   0.000242
    19  N   -0.003052  -0.000123  -0.000047  -0.000012  -0.000000  -0.000000
    20  C   -0.002502  -0.001230   0.000015   0.000003   0.000001  -0.000001
    21  C   -0.001895   0.000126  -0.000029  -0.000067  -0.000001   0.000000
    22  S   -0.089260  -0.009582   0.000882  -0.000886  -0.000001  -0.000014
    23  C   -0.229740  -0.345772   0.230356  -0.020575   0.000571   0.004596
    24  N   -0.099726   0.083189  -0.024755  -0.000915   0.000368  -0.000671
    25  S    0.060706   0.102253  -0.075647  -0.010756   0.004614  -0.004379
    26  N    0.286966   0.165342  -0.066146   0.010953   0.005248  -0.005203
    27  C   -1.024677   0.160748   0.613767  -0.111709  -0.025044   0.011010
    28  H   -0.049048   0.024580   0.016152  -0.004611   0.002615  -0.002483
    29  H   -0.052324   0.025924   0.015975   0.009052  -0.001906   0.003120
    30  H    0.008721  -0.018906  -0.019718  -0.001832   0.000023  -0.004183
    31  H   -0.015724  -0.084540   0.072126  -0.079198   0.015529   0.016463
    32  H    0.070736  -0.061040  -0.473130   1.045669  -0.573259   0.249954
    33  H   -0.005998   0.057160   0.204097  -0.478717   0.731492  -0.284106
    34  H    0.041361  -0.033577  -0.221206   0.302414  -0.530627   0.838263
    35  H    0.010663   0.007614  -0.002496   0.000280   0.000040  -0.000053
    36  H   -0.000006   0.000003  -0.000000   0.000000   0.000000  -0.000000
    37  H    0.000101   0.000017   0.000000  -0.000002   0.000000   0.000000
             13         14         15         16         17         18
     1  C   -0.029798  -0.857401   0.116069   0.041011  -0.234618  -0.039299
     2  C    0.046691   0.239727  -0.005388   0.017639  -0.065385  -0.002361
     3  C   -0.016041  -0.128513   0.009037   0.011936   0.021251  -0.007359
     4  C    0.271573  -0.024054   0.009171  -0.373735   0.523826   0.014096
     5  C    0.151774   0.819822  -0.009673  -0.413881   0.353842   0.236014
     6  C   -0.131723  -0.251536  -0.354990  -0.230861   0.707497   0.074837
     7  S   -0.188062  -0.997168   0.288457   0.221777  -0.306687  -0.111619
     8  C   -0.319313   1.296174  -0.111280   0.129891  -0.100024  -0.114250
     9  C   -0.498337  -0.949798   0.034466  -0.129615   0.183272   0.013177
    10  C    0.832444   0.016600  -0.009093  -0.005226  -0.004921  -0.000747
    11  C   -0.138073   0.035766   0.000386   0.001309  -0.002525  -0.000158
    12  C    0.032480  -0.061696   0.001008  -0.001856   0.002675   0.000242
    13  Se  34.117792   0.024385  -0.001031   0.000328  -0.000688  -0.000527
    14  C    0.024385  10.423848   0.206949  -0.506409  -0.665097   0.877799
    15  N   -0.001031   0.206949   7.290532  -0.089149   0.006618  -0.015604
    16  C    0.000328  -0.506409  -0.089149  13.455897  -8.436681  -3.276079
    17  C   -0.000688  -0.665097   0.006618  -8.436681  18.778667   3.652494
    18  C   -0.000527   0.877799  -0.015604  -3.276079   3.652494  11.926569
    19  N    0.000001   0.004857   0.008045   0.096781  -0.364192   0.248127
    20  C   -0.000007   0.020887  -0.003003  -0.201146   0.001750  -0.401852
    21  C    0.000011  -0.084638   0.017203   0.281251  -0.501969  -1.583045
    22  S    0.000011  -0.240568   0.023094  -0.118949  -1.678230  -2.047654
    23  C   -0.002069  -1.567886  -0.063923   2.418280  -2.032859  -1.411887
    24  N   -0.000083   0.209880  -0.004241   0.225495  -0.610323  -0.293333
    25  S   -0.001656  -0.159619   0.014405   0.478374  -0.826123  -0.265456
    26  N   -0.001100  -0.343921   0.016005  -0.205554   0.420437   0.061883
    27  C   -0.013390  -1.119263  -0.086267   1.417447  -1.779150  -0.784902
    28  H    0.003221   0.040046  -0.008292  -0.017422   0.004000  -0.000502
    29  H   -0.002134   0.015708  -0.005938  -0.013599   0.005993   0.001289
    30  H    0.001107  -0.006023  -0.001358   0.000693  -0.001057  -0.000187
    31  H   -0.046749  -0.016757   0.001830   0.001779  -0.001089   0.000094
    32  H    0.067786  -0.003439  -0.001221  -0.002074   0.002035   0.000265
    33  H    0.038195   0.001098   0.000016   0.000050  -0.000024  -0.000005
    34  H   -0.242088  -0.002188   0.000049  -0.000014   0.000058   0.000004
    35  H    0.000026  -0.059648  -0.127434   0.765345  -0.411825  -0.169536
    36  H   -0.000000   0.001289  -0.000035  -0.007627   0.006582   0.007256
    37  H    0.000000  -0.000738   0.000330   0.015570   0.034940   0.024991
             19         20         21         22         23         24
     1  C   -0.000479  -0.000353   0.001868  -0.004348  -0.079363   0.016186
     2  C   -0.000111  -0.000063  -0.000005  -0.001112  -0.007478   0.000058
     3  C   -0.000031  -0.000073   0.000057   0.000108   0.065288  -0.001565
     4  C   -0.000343  -0.000211  -0.001289   0.003276   0.135210  -0.027935
     5  C   -0.002299   0.002568  -0.003791   0.010058  -0.096393   0.003372
     6  C   -0.001325  -0.004241  -0.012953  -0.028023   0.272942  -0.278565
     7  S   -0.003052  -0.002502  -0.001895  -0.089260  -0.229740  -0.099726
     8  C   -0.000123  -0.001230   0.000126  -0.009582  -0.345772   0.083189
     9  C   -0.000047   0.000015  -0.000029   0.000882   0.230356  -0.024755
    10  C   -0.000012   0.000003  -0.000067  -0.000886  -0.020575  -0.000915
    11  C   -0.000000   0.000001  -0.000001  -0.000001   0.000571   0.000368
    12  C   -0.000000  -0.000001   0.000000  -0.000014   0.004596  -0.000671
    13  Se   0.000001  -0.000007   0.000011   0.000011  -0.002069  -0.000083
    14  C    0.004857   0.020887  -0.084638  -0.240568  -1.567886   0.209880
    15  N    0.008045  -0.003003   0.017203   0.023094  -0.063923  -0.004241
    16  C    0.096781  -0.201146   0.281251  -0.118949   2.418280   0.225495
    17  C   -0.364192   0.001750  -0.501969  -1.678230  -2.032859  -0.610323
    18  C    0.248127  -0.401852  -1.583045  -2.047654  -1.411887  -0.293333
    19  N    7.201576   0.007017   0.122303  -0.025381   0.026627   0.009407
    20  C    0.007017   6.431835  -0.507036   0.814555  -0.464308   0.018773
    21  C    0.122303  -0.507036   8.419848  -0.927594   0.420168   0.052021
    22  S   -0.025381   0.814555  -0.927594  21.161192  -1.090250   0.275676
    23  C    0.026627  -0.464308   0.420168  -1.090250   9.118403   0.042873
    24  N    0.009407   0.018773   0.052021   0.275676   0.042873   8.636146
    25  S    0.005864   0.007659   0.006918   0.094810  -0.552283  -0.175083
    26  N   -0.002366  -0.026806  -0.017423  -0.192797   0.195662  -1.038707
    27  C   -0.014899  -0.049390   0.015748  -0.274381   1.020514   0.220595
    28  H   -0.000036   0.000022  -0.000147  -0.000079   0.000420  -0.000380
    29  H    0.000002  -0.000034   0.000004   0.000221  -0.001697  -0.000216
    30  H   -0.000000  -0.000000  -0.000000  -0.000010  -0.000034   0.000044
    31  H   -0.000000  -0.000001   0.000005  -0.000002   0.000167   0.000014
    32  H   -0.000001  -0.000001  -0.000006  -0.000026   0.000788  -0.000473
    33  H    0.000000  -0.000000   0.000000   0.000000  -0.000009   0.000004
    34  H    0.000000  -0.000000   0.000000  -0.000001   0.000136  -0.000022
    35  H   -0.001310  -0.032600   0.033565  -0.041664   0.123617  -0.001157
    36  H   -0.090676   0.568093  -0.380029   0.135946  -0.012817   0.000125
    37  H    0.015108  -0.114532   0.434793  -0.142623   0.014073   0.001560
             25         26         27         28         29         30
     1  C   -0.025870   0.004006   0.089588   0.568817   0.504870  -0.155652
     2  C    0.001796   0.003494  -0.131720  -0.060097  -0.034191   0.333522
     3  C    0.002704  -0.015971   0.442823   0.051891   0.002774   0.021893
     4  C    0.001314   0.051264   0.584688   0.076076  -0.004934   0.004850
     5  C   -0.060420  -0.079453  -0.335436  -0.294653  -0.161992   0.094030
     6  C   -0.173637  -0.129478  -1.831585  -0.075601  -0.024244   0.030329
     7  S    0.060706   0.286966  -1.024677  -0.049048  -0.052324   0.008721
     8  C    0.102253   0.165342   0.160748   0.024580   0.025924  -0.018906
     9  C   -0.075647  -0.066146   0.613767   0.016152   0.015975  -0.019718
    10  C   -0.010756   0.010953  -0.111709  -0.004611   0.009052  -0.001832
    11  C    0.004614   0.005248  -0.025044   0.002615  -0.001906   0.000023
    12  C   -0.004379  -0.005203   0.011010  -0.002483   0.003120  -0.004183
    13  Se  -0.001656  -0.001100  -0.013390   0.003221  -0.002134   0.001107
    14  C   -0.159619  -0.343921  -1.119263   0.040046   0.015708  -0.006023
    15  N    0.014405   0.016005  -0.086267  -0.008292  -0.005938  -0.001358
    16  C    0.478374  -0.205554   1.417447  -0.017422  -0.013599   0.000693
    17  C   -0.826123   0.420437  -1.779150   0.004000   0.005993  -0.001057
    18  C   -0.265456   0.061883  -0.784902  -0.000502   0.001289  -0.000187
    19  N    0.005864  -0.002366  -0.014899  -0.000036   0.000002  -0.000000
    20  C    0.007659  -0.026806  -0.049390   0.000022  -0.000034  -0.000000
    21  C    0.006918  -0.017423   0.015748  -0.000147   0.000004  -0.000000
    22  S    0.094810  -0.192797  -0.274381  -0.000079   0.000221  -0.000010
    23  C   -0.552283   0.195662   1.020514   0.000420  -0.001697  -0.000034
    24  N   -0.175083  -1.038707   0.220595  -0.000380  -0.000216   0.000044
    25  S   16.985967  -0.424949  -0.162125  -0.000189  -0.000545   0.000015
    26  N   -0.424949   8.677820  -0.056745   0.000392  -0.000339   0.000033
    27  C   -0.162125  -0.056745   9.228477   0.008438  -0.002934   0.000716
    28  H   -0.000189   0.000392   0.008438   0.577926  -0.041153   0.002214
    29  H   -0.000545  -0.000339  -0.002934  -0.041153   0.576294  -0.001901
    30  H    0.000015   0.000033   0.000716   0.002214  -0.001901   0.614370
    31  H    0.000196  -0.000170   0.005183  -0.006260   0.000819  -0.010208
    32  H   -0.002811  -0.000136  -0.004274  -0.000530   0.000803   0.000016
    33  H    0.000101  -0.000000   0.000224   0.000022  -0.000024   0.000005
    34  H   -0.000106  -0.000193   0.000723  -0.000146   0.000152  -0.000314
    35  H    0.006929   0.001823   0.069614  -0.000514  -0.000760   0.000007
    36  H   -0.000113  -0.000432  -0.001441   0.000003  -0.000000   0.000000
    37  H   -0.000575  -0.000558   0.001891  -0.000004   0.000000  -0.000000
             31         32         33         34         35         36
     1  C    0.172439  -0.021677  -0.000762   0.003142   0.001613   0.000067
     2  C   -0.287602   0.016713   0.002790  -0.001499  -0.001993   0.000001
     3  C    0.223651   0.023854   0.005163   0.011298   0.001291  -0.000000
     4  C    0.181431  -0.123225   0.017082  -0.074630  -0.011877  -0.000002
     5  C   -0.036448  -0.027483   0.000559  -0.019799  -0.024639  -0.000070
     6  C    0.075819  -0.006769  -0.000044   0.010890   0.010208   0.000124
     7  S   -0.015724   0.070736  -0.005998   0.041361   0.010663  -0.000006
     8  C   -0.084540  -0.061040   0.057160  -0.033577   0.007614   0.000003
     9  C    0.072126  -0.473130   0.204097  -0.221206  -0.002496  -0.000000
    10  C   -0.079198   1.045669  -0.478717   0.302414   0.000280   0.000000
    11  C    0.015529  -0.573259   0.731492  -0.530627   0.000040   0.000000
    12  C    0.016463   0.249954  -0.284106   0.838263  -0.000053  -0.000000
    13  Se  -0.046749   0.067786   0.038195  -0.242088   0.000026  -0.000000
    14  C   -0.016757  -0.003439   0.001098  -0.002188  -0.059648   0.001289
    15  N    0.001830  -0.001221   0.000016   0.000049  -0.127434  -0.000035
    16  C    0.001779  -0.002074   0.000050  -0.000014   0.765345  -0.007627
    17  C   -0.001089   0.002035  -0.000024   0.000058  -0.411825   0.006582
    18  C    0.000094   0.000265  -0.000005   0.000004  -0.169536   0.007256
    19  N   -0.000000  -0.000001   0.000000   0.000000  -0.001310  -0.090676
    20  C   -0.000001  -0.000001  -0.000000  -0.000000  -0.032600   0.568093
    21  C    0.000005  -0.000006   0.000000   0.000000   0.033565  -0.380029
    22  S   -0.000002  -0.000026   0.000000  -0.000001  -0.041664   0.135946
    23  C    0.000167   0.000788  -0.000009   0.000136   0.123617  -0.012817
    24  N    0.000014  -0.000473   0.000004  -0.000022  -0.001157   0.000125
    25  S    0.000196  -0.002811   0.000101  -0.000106   0.006929  -0.000113
    26  N   -0.000170  -0.000136  -0.000000  -0.000193   0.001823  -0.000432
    27  C    0.005183  -0.004274   0.000224   0.000723   0.069614  -0.001441
    28  H   -0.006260  -0.000530   0.000022  -0.000146  -0.000514   0.000003
    29  H    0.000819   0.000803  -0.000024   0.000152  -0.000760  -0.000000
    30  H   -0.010208   0.000016   0.000005  -0.000314   0.000007   0.000000
    31  H    0.750286  -0.005043   0.000569   0.004720   0.000017  -0.000000
    32  H   -0.005043   0.738893  -0.034381   0.009485  -0.000036   0.000000
    33  H    0.000569  -0.034381   0.671158  -0.041245   0.000001  -0.000000
    34  H    0.004720   0.009485  -0.041245   0.799875  -0.000001  -0.000000
    35  H    0.000017  -0.000036   0.000001  -0.000001   0.631138  -0.003505
    36  H   -0.000000   0.000000  -0.000000  -0.000000  -0.003505   0.673024
    37  H    0.000000  -0.000000   0.000000   0.000000   0.001088  -0.026150
             37
     1  C    0.000040
     2  C   -0.000002
     3  C    0.000002
     4  C   -0.000031
     5  C   -0.000066
     6  C   -0.000591
     7  S    0.000101
     8  C    0.000017
     9  C    0.000000
    10  C   -0.000002
    11  C    0.000000
    12  C    0.000000
    13  Se   0.000000
    14  C   -0.000738
    15  N    0.000330
    16  C    0.015570
    17  C    0.034940
    18  C    0.024991
    19  N    0.015108
    20  C   -0.114532
    21  C    0.434793
    22  S   -0.142623
    23  C    0.014073
    24  N    0.001560
    25  S   -0.000575
    26  N   -0.000558
    27  C    0.001891
    28  H   -0.000004
    29  H    0.000000
    30  H   -0.000000
    31  H    0.000000
    32  H   -0.000000
    33  H    0.000000
    34  H    0.000000
    35  H    0.001088
    36  H   -0.026150
    37  H    0.549486
 Mulliken atomic charges:
              1
     1  C   -0.649412
     2  C   -0.107794
     3  C    0.203474
     4  C   -0.353918
     5  C    0.005002
     6  C   -0.229467
     7  S    0.106993
     8  C   -0.477050
     9  C    0.898945
    10  C   -0.383917
    11  C   -0.241764
    12  C    0.162804
    13  Se   0.045044
    14  C   -0.188477
    15  N   -0.145749
    16  C    0.449025
    17  C   -0.682470
    18  C   -0.612777
    19  N   -0.239031
    20  C   -0.063787
    21  C    0.216030
    22  S    0.393607
    23  C   -0.111350
    24  N   -0.237636
    25  S    1.147714
    26  N   -0.292882
    27  C   -0.082864
    28  H    0.185312
    29  H    0.187866
    30  H    0.108794
    31  H    0.066653
    32  H    0.114037
    33  H    0.115526
    34  H    0.145084
    35  H    0.226166
    36  H    0.130389
    37  H    0.191878
 Sum of Mulliken atomic charges =  -0.00000
[...]
 3478,-0.00020221,-0.00001638,0.00002474,-0.00014912,-0.00013196,-0.000
 00847,0.00004543,-0.00007020,-0.00002502,0.00002125,0.00008318,-0.0000
 1601,-0.00001751,0.00003042,0.00002725,0.00048997,-0.00004101,0.000063
 25,-0.00035049,-0.00281930,0.00013386,0.00796258,-0.00549169,-0.001206
 19,-0.22542247,0.13755576,0.03454688,-0.01738196,0.01853465,0.00431576
 ,-0.00296821,-0.00034055,0.00118740,-0.00002888,-0.00008739,0.00000164
 ,-0.00001040,0.00005152,0.00000369,0.00001599,-0.00002692,-0.00000131,
 -0.00000055,0.00000357,-0.00000100,-0.00000296,-0.00002758,-0.00000891
 ,-0.00000047,0.00000069,-0.00000114,0.00000912,0.00000804,-0.00000015,
 -0.00000957,0.00002369,0.00000184,0.00000551,-0.00001979,-0.00000138,-
 0.00001320,0.00001162,0.00001085,-0.00000007,0.00002458,-0.00000326,0.
 00001122,-0.00002156,0.00000199,-0.00000081,0.00002928,-0.00000371,0.0
 0002105,-0.00001253,-0.00000193,0.00001827,0.00000666,0.00000255,0.000
 01679,0.00000830,-0.00000767,-0.00000412,0.00000139,0.00000332,0.00012
 548,0.00002760,0.00000365,0.00022127,0.00070731,-0.00024064,0.23652992
 ,-0.00001465,-0.00003146,-0.00000661,0.00010079,0.00005366,0.00000182,
 -0.00020469,-0.00005657,0.00002012,-0.00014604,-0.00058038,-0.00001288
 ,0.00015111,0.00012931,-0.00000382,-0.00010058,-0.00034137,0.00000280,
 0.00007527,0.00020496,-0.00001030,0.00144452,0.00028473,-0.00023627,-0
 .00115380,-0.00549528,-0.00040335,0.02371460,-0.01010084,-0.00390651,0
 .13588267,-0.16748592,-0.02706524,-0.00919683,0.00905108,0.00143192,-0
 .00340408,0.00113295,0.00007663,0.00009519,0.00027046,0.00000446,0.000
 06629,-0.00016172,-0.00001970,0.00000348,0.00007706,0.00000176,-0.0000
 2398,-0.00002127,0.00000306,0.00001590,0.00004893,0.00000970,0.0000060
 2,0.00000143,0.00000036,-0.00002690,-0.00001267,0.00000230,0.00001726,
 -0.00004262,-0.00000447,-0.00001416,0.00002496,0.00000351,0.00000393,-
 0.00003092,-0.00001062,0.00001382,-0.00003753,-0.00000087,-0.00006350,
 0.00000728,0.00000611,0.00004018,-0.00000006,-0.00000042,-0.00006188,0
 .00004078,0.00000761,0.00000373,-0.00000852,-0.00000469,0.00000514,-0.
 00000976,0.00000296,0.00000630,-0.00000309,-0.00000324,0.00009849,0.00
 004065,-0.00001914,-0.00045822,0.00085368,0.00026254,-0.14764404,0.171
 86346,0.00001334,-0.00001788,0.00006983,-0.00002164,0.00001588,-0.0000
 8871,0.00000847,-0.00000180,-0.00004182,-0.00001147,-0.00001577,-0.000
 15348,-0.00000940,0.00002911,-0.00012286,-0.00001765,-0.00002875,-0.00
 008943,0.00002362,0.00000838,0.00011783,0.00017496,-0.00005138,0.00100
 538,0.00022585,-0.00016006,0.00202469,0.00086755,-0.00013054,0.0016801
 3,0.03443591,-0.02727183,-0.04094381,0.00235234,-0.00218003,0.00529440
 ,0.00097509,-0.00032431,0.00621631,0.00001410,0.00002228,0.00002323,0.
 00000336,-0.00001300,-0.00001267,-0.00000201,0.00000600,0.00000250,-0.
 00000153,0.00000042,-0.00000684,0.00000241,0.00000383,0.00000205,0.000
 00017,0.00000155,-0.00000182,-0.00000555,-0.00000165,0.00000135,0.0000
 0125,-0.00000562,-0.00000380,-0.00000369,0.00000064,0.00000265,-0.0000
 0041,-0.00000621,0.00002320,0.00000362,-0.00000316,-0.00001175,-0.0000
 0497,0.00000067,0.00001043,0.00000219,-0.00000303,-0.00000951,-0.00001
 020,0.00000736,-0.00001294,-0.00000465,-0.00000068,-0.00000432,0.00000
 019,-0.00000109,-0.00000361,0.00000171,-0.00000096,0.00001126,0.000010
 14,-0.00001018,0.00014680,-0.00032005,0.00010983,-0.00195127,-0.038026
 78,0.02961851,0.03136646,-0.00001703,0.00003199,0.00001394,0.00009413,
 0.00004052,-0.00001476,-0.00013738,-0.00009622,0.00002358,0.00001636,-
 0.00012554,-0.00004221,-0.00003226,-0.00003354,0.00001432,0.00021390,0
 .00004210,-0.00003109,-0.00017720,0.00034242,0.00010959,0.00135408,0.0
 0022406,0.00005022,-0.00447262,0.00358441,0.00078685,-0.00478465,-0.00
 127041,0.00125697,0.00097286,-0.02606765,-0.00154717,-0.08172824,-0.09
 477619,0.00092827,0.00472990,0.01608388,0.00033641,-0.00004655,-0.0000
 3863,-0.00002913,0.00000961,0.00002826,-0.00000091,0.00000079,-0.00001
 219,0.00000417,0.00000678,0.00000569,-0.00000003,-0.00001828,-0.000011
 27,0.00000017,0.00000073,0.00000483,0.00000119,0.00001020,-0.00000140,
 -0.00000097,-0.00000456,0.00000480,0.00000129,0.00000136,-0.00000457,0
 .00000054,0.00000718,-0.00000666,-0.00000196,0.00000585,0.00001860,-0.
 00000194,-0.00001061,0.00000210,0.00000202,0.00002386,0.00001810,0.000
 00543,0.00001257,0.00000167,0.00000137,0.00000767,0.00000669,-0.000001
 71,0.00000646,0.00000301,-0.00000058,-0.00001261,-0.00000152,-0.000002
 06,0.00018258,0.00009136,-0.00002261,0.00029375,-0.00140274,-0.0000455
 2,0.00098215,0.00076866,-0.00068056,0.08250781,0.00005533,-0.00008201,
 -0.00001920,-0.00009122,0.00006273,0.00003195,0.00012849,-0.00001126,-
 0.00003941,0.00023453,-0.00014045,-0.00002566,0.00000849,0.00012585,-0
 .00000426,-0.00007636,-0.00005700,0.00002594,0.00011400,-0.00003866,-0
 .00006156,-0.00050009,-0.00001428,-0.00004570,0.00210773,-0.00057417,-
 0.00033575,-0.00185231,0.00101450,-0.00003234,0.00296377,-0.00126733,-
 0.00071649,-0.10028202,-0.32931822,-0.00852589,-0.00483949,-0.00834275
 ,0.00014632,0.00003482,-0.00003675,0.00001143,-0.00002304,0.00000790,0
 .00000187,-0.00004084,-0.00002413,-0.00000878,0.00003154,0.00001433,0.
 00000134,-0.00002732,-0.00000175,0.00002587,-0.00000124,0.00001063,0.0
 0000184,0.00000362,-0.00001025,-0.00000133,-0.00000281,-0.00001101,0.,
 -0.00000930,0.00000013,0.00000327,-0.00000296,-0.00001394,-0.00001854,
 0.00001290,0.00000073,0.00000192,0.00001729,0.00000010,0.00000194,-0.0
 0003399,-0.00001915,0.00000516,-0.00001298,0.00003156,-0.00001021,-0.0
 0000688,-0.00000613,-0.00000257,-0.00000420,-0.00000482,0.00000206,-0.
 00000396,0.00000095,-0.00000134,-0.00010342,-0.00005555,0.00001589,0.0
 0005326,-0.00010662,-0.00006011,-0.00039783,0.00033664,0.00040165,0.10
 253628,0.33851021,0.00001677,-0.00001686,0.00007152,-0.00002687,0.0000
 0626,-0.00005757,0.00004288,0.00000083,0.00011354,-0.00001156,0.000018
 68,-0.00023353,0.00001740,0.00000853,0.00010406,-0.00004096,-0.0000072
 3,-0.00007214,0.00009560,-0.00007932,0.00047900,0.00000229,-0.00014305
 ,0.00160451,0.00068591,-0.00048116,-0.00042608,0.00120064,-0.00015674,
 0.00532896,0.00050521,0.00307669,0.00338155,0.00053681,-0.00924781,-0.
 02396524,-0.00113830,-0.00258208,-0.00144630,-0.00002394,0.00001893,-0
 .00024592,-0.00000424,-0.00000170,-0.00000834,0.00000317,-0.00000475,0
 .00005353,0.00000171,0.00000113,-0.00000352,-0.00000610,0.00000415,-0.
 00004336,0.00000043,0.00000029,0.00000476,-0.00000090,-0.00000100,0.00
 000345,0.00000044,-0.00000176,0.00000150,-0.00000082,-0.00000019,0.000
 00446,0.00000141,-0.00000251,0.00002351,-0.00000192,-0.00000012,-0.000
 02332,0.00000225,-0.00000045,-0.00000162,0.00000020,-0.00000704,0.0000
 4480,0.00000242,0.00000020,0.00004084,0.00000454,0.00001270,-0.0000029
 9,-0.00000798,-0.00001421,-0.00000302,-0.00000174,0.00000202,-0.000021
 26,-0.00003682,-0.00001255,-0.00004134,0.00005668,0.00012590,0.0006998
 7,-0.00076238,0.00025257,-0.00454379,-0.00111396,0.00923076,0.01917685
 ,0.00005108,0.00005164,0.00001050,-0.00007090,-0.00004992,0.00000063,0
 .00000729,0.00006474,0.00000546,-0.00007290,0.00010359,0.00002166,0.00
 000612,-0.00009453,-0.00000112,0.00046196,0.00008012,0.00000091,-0.000
 08685,-0.00012418,-0.00000548,0.00002563,-0.00008166,-0.00001660,0.000
 02076,-0.00003223,0.00000617,0.00007025,0.00004595,-0.00001816,-0.0000
 1375,-0.00002545,0.00000323,0.00001381,0.00002061,-0.00000237,-0.00002
 037,-0.00001443,0.00000066,0.00152519,-0.00428086,0.00045894,0.0134069
 5,-0.01100247,-0.00264120,-0.20835462,0.14056609,0.03115831,-0.0173859
 5,0.02061487,0.00477443,-0.00122498,0.00190017,-0.00012479,0.00056535,
 0.00080396,0.00005680,0.00040331,-0.00088349,-0.00019254,0.00034156,0.
 00026310,-0.00004684,0.00038011,0.00019685,-0.00004967,-0.00375376,-0.
 00317760,0.00119308,-0.00081954,0.00119787,0.00031075,-0.00045512,0.00
 009043,-0.00010370,0.00024990,0.00020245,-0.00006238,-0.00021599,-0.00
 078450,-0.00007678,-0.00000752,-0.00005536,0.00007606,-0.00002075,-0.0
 0003904,-0.00008540,0.00000418,-0.00000375,0.00000031,-0.00000684,0.00
 000920,0.00000102,-0.00000310,-0.00000098,-0.00000084,-0.00000149,0.00
 000205,0.00000140,0.00000108,0.00000482,0.00000059,0.21485946,-0.00003
 349,-0.00005707,-0.00000787,-0.00007991,-0.00000893,0.00001134,0.00001
 275,0.00001312,-0.00000026,0.00003647,-0.00003787,-0.00001107,0.000105
 94,0.00001728,-0.00001645,0.00063253,-0.00031680,-0.00013358,-0.000207
 37,-0.00009805,0.00002144,0.00002767,-0.00009389,-0.00000413,-0.000013
 31,0.00001705,-0.00000014,-0.00001629,-0.00000368,0.00000568,-0.000033
 19,-0.00001279,0.00000257,0.00001756,-0.00003209,-0.00000416,0.0000024
 9,0.00000200,0.00000051,-0.00106495,-0.00291605,-0.00058693,0.01552597
 ,-0.03085556,-0.00412009,0.14093898,-0.18173275,-0.02795805,-0.0058943
 6,0.01029747,0.00091296,-0.00044490,-0.00040622,0.00025379,-0.00159069
 ,-0.00092920,0.00010180,-0.00022025,-0.00054855,0.00003168,0.00035620,
 -0.00017621,-0.00004687,0.00054559,0.00033636,-0.00004106,-0.00213884,
 -0.00093190,-0.00028793,-0.00041708,0.00051316,0.00002801,-0.00025047,
 0.00025155,0.00013623,0.00031904,0.00007902,-0.00000980,-0.00051454,-0
 .00025715,0.00007745,0.00000040,-0.00006630,0.00003468,-0.00001299,-0.
 00006479,-0.00003751,-0.00001037,-0.00001090,0.00000039,-0.00001184,-0
 .00000519,0.00000125,-0.00000853,0.00000519,0.00000172,-0.00000037,-0.
 00000139,-0.00000027,0.00000370,0.00000364,-0.00000021,-0.14559006,0.2
 0803405,0.00000060,-0.00001297,0.00010348,0.00000230,-0.00000272,-0.00
 001395,-0.00000261,0.00000133,-0.00001570,-0.00000171,-0.00000255,0.00
 003662,0.00001755,0.00000056,0.00003921,0.00003711,-0.00005234,0.00044
 229,-0.00001223,0.00000569,-0.00006818,-0.00002161,0.00000139,-0.00005
 267,0.00001175,-0.00000705,-0.00000651,0.00001098,0.00001140,-0.000004
 17,-0.00000726,-0.00000775,-0.00000437,0.00000645,-0.00000374,0.000000
 31,-0.00000362,0.00000220,0.00000288,0.00068563,-0.00016773,0.00727730
 ,-0.00077525,-0.00067348,-0.00091140,0.03118529,-0.02790783,-0.0507517
 2,0.00290802,-0.00253371,0.00764684,-0.00028122,-0.00005242,-0.0031372
 7,-0.00011106,-0.00021091,0.00056889,-0.00014605,0.00011933,-0.0005709
 0,-0.00004008,-0.00003417,-0.00015894,-0.00002328,0.00000506,-0.000096
 32,0.00126037,-0.00015022,0.00693370,0.00019514,-0.00018551,0.00088018
 ,-0.00012420,0.00009590,-0.00125402,-0.00005259,0.00000353,-0.00032918
 ,-0.00006062,0.00010941,-0.00039399,-0.00003346,-0.00001620,-0.0000325
 8,0.00002930,0.00002336,-0.00002232,-0.00000042,-0.00000109,0.00000063
 ,-0.00000008,-0.00000109,0.00000249,-0.00000083,0.00000071,-0.00000085
 ,0.00000076,-0.00000060,0.00000222,0.00000045,0.00000034,0.00000122,-0
 .03467547,0.03166842,0.03361296,-0.00002282,0.00001538,0.00000614,0.00
 000217,-0.00004451,-0.00000897,0.00000165,0.00003187,0.00000756,-0.000
 10457,0.00009450,0.00002243,0.00001709,-0.00005728,-0.00000177,0.00001
 342,0.00009202,-0.00000578,0.00000456,-0.00002880,0.00000799,-0.000048
 24,-0.00006691,-0.00000215,0.00004751,-0.00003751,0.00000952,0.0001066
 4,0.00006015,-0.00002954,0.00000969,-0.00002356,0.00000323,0.00000252,
 0.00001505,-0.00000250,-0.00003114,-0.00000097,0.00000045,-0.00004269,
 -0.00008089,0.00000302,0.00000786,0.00006921,-0.00001147,0.00001455,0.
 00002015,0.00000879,0.00084209,-0.00026430,0.00000276,-0.00052134,-0.0
 0449223,0.00026019,0.01209020,-0.01499833,-0.00298515,-0.15992424,0.14
 117723,0.02629353,-0.01011951,0.02276313,0.00346026,-0.00326657,0.0005
 4188,0.00136607,-0.00032111,-0.00019830,0.00001460,-0.00012037,0.00033
 569,0.00001662,0.00014793,-0.00013171,-0.00002604,0.00007160,0.0001249
 2,-0.00000468,0.00005497,-0.00001896,-0.00001321,0.00000315,-0.0000008
 8,0.00000408,0.00000090,0.00000108,-0.00000531,0.00000299,-0.00000339,
 0.00000113,-0.00000114,0.00000847,-0.00000036,0.00000298,0.00000056,-0
 .00000190,0.00000293,-0.00000249,0.00000051,-0.00000147,-0.00000345,0.
 00000006,0.00000165,-0.00001061,0.00001222,0.16065357,0.00002664,-0.00
 000815,-0.00000589,-0.00000960,0.00004983,0.00001068,0.00000500,-0.000
 03422,-0.00000949,0.00015285,-0.00014753,-0.00003253,0.00004745,0.0000
 7980,-0.00000460,-0.00008350,-0.00016846,0.00000961,-0.00002933,0.0000
 4980,-0.00000264,0.00000755,0.00005790,0.00000738,-0.00004242,0.000044
 37,-0.00001282,-0.00012423,-0.00006081,0.00003443,-0.00002037,0.000019
 59,-0.00000316,0.00000677,-0.00003472,0.00000046,0.00003485,0.00000796
 ,-0.00000035,0.00003535,0.00017001,0.00000522,0.00003887,-0.00019619,-
 0.00001084,0.00008315,0.00012396,-0.00000895,0.00105659,-0.00043465,-0
 .00023803,-0.00243271,-0.00411176,-0.00024319,0.01420973,-0.02441351,-
 0.00336450,0.13565950,-0.23525251,-0.03176997,-0.00301962,0.00516836,0
 .00045978,-0.00162272,0.00176444,-0.00015476,-0.00037895,-0.00027409,0
 .00003323,-0.00001256,0.00010353,0.00002306,0.00002776,-0.00000221,-0.
 00000651,0.00003346,-0.00007542,-0.00000472,0.00003663,-0.00001034,-0.
 00000553,-0.00000382,-0.00000070,-0.00000019,-0.00000261,-0.00000199,0
 .00000134,-0.00000777,0.00000097,-0.00000073,0.00000037,-0.00000976,0.
 00000072,-0.00000376,0.00000073,0.00000228,-0.00000237,0.00000043,-0.0
 0000082,0.00000177,0.00000266,-0.00000017,0.00004314,-0.00000413,-0.00
 001309,-0.14431898,0.25760656,0.00000709,-0.00000481,0.00000109,-0.000
 00169,0.00001355,-0.00000148,-0.00000025,-0.00000943,-0.00000501,0.000
 03237,-0.00002933,-0.00000854,-0.00000040,0.00001659,0.00000988,-0.000
 00623,-0.00002858,-0.00000559,-0.00000131,0.00000945,0.00000996,0.0000
 1349,0.00001544,0.00001039,-0.00001750,0.00001406,-0.00001902,-0.00003
 071,-0.00001962,0.00001696,-0.00000187,0.00000861,-0.00000675,-0.00000
 159,-0.00000499,0.00000341,0.00000908,0.00000059,-0.00000214,0.0000099
 4,0.00002203,0.00001419,-0.00001374,-0.00001464,-0.00011840,0.00000885
 ,0.00000233,0.00004724,0.00009720,-0.00006681,0.00099266,0.00041278,0.
 00001418,0.00393692,-0.00093071,0.00042598,-0.00262289,0.02590511,-0.0
 3248579,-0.03947392,0.00164916,-0.00288884,0.00379927,0.00121327,-0.00
 043501,0.00676964,-0.00000365,0.00001626,-0.00015058,-0.00000319,-0.00
 002607,-0.00013989,-0.00001981,0.00001845,-0.00001610,-0.00000560,-0.0
 0002276,0.00001419,-0.00001387,0.00000782,-0.00006779,-0.00000043,-0.0
 0000025,-0.00000066,-0.00000072,-0.00000013,0.00000109,-0.00000088,0.0
 0000066,0.00000203,0.00000081,-0.00000244,0.00000349,-0.00000057,-0.00
 000015,0.00000049,-0.00000067,0.00000045,0.00000062,0.00000039,0.00000
 053,0.00000059,0.00001574,-0.00000566,0.00009610,-0.02788358,0.0351554
 5,0.03009887,-0.00003866,0.00004819,0.00001142,0.00000561,-0.00009534,
 -0.00001883,-0.00000649,0.00007666,0.00001867,-0.00019606,0.00018296,0
 .00004177,0.00002644,-0.00011116,-0.00000792,-0.00001919,0.00015444,0.
 00001192,0.00000646,-0.00009408,0.00000338,-0.00011246,-0.00007211,0.0
 0000715,0.00015651,-0.00012657,0.00001087,0.00021794,0.00017054,-0.000
 05749,-0.00005470,-0.00010092,0.00001259,0.00006246,0.00002444,-0.0000
 1358,-0.00006808,-0.00000002,0.00000280,0.00000735,-0.00010901,-0.0000
 1674,0.00018029,0.00008890,-0.00008957,-0.00027885,0.00027707,0.000118
 99,0.00142991,-0.00034685,0.00009822,-0.00430954,0.00573816,0.00100563
 ,-0.00504950,-0.00251159,0.00139586,-0.00307181,-0.02378909,-0.0013271
 3,-0.16584991,-0.14995690,0.00816559,0.00895245,0.01118855,-0.00071906
 ,-0.00008232,-0.00013714,-0.00000596,-0.00013454,0.00010462,0.00002570
 ,0.00007046,-0.00005035,-0.00001547,0.00005172,0.00008753,-0.00000689,
 -0.00000973,-0.00003674,-0.00000528,0.00000153,-0.00000038,0.00000241,
 0.00000161,0.00000214,-0.00000237,0.00000972,-0.00000723,0.00000183,-0
 .00000417,0.00000703,-0.00000168,-0.00000469,0.00000010,-0.00000267,0.
 00000223,0.00000044,0.00000235,0.00000180,0.00000886,0.00000108,0.0001
 1882,0.00003907,0.00000974,0.00042260,0.00060790,-0.00043630,0.1675647
 7,-0.00005906,0.00007681,0.00001296,0.00000325,-0.00013866,-0.00002678
 ,-0.00000529,0.00011324,0.00002894,-0.00026706,0.00022403,0.00005218,0
 .00009038,-0.00013711,-0.00001448,-0.00011553,0.00015168,-0.00000160,0
 .00000449,-0.00012804,0.00000086,-0.00019418,-0.00007670,0.00001366,0.
 00025053,-0.00019752,0.00001582,0.00031272,0.00026400,-0.00008488,-0.0
 0010233,-0.00016513,0.00002269,0.00010743,0.00001485,-0.00002450,-0.00
 009713,0.00000858,0.00000616,-0.00001356,0.00011584,0.00001200,-0.0001
 4272,-0.00012873,0.00005362,0.00023707,-0.00026099,-0.00006598,-0.0011
 7539,0.00043610,0.00000740,0.00257030,-0.00345505,-0.00063823,0.001040
 72,0.00158866,-0.00052226,0.00366886,0.00599684,-0.00002609,-0.1521369
 0,-0.24646239,0.00395206,-0.01231446,-0.01102820,0.00100409,0.00013921
 ,0.00018173,0.00003150,0.00011744,-0.00026529,-0.00003697,-0.00010711,
 0.00008049,0.00001064,-0.00006465,-0.00013366,-0.00000701,0.00009489,-
 0.00005383,0.00000885,0.00000552,0.00000222,0.00000208,0.00000269,0.00
 000130,0.00000067,0.00001052,-0.00001250,0.00000275,-0.00000809,0.0000
 0720,-0.00000314,-0.00001005,0.00000354,-0.00000380,0.00000427,-0.0000
 0109,0.00000291,0.00000366,0.00001365,0.00000129,-0.00002113,-0.000002
 42,-0.00001145,-0.00056723,-0.00000975,0.00030288,0.15873789,0.2533763
 1,0.00000285,-0.00000268,0.00001641,-0.00000054,0.00000341,-0.00000027
 ,0.,-0.00000236,-0.00000786,0.00000844,-0.00000992,0.00001038,0.000002
 32,0.00000605,-0.00000791,0.00000824,-0.00001647,0.00009508,0.00000208
 ,0.00000372,0.00001937,0.00000350,0.00000217,0.00001106,-0.00000680,0.
 00000547,-0.00001214,-0.00000632,-0.00000635,0.00000994,0.00000131,0.0
 0000439,-0.00000974,-0.00000229,-0.00000279,0.00000410,0.00000162,0.00
 000124,-0.00000676,-0.00000886,0.00002436,-0.00005133,-0.00010871,0.00
 002103,-0.00056047,0.00010734,-0.00008470,0.00040045,0.00004470,-0.000
 09287,0.00239593,0.00080233,-0.00102254,0.00030151,0.00164665,-0.00005
 879,0.00685386,0.00060262,0.00353892,-0.00024062,0.00801249,0.00366966
 ,-0.02252645,-0.00236929,-0.00204412,-0.00246096,-0.00000429,0.0000429
 8,-0.00017651,0.00002905,-0.00003291,0.00001121,-0.00001463,0.00001049
 ,0.00001920,-0.00001267,-0.00001994,-0.00001119,-0.00000756,0.00000981
 ,-0.00011592,-0.00000768,-0.00000740,-0.00000540,0.00000654,0.00000845
 ,-0.00000575,-0.00000059,0.00000006,0.00000121,0.00000036,-0.00000032,
 0.00000266,0.00000050,0.00000022,0.00000194,0.00000037,-0.00000047,0.0
 0000108,-0.00000001,-0.00000092,0.00000081,0.00000669,-0.00001788,0.00
 017771,-0.00051873,0.00014983,-0.00319028,-0.00822100,-0.00407882,0.01
 905568\\0.00000387,-0.00000265,-0.00000947,-0.00000563,0.00000421,0.00
 000708,0.00000900,0.00000085,-0.00001456,-0.00001049,-0.00000118,0.000
 00150,-0.00000436,0.00000216,0.00000942,0.00001506,-0.00000910,-0.0000
 0539,-0.00003922,-0.00000757,0.00000556,0.00003308,0.00001090,0.000015
 03,-0.00000587,-0.00000123,-0.00002395,0.00000683,0.00000106,-0.000000
 33,0.00000283,0.00000267,0.00000609,0.00001337,-0.00001730,-0.00000822
 ,-0.00001532,0.00002150,0.00000731,-0.00000157,-0.00000245,-0.00000261
 ,-0.00000107,0.00000100,-0.00000602,0.00000048,-0.00000190,0.00000233,
 0.00000095,-0.00000010,0.00000239,-0.00005398,-0.00002129,0.00000408,0
 .00000397,-0.00000754,-0.00000212,-0.00000063,0.00000426,0.00000165,0.
 00001634,-0.00001219,-0.00000411,0.00003607,0.00003613,-0.00000158,-0.
 00000492,0.00000861,-0.00000383,0.00001822,-0.00001503,-0.00000188,-0.
 00002165,0.00001273,0.00000540,0.00001782,-0.00000019,-0.00000731,-0.0
 0000967,-0.00000513,0.00000699,-0.00000263,0.00000096,0.00000252,0.000
 00312,-0.00000075,0.00000243,-0.00000026,0.00000011,-0.00000151,-0.000
 00040,-0.00000129,0.00000823,-0.00000233,-0.00000102,0.00000242,-0.000
 00222,0.00000055,-0.00000095,-0.00000233,0.00000055,0.00000235,0.00000
 081,-0.00000030,0.00000131,0.00000183,-0.00000086,-0.00000058,0.000000
 92,0.00000081,0.00000032\\\@


 LEARN FROM YESTERDAY,
 LIVE FOR TODAY,
 LOOK TO TOMORROW,
 REST THIS AFTERNOON.

           -- SNOOPY
 Job cpu time:  0 days 13 hours 17 minutes 22.7 seconds.
 File lengths (MBytes):  RWF=   1512 Int=      0 D2E=      0 Chk=     27 Scr=      1
 Normal termination of Gaussian 09 at Mon Dec 30 02:26:48 2013.
