 Entering Gaussian System, Link 0=g09
 Initial command:
 /opt/gaussian/g09/l1.exe /panfs/panfs.cluster/home/shuo/Gau-24972.inp -scrdir=/panfs/panfs.cluster/home/shuo/
 Default is to use a total of  12 processors:
                               12 via shared-memory
                                1 via Linda
 Entering Link 1 = /opt/gaussian/g09/l1.exe PID=     24973.
  
 Copyright (c) 1988,1990,1992,1993,1995,1998,2003,2009,2011,
            Gaussian, Inc.  All Rights Reserved.
  
 This is part of the Gaussian(R) 09 program.  It is based on
 the Gaussian(R) 03 system (copyright 2003, Gaussian, Inc.),
 the Gaussian(R) 98 system (copyright 1998, Gaussian, Inc.),
 the Gaussian(R) 94 system (copyright 1995, Gaussian, Inc.),
 the Gaussian 92(TM) system (copyright 1992, Gaussian, Inc.),
 the Gaussian 90(TM) system (copyright 1990, Gaussian, Inc.),
 the Gaussian 88(TM) system (copyright 1988, Gaussian, Inc.),
 the Gaussian 86(TM) system (copyright 1986, Carnegie Mellon
 University), and the Gaussian 82(TM) system (copyright 1983,
 Carnegie Mellon University). Gaussian is a federally registered
 trademark of Gaussian, Inc.
  
 This software contains proprietary and confidential information,
 including trade secrets, belonging to Gaussian, Inc.
  
 This software is provided under written license and may be
 used, copied, transmitted, or stored only in accord with that
 written license.
  
 The following legend is applicable only to US Government
 contracts under FAR:
  
                    RESTRICTED RIGHTS LEGEND
  
 Use, reproduction and disclosure by the US Government is
 subject to restrictions as set forth in subparagraphs (a)
 and (c) of the Commercial Computer Software - Restricted
 Rights clause in FAR 52.227-19.
  
 Gaussian, Inc.
 340 Quinnipiac St., Bldg. 40, Wallingford CT 06492
  
  
 ---------------------------------------------------------------
 Warning -- This program may not be used in any manner that
 competes with the business of Gaussian, Inc. or will provide
 assistance to any competitor of Gaussian, Inc.  The licensee
 of this program is prohibited from giving any competitor of
 Gaussian, Inc. access to this program.  By using this program,
 the user acknowledges that Gaussian, Inc. is engaged in the
 business of creating and licensing software in the field of
 computational chemistry and represents and warrants to the
 licensee that it is not a competitor of Gaussian, Inc. and that
 it will not use this program in any manner prohibited above.
 ---------------------------------------------------------------
  

 Cite this work as:
 Gaussian 09, Revision C.01,
 M. J. Frisch, G. W. Trucks, H. B. Schlegel, G. E. Scuseria, 
 M. A. Robb, J. R. Cheeseman, G. Scalmani, V. Barone, B. Mennucci, 
 G. A. Petersson, H. Nakatsuji, M. Caricato, X. Li, H. P. Hratchian, 
 A. F. Izmaylov, J. Bloino, G. Zheng, J. L. Sonnenberg, M. Hada, 
 M. Ehara, K. Toyota, R. Fukuda, J. Hasegawa, M. Ishida, T. Nakajima, 
 Y. Honda, O. Kitao, H. Nakai, T. Vreven, J. A. Montgomery, Jr., 
 J. E. Peralta, F. Ogliaro, M. Bearpark, J. J. Heyd, E. Brothers, 
 K. N. Kudin, V. N. Staroverov, T. Keith, R. Kobayashi, J. Normand, 
 K. Raghavachari, A. Rendell, J. C. Burant, S. S. Iyengar, J. Tomasi, 
 M. Cossi, N. Rega, J. M. Millam, M. Klene, J. E. Knox, J. B. Cross, 
 V. Bakken, C. Adamo, J. Jaramillo, R. Gomperts, R. E. Stratmann, 
 O. Yazyev, A. J. Austin, R. Cammi, C. Pomelli, J. W. Ochterski, 
 R. L. Martin, K. Morokuma, V. G. Zakrzewski, G. A. Voth, 
 P. Salvador, J. J. Dannenberg, S. Dapprich, A. D. Daniels, 
 O. Farkas, J. B. Foresman, J. V. Ortiz, J. Cioslowski, 
 and D. J. Fox, Gaussian, Inc., Wallingford CT, 2010.
 
 ******************************************
 Gaussian 09:  EM64L-G09RevC.01 23-Sep-2011
                30-Dec-2013 
 ******************************************
 %chk=92_C21H7N5O2S3.chk
 %NProcShared=12
 Will use up to   12 processors via shared memory.
 %Mem=8000MB
 Default route:  MaxDisk=100GB
 --------------------------------------------
 #B3LYP/6-31++G(d,p) opt scf=direct freq test
 --------------------------------------------
 1/14=-1,18=20,19=15,26=3,38=1/1,3;
 2/9=110,12=2,17=6,18=5,40=1/2;
 3/5=1,6=6,7=1111,11=2,16=1,25=1,30=1,71=1,74=-5/1,2,3;
 4//1;
 5/5=2,38=5/2;
 6/7=2,8=2,9=2,10=2,28=1/1;
 7//1,2,3,16;
 1/14=-1,18=20,19=15/3(2);
 2/9=110/2;
 99//99;
 2/9=110/2;
 3/5=1,6=6,7=1111,11=2,16=1,25=1,30=1,71=1,74=-5/1,2,3;
 4/5=5,16=3/1;
 5/5=2,38=5/2;
 7//1,2,3,16;
 1/14=-1,18=20,19=15/3(-5);
 2/9=110/2;
 6/7=2,8=2,9=2,10=2,19=2,28=1/1;
 99/9=1/99;
 ----------------------------------------------------------------------
 Geom opt of No.92 candidate from the CEPDB database with SMILE code of
  C1ccc2c1csc2-c1ncc(s1)-c1ccc([Se]1)-c1cncc2nsnc12, HPC, 20131227, Shu
 o Dai, Gaussian09
 ----------------------------------------------------------------------
 Charge =  0 Multiplicity = 1
 Symbolic Z-Matrix:
 C                    -1.249     1.158    -0.004 
 C                    -2.094    -0.044     0.002 
 C                    -1.292    -1.075     0. 
 C                    -0.015    -0.662     0. 
 C                     0.021     0.714     0.002 
 C                     1.349     1.058     0.001 
 S                     2.041    -0.071     0. 
 C                     1.242    -1.078    -0.001 
 C                     1.65524  -2.46161  -0.00293 
 N                     2.89232  -2.87663  -0.02666 
 C                     2.86437  -4.23155  -0.03041 
 C                     1.55443  -4.57723   0.00337 
 S                     0.86026  -3.47222   0.0191 
 C                     1.01056  -5.95574   0.01947 
 C                     1.21245  -7.08873   0.67108 
 C                     0.9408   -8.17426  -0.30669 
 C                     0.60131  -7.57021  -1.43315 
 Se                    0.64808  -6.24195  -1.24144 
 C                    -0.77263  -7.97011  -1.81873 
 C                    -1.71427  -7.03234  -2.06584 
 N                    -2.98302  -7.37009  -2.4169 
 C                    -3.36092  -8.66028  -2.5476 
 C                    -2.42079  -9.68427  -2.30773 
 N                    -2.44932  -11.0157  -2.34182 
 S                    -1.24887  -11.47374  -2.01842 
 N                    -0.42508  -10.47551  -1.77237 
 C                    -1.09571  -9.32352  -1.93446 
 H                    -1.44005   1.75197   0.86525 
 H                    -1.44662   1.77375  -0.85646 
 H                    -3.12569  -0.06895   0.00687 
 H                    -1.59544  -2.06138  -0.00138 
 H                     1.73536   2.01495   0.00102 
 H                     3.67504  -4.86974  -0.05413 
 H                     1.4997   -7.19679   1.65639 
 H                     1.00407  -9.19087  -0.14077 
 H                    -1.46337  -6.0345   -1.98588 
 H                    -4.32823  -8.89466  -2.82034 
 

 GradGradGradGradGradGradGradGradGradGradGradGradGradGradGradGradGradGrad
 Berny optimization.
 Initialization pass.
                           ----------------------------
                           !    Initial Parameters    !
                           ! (Angstroms and Degrees)  !
 --------------------------                            --------------------------
 ! Name  Definition              Value          Derivative Info.                !
 --------------------------------------------------------------------------------
 ! R1    R(1,2)                  1.4693         estimate D2E/DX2                !
 ! R2    R(1,5)                  1.3454         estimate D2E/DX2                !
 ! R3    R(1,28)                 1.07           estimate D2E/DX2                !
 ! R4    R(1,29)                 1.07           estimate D2E/DX2                !
 ! R5    R(2,3)                  1.3062         estimate D2E/DX2                !
 ! R6    R(2,30)                 1.032          estimate D2E/DX2                !
 ! R7    R(3,4)                  1.3421         estimate D2E/DX2                !
 ! R8    R(3,31)                 1.032          estimate D2E/DX2                !
 ! R9    R(4,5)                  1.3765         estimate D2E/DX2                !
 ! R10   R(4,7)                  2.1393         estimate D2E/DX2                !
 ! R11   R(4,8)                  1.324          estimate D2E/DX2                !
 ! R12   R(5,6)                  1.3718         estimate D2E/DX2                !
 ! R13   R(5,7)                  2.1672         estimate D2E/DX2                !
 ! R14   R(6,7)                  1.3242         estimate D2E/DX2                !
 ! R15   R(6,32)                 1.032          estimate D2E/DX2                !
 ! R16   R(7,8)                  1.2855         estimate D2E/DX2                !
 ! R17   R(8,9)                  1.444          estimate D2E/DX2                !
 ! R18   R(9,10)                 1.3051         estimate D2E/DX2                !
 ! R19   R(9,13)                 1.286          estimate D2E/DX2                !
 ! R20   R(10,11)                1.3552         estimate D2E/DX2                !
 ! R21   R(11,12)                1.3552         estimate D2E/DX2                !
 ! R22   R(11,13)                2.1437         estimate D2E/DX2                !
 ! R23   R(11,33)                1.032          estimate D2E/DX2                !
 ! R24   R(12,13)                1.3051         estimate D2E/DX2                !
 ! R25   R(12,14)                1.482          estimate D2E/DX2                !
 ! R26   R(12,18)                2.2677         estimate D2E/DX2                !
 ! R27   R(14,15)                1.3225         estimate D2E/DX2                !
 ! R28   R(14,18)                1.3428         estimate D2E/DX2                !
 ! R29   R(15,16)                1.486          estimate D2E/DX2                !
 ! R30   R(15,18)                2.1664         estimate D2E/DX2                !
 ! R31   R(15,34)                1.032          estimate D2E/DX2                !
 ! R32   R(16,17)                1.3225         estimate D2E/DX2                !
 ! R33   R(16,18)                2.1664         estimate D2E/DX2                !
 ! R34   R(16,35)                1.032          estimate D2E/DX2                !
 ! R35   R(17,18)                1.3428         estimate D2E/DX2                !
 ! R36   R(17,19)                1.482          estimate D2E/DX2                !
 ! R37   R(19,20)                1.3517         estimate D2E/DX2                !
 ! R38   R(19,27)                1.3962         estimate D2E/DX2                !
 ! R39   R(20,21)                1.3591         estimate D2E/DX2                !
 ! R40   R(20,36)                1.032          estimate D2E/DX2                !
 ! R41   R(21,22)                1.3507         estimate D2E/DX2                !
 ! R42   R(22,23)                1.4107         estimate D2E/DX2                !
 ! R43   R(22,37)                1.032          estimate D2E/DX2                !
 ! R44   R(23,24)                1.3322         estimate D2E/DX2                !
 ! R45   R(23,25)                2.1585         estimate D2E/DX2                !
 ! R46   R(23,27)                1.4231         estimate D2E/DX2                !
 ! R47   R(24,25)                1.3249         estimate D2E/DX2                !
 ! R48   R(25,26)                1.3174         estimate D2E/DX2                !
 ! R49   R(25,27)                2.1573         estimate D2E/DX2                !
 ! R50   R(26,27)                1.3428         estimate D2E/DX2                !
 ! A1    A(2,1,5)              105.8357         estimate D2E/DX2                !
 ! A2    A(2,1,28)             110.3724         estimate D2E/DX2                !
 ! A3    A(2,1,29)             111.5808         estimate D2E/DX2                !
 ! A4    A(5,1,28)             110.3724         estimate D2E/DX2                !
 ! A5    A(5,1,29)             111.5806         estimate D2E/DX2                !
 ! A6    A(28,1,29)            107.1452         estimate D2E/DX2                !
 ! A7    A(1,2,3)              107.0136         estimate D2E/DX2                !
 ! A8    A(1,2,30)             126.4929         estimate D2E/DX2                !
 ! A9    A(3,2,30)             126.4935         estimate D2E/DX2                !
 ! A10   A(2,3,4)              109.9569         estimate D2E/DX2                !
 ! A11   A(2,3,31)             125.0218         estimate D2E/DX2                !
 ! A12   A(4,3,31)             125.0214         estimate D2E/DX2                !
 ! A13   A(3,4,5)              109.4206         estimate D2E/DX2                !
 ! A14   A(3,4,8)              143.7662         estimate D2E/DX2                !
 ! A15   A(5,4,8)              106.8132         estimate D2E/DX2                !
 ! A16   A(1,5,4)              107.7707         estimate D2E/DX2                !
 ! A17   A(1,5,6)              146.2064         estimate D2E/DX2                !
 ! A18   A(4,5,6)              106.0211         estimate D2E/DX2                !
 ! A19   A(5,6,32)             126.5084         estimate D2E/DX2                !
 ! A20   A(7,6,32)             126.5086         estimate D2E/DX2                !
 ! A21   A(4,7,6)               74.5319         estimate D2E/DX2                !
 ! A22   A(5,7,8)               72.8068         estimate D2E/DX2                !
 ! A23   A(6,7,8)              110.0645         estimate D2E/DX2                !
 ! A24   A(4,8,9)              124.941          estimate D2E/DX2                !
 ! A25   A(7,8,9)              124.9407         estimate D2E/DX2                !
 ! A26   A(8,9,10)             125.1699         estimate D2E/DX2                !
 ! A27   A(8,9,13)             125.1734         estimate D2E/DX2                !
 ! A28   A(10,9,13)            109.6566         estimate D2E/DX2                !
 ! A29   A(9,10,11)            107.364          estimate D2E/DX2                !
 ! A30   A(10,11,12)           105.9553         estimate D2E/DX2                !
 ! A31   A(10,11,13)            70.4324         estimate D2E/DX2                !
 ! A32   A(10,11,33)           127.0224         estimate D2E/DX2                !
 ! A33   A(12,11,33)           127.0223         estimate D2E/DX2                !
 ! A34   A(13,11,33)           162.5445         estimate D2E/DX2                !
 ! A35   A(11,12,14)           126.3174         estimate D2E/DX2                !
 ! A36   A(11,12,18)           124.0493         estimate D2E/DX2                !
 ! A37   A(13,12,14)           126.317          estimate D2E/DX2                !
 ! A38   A(13,12,18)           114.5574         estimate D2E/DX2                !
 ! A39   A(9,13,11)             72.5449         estimate D2E/DX2                !
 ! A40   A(9,13,12)            109.656          estimate D2E/DX2                !
 ! A41   A(12,14,15)           138.2624         estimate D2E/DX2                !
 ! A42   A(14,15,16)           105.8857         estimate D2E/DX2                !
 ! A43   A(14,15,34)           127.0572         estimate D2E/DX2                !
 ! A44   A(16,15,34)           127.057          estimate D2E/DX2                !
 ! A45   A(18,15,34)           163.0008         estimate D2E/DX2                !
 ! A46   A(15,16,17)           105.8856         estimate D2E/DX2                !
 ! A47   A(15,16,35)           127.0573         estimate D2E/DX2                !
 ! A48   A(17,16,35)           127.0571         estimate D2E/DX2                !
 ! A49   A(18,16,35)           162.9988         estimate D2E/DX2                !
 ! A50   A(16,17,19)           109.6543         estimate D2E/DX2                !
 ! A51   A(18,17,19)           109.6543         estimate D2E/DX2                !
 ! A52   A(12,18,15)            72.4349         estimate D2E/DX2                !
 ! A53   A(12,18,16)           111.3417         estimate D2E/DX2                !
 ! A54   A(12,18,17)           144.9281         estimate D2E/DX2                !
 ! A55   A(14,18,16)            75.4326         estimate D2E/DX2                !
 ! A56   A(14,18,17)           110.7494         estimate D2E/DX2                !
 ! A57   A(15,18,17)            75.4326         estimate D2E/DX2                !
 ! A58   A(17,19,20)           120.4104         estimate D2E/DX2                !
 ! A59   A(17,19,27)           119.8445         estimate D2E/DX2                !
 ! A60   A(20,19,27)           119.7443         estimate D2E/DX2                !
 ! A61   A(19,20,21)           121.6777         estimate D2E/DX2                !
 ! A62   A(19,20,36)           119.161          estimate D2E/DX2                !
 ! A63   A(21,20,36)           119.1612         estimate D2E/DX2                !
 ! A64   A(20,21,22)           121.5711         estimate D2E/DX2                !
 ! A65   A(21,22,23)           119.3703         estimate D2E/DX2                !
 ! A66   A(21,22,37)           120.3144         estimate D2E/DX2                !
 ! A67   A(23,22,37)           120.3152         estimate D2E/DX2                !
 ! A68   A(22,23,24)           134.9808         estimate D2E/DX2                !
 ! A69   A(22,23,27)           118.7589         estimate D2E/DX2                !
 ! A70   A(24,23,27)           106.2603         estimate D2E/DX2                !
 ! A71   A(23,25,26)            74.7143         estimate D2E/DX2                !
 ! A72   A(24,25,26)           110.4988         estimate D2E/DX2                !
 ! A73   A(24,25,27)            74.2913         estimate D2E/DX2                !
 ! A74   A(19,27,23)           118.8752         estimate D2E/DX2                !
 ! A75   A(19,27,26)           134.9118         estimate D2E/DX2                !
 ! A76   A(23,27,26)           106.213          estimate D2E/DX2                !
 ! A77   L(3,4,7,1,-1)         181.8846         estimate D2E/DX2                !
 ! A78   L(1,5,7,3,-1)         178.033          estimate D2E/DX2                !
 ! A79   L(22,23,25,10,-1)     189.4313         estimate D2E/DX2                !
 ! A80   L(19,27,25,22,-1)     189.6689         estimate D2E/DX2                !
 ! A81   L(3,4,7,1,-2)         180.0038         estimate D2E/DX2                !
 ! A82   L(1,5,7,3,-2)         179.68           estimate D2E/DX2                !
 ! A83   L(22,23,25,10,-2)     179.269          estimate D2E/DX2                !
 ! A84   L(19,27,25,22,-2)     180.0096         estimate D2E/DX2                !
 ! D1    D(5,1,2,3)             -0.4953         estimate D2E/DX2                !
 ! D2    D(5,1,2,30)           179.5048         estimate D2E/DX2                !
 ! D3    D(28,1,2,3)          -119.9232         estimate D2E/DX2                !
 ! D4    D(28,1,2,30)           60.0769         estimate D2E/DX2                !
 ! D5    D(29,1,2,3)           121.0608         estimate D2E/DX2                !
 ! D6    D(29,1,2,30)          -58.9391         estimate D2E/DX2                !
 ! D7    D(2,1,5,4)              0.485          estimate D2E/DX2                !
 ! D8    D(2,1,5,6)            179.8588         estimate D2E/DX2                !
 ! D9    D(28,1,5,4)           119.9129         estimate D2E/DX2                !
 ! D10   D(28,1,5,6)           -60.7133         estimate D2E/DX2                !
 ! D11   D(29,1,5,4)          -121.0712         estimate D2E/DX2                !
 ! D12   D(29,1,5,6)            58.3026         estimate D2E/DX2                !
 ! D13   D(2,1,7,8)              0.2845         estimate D2E/DX2                !
 ! D14   D(28,1,7,8)           119.4014         estimate D2E/DX2                !
 ! D15   D(29,1,7,8)          -120.7628         estimate D2E/DX2                !
 ! D16   D(1,2,3,4)              0.3034         estimate D2E/DX2                !
 ! D17   D(1,2,3,31)          -179.6964         estimate D2E/DX2                !
 ! D18   D(30,2,3,4)          -179.6967         estimate D2E/DX2                !
 ! D19   D(30,2,3,31)            0.3035         estimate D2E/DX2                !
 ! D20   D(2,3,4,5)             -0.0051         estimate D2E/DX2                !
 ! D21   D(2,3,4,8)            179.9799         estimate D2E/DX2                !
 ! D22   D(31,3,4,5)           179.9947         estimate D2E/DX2                !
 ! D23   D(31,3,4,8)            -0.0203         estimate D2E/DX2                !
 ! D24   D(2,3,7,6)             -0.0493         estimate D2E/DX2                !
 ! D25   D(31,3,7,6)           179.9525         estimate D2E/DX2                !
 ! D26   D(3,4,5,1)             -0.3244         estimate D2E/DX2                !
 ! D27   D(3,4,5,6)           -179.962          estimate D2E/DX2                !
 ! D28   D(8,4,5,1)            179.6849         estimate D2E/DX2                !
 ! D29   D(8,4,5,6)              0.0473         estimate D2E/DX2                !
 ! D30   D(3,4,8,9)              0.0041         estimate D2E/DX2                !
 ! D31   D(5,4,8,9)            179.9893         estimate D2E/DX2                !
 ! D32   D(1,5,6,32)             0.5541         estimate D2E/DX2                !
 ! D33   D(4,5,6,32)           179.9337         estimate D2E/DX2                !
 ! D34   D(32,6,7,4)          -179.9574         estimate D2E/DX2                !
 ! D35   D(32,6,7,8)          -179.9377         estimate D2E/DX2                !
 ! D36   D(5,7,8,9)           -179.9931         estimate D2E/DX2                !
 ! D37   D(6,7,8,9)            179.9675         estimate D2E/DX2                !
 ! D38   D(4,8,9,10)           178.7787         estimate D2E/DX2                !
 ! D39   D(4,8,9,13)            -1.2555         estimate D2E/DX2                !
 ! D40   D(7,8,9,10)            -1.2215         estimate D2E/DX2                !
 ! D41   D(7,8,9,13)           178.7443         estimate D2E/DX2                !
 ! D42   D(8,9,10,11)         -179.5191         estimate D2E/DX2                !
 ! D43   D(13,9,10,11)           0.5106         estimate D2E/DX2                !
 ! D44   D(8,9,13,11)          179.7068         estimate D2E/DX2                !
 ! D45   D(8,9,13,12)          179.7014         estimate D2E/DX2                !
 ! D46   D(10,9,13,11)          -0.3229         estimate D2E/DX2                !
 ! D47   D(10,9,13,12)          -0.3283         estimate D2E/DX2                !
 ! D48   D(9,10,11,12)          -0.4889         estimate D2E/DX2                !
 ! D49   D(9,10,11,13)          -0.3061         estimate D2E/DX2                !
 ! D50   D(9,10,11,33)         179.512          estimate D2E/DX2                !
 ! D51   D(10,11,12,14)       -179.7039         estimate D2E/DX2                !
 ! D52   D(10,11,12,18)        137.7626         estimate D2E/DX2                !
 ! D53   D(33,11,12,14)          0.2952         estimate D2E/DX2                !
 ! D54   D(33,11,12,18)        -42.2382         estimate D2E/DX2                !
 ! D55   D(10,11,13,9)           0.3108         estimate D2E/DX2                !
 ! D56   D(33,11,13,9)        -179.2051         estimate D2E/DX2                !
 ! D57   D(14,12,13,9)        -179.9912         estimate D2E/DX2                !
 ! D58   D(18,12,13,9)        -141.9793         estimate D2E/DX2                !
 ! D59   D(11,12,14,15)         48.0324         estimate D2E/DX2                !
 ! D60   D(13,12,14,15)       -131.9679         estimate D2E/DX2                !
 ! D61   D(11,12,18,15)         92.8205         estimate D2E/DX2                !
 ! D62   D(11,12,18,16)         82.8466         estimate D2E/DX2                !
 ! D63   D(11,12,18,17)         68.3264         estimate D2E/DX2                !
 ! D64   D(13,12,18,15)       -132.3638         estimate D2E/DX2                !
 ! D65   D(13,12,18,16)       -142.3377         estimate D2E/DX2                !
 ! D66   D(13,12,18,17)       -156.8579         estimate D2E/DX2                !
 ! D67   D(12,14,15,16)       -146.7021         estimate D2E/DX2                !
 ! D68   D(12,14,15,34)         33.2978         estimate D2E/DX2                !
 ! D69   D(14,15,16,17)         -0.2463         estimate D2E/DX2                !
 ! D70   D(14,15,16,35)        179.754          estimate D2E/DX2                !
 ! D71   D(34,15,16,17)        179.7538         estimate D2E/DX2                !
 ! D72   D(34,15,16,35)         -0.2459         estimate D2E/DX2                !
 ! D73   D(34,15,18,12)         14.4738         estimate D2E/DX2                !
 ! D74   D(34,15,18,17)       -179.7756         estimate D2E/DX2                !
 ! D75   D(15,16,17,19)       -119.4783         estimate D2E/DX2                !
 ! D76   D(35,16,17,19)         60.5215         estimate D2E/DX2                !
 ! D77   D(35,16,18,12)       -164.4539         estimate D2E/DX2                !
 ! D78   D(35,16,18,14)       -179.3122         estimate D2E/DX2                !
 ! D79   D(19,17,18,12)        143.7128         estimate D2E/DX2                !
 ! D80   D(19,17,18,14)        119.4444         estimate D2E/DX2                !
 ! D81   D(19,17,18,15)        119.6085         estimate D2E/DX2                !
 ! D82   D(16,17,19,20)        126.3289         estimate D2E/DX2                !
 ! D83   D(16,17,19,27)        -54.0012         estimate D2E/DX2                !
 ! D84   D(18,17,19,20)          7.0028         estimate D2E/DX2                !
 ! D85   D(18,17,19,27)       -173.3272         estimate D2E/DX2                !
 ! D86   D(17,19,20,21)       -179.7826         estimate D2E/DX2                !
 ! D87   D(17,19,20,36)          0.2169         estimate D2E/DX2                !
 ! D88   D(27,19,20,21)          0.5471         estimate D2E/DX2                !
 ! D89   D(27,19,20,36)       -179.4534         estimate D2E/DX2                !
 ! D90   D(17,19,25,24)       -179.8997         estimate D2E/DX2                !
 ! D91   D(20,19,25,24)         -0.2331         estimate D2E/DX2                !
 ! D92   D(17,19,27,23)       -179.9159         estimate D2E/DX2                !
 ! D93   D(17,19,27,26)          0.0403         estimate D2E/DX2                !
 ! D94   D(20,19,27,23)         -0.2437         estimate D2E/DX2                !
 ! D95   D(20,19,27,26)        179.7125         estimate D2E/DX2                !
 ! D96   D(19,20,21,22)         -0.6091         estimate D2E/DX2                !
 ! D97   D(36,20,21,22)        179.3914         estimate D2E/DX2                !
 ! D98   D(20,21,22,23)          0.3479         estimate D2E/DX2                !
 ! D99   D(20,21,22,37)       -179.6527         estimate D2E/DX2                !
 ! D100  D(21,22,23,24)        179.9628         estimate D2E/DX2                !
 ! D101  D(21,22,23,27)         -0.0512         estimate D2E/DX2                !
 ! D102  D(37,22,23,24)         -0.0366         estimate D2E/DX2                !
 ! D103  D(37,22,23,27)        179.9493         estimate D2E/DX2                !
 ! D104  D(21,22,25,26)         -0.1041         estimate D2E/DX2                !
 ! D105  D(37,22,25,26)        179.9079         estimate D2E/DX2                !
 ! D106  D(22,23,27,19)          0.0019         estimate D2E/DX2                !
 ! D107  D(22,23,27,26)       -179.9658         estimate D2E/DX2                !
 ! D108  D(24,23,27,19)        179.9915         estimate D2E/DX2                !
 ! D109  D(24,23,27,26)          0.0238         estimate D2E/DX2                !
 --------------------------------------------------------------------------------
 Trust Radius=3.00D-01 FncErr=1.00D-07 GrdErr=1.00D-06
 Number of steps in this run=    222 maximum allowed number of steps=    222.
 GradGradGradGradGradGradGradGradGradGradGradGradGradGradGradGradGradGrad

                          Input orientation:                          
 ---------------------------------------------------------------------
 Center     Atomic      Atomic             Coordinates (Angstroms)
 Number     Number       Type             X           Y           Z
 ---------------------------------------------------------------------
      1          6           0       -1.249000    1.158000   -0.004000
      2          6           0       -2.094000   -0.044000    0.002000
      3          6           0       -1.292000   -1.075000    0.000000
      4          6           0       -0.015000   -0.662000    0.000000
      5          6           0        0.021000    0.714000    0.002000
      6          6           0        1.349000    1.058000    0.001000
      7         16           0        2.041000   -0.071000    0.000000
      8          6           0        1.242000   -1.078000   -0.001000
      9          6           0        1.655240   -2.461610   -0.002930
     10          7           0        2.892320   -2.876630   -0.026660
     11          6           0        2.864370   -4.231550   -0.030410
     12          6           0        1.554430   -4.577230    0.003370
     13         16           0        0.860260   -3.472220    0.019100
     14          6           0        1.010560   -5.955740    0.019470
     15          6           0        1.212450   -7.088730    0.671080
     16          6           0        0.940800   -8.174260   -0.306690
     17          6           0        0.601310   -7.570210   -1.433150
     18         34           0        0.648080   -6.241950   -1.241440
     19          6           0       -0.772630   -7.970110   -1.818730
     20          6           0       -1.714270   -7.032340   -2.065840
     21          7           0       -2.983020   -7.370090   -2.416900
     22          6           0       -3.360920   -8.660280   -2.547600
     23          6           0       -2.420790   -9.684270   -2.307730
     24          7           0       -2.449320  -11.015700   -2.341820
     25         16           0       -1.248870  -11.473740   -2.018420
     26          7           0       -0.425080  -10.475510   -1.772370
     27          6           0       -1.095710   -9.323520   -1.934460
     28          1           0       -1.440050    1.751970    0.865250
     29          1           0       -1.446620    1.773750   -0.856460
     30          1           0       -3.125690   -0.068950    0.006870
     31          1           0       -1.595440   -2.061380   -0.001380
     32          1           0        1.735360    2.014950    0.001020
     33          1           0        3.675040   -4.869740   -0.054130
     34          1           0        1.499700   -7.196790    1.656390
     35          1           0        1.004070   -9.190870   -0.140770
     36          1           0       -1.463370   -6.034500   -1.985880
     37          1           0       -4.328230   -8.894660   -2.820340
 ---------------------------------------------------------------------
                    Distance matrix (angstroms):
                    1          2          3          4          5
     1  C    0.000000
     2  C    1.469308   0.000000
     3  C    2.233418   1.306204   0.000000
     4  C    2.198902   2.168910   1.342124   0.000000
     5  C    1.345389   2.246729   2.219120   1.376472   0.000000
     6  C    2.599929   3.615059   3.394786   2.195199   1.371831
     7  S    3.512059   4.135089   3.480935   2.139256   2.167171
     8  C    3.347355   3.492572   2.534002   1.324049   2.168436
     9  C    4.640710   4.461128   3.257134   2.455261   3.571451
    10  N    5.781806   5.734806   4.555778   3.654833   4.597600
    11  C    6.779953   6.490151   5.219209   4.586217   5.704758
    12  C    6.383740   5.819039   4.513069   4.218074   5.508949
    13  S    5.088069   4.525554   3.221685   2.943430   4.269554
    14  C    7.464011   6.677370   5.396646   5.392201   6.742771
    15  C    8.632672   7.810794   6.548860   6.577221   7.921478
    16  C    9.590512   8.683687   7.448419   7.579028   8.941056
    17  C    9.035915   8.122080   6.915656   7.082169   8.427606
    18  Se   7.738826   6.890554   5.657071   5.754710   7.093984
    19  C    9.318936   8.239193   7.149830   7.569033   8.908348
    20  C    8.458684   7.297743   6.319486   6.909157   8.203225
    21  N    9.030904   7.766146   6.951914   7.723278   8.956993
    22  C   10.359958   9.074460   8.264815   9.036478  10.286640
    23  C   11.146079   9.918490   8.984393   9.618461  10.928001
    24  N   12.454121  11.224881  10.278182  10.890782  12.214002
    25  S   12.791354  11.637667  10.592907  11.067528  12.419166
    26  N   11.795954  10.712147   9.605334   9.980703  11.338100
    27  C   10.658913   9.531839   8.474594   8.940470  10.283420
    28  H    1.069998   2.097227   2.960124   2.933714   1.989284
    29  H    1.069995   2.111935   2.978726   2.952277   2.003480
    30  H    2.242206   1.032003   2.091555   3.166725   3.242637
    31  H    3.237968   2.078075   1.032000   2.110937   3.211794
    32  H    3.104963   4.347790   4.325818   3.198409   2.152092
    33  H    7.783465   7.521485   6.250957   5.596821   6.673328
    34  H    8.950685   8.173989   6.929180   6.909517   8.216091
    35  H   10.592174   9.658346   8.435585   8.590689   9.954560
    36  H    7.463636   6.343142   5.345066   5.908067   7.190082
    37  H   10.884365   9.554662   8.849864   9.712619  10.918230
                    6          7          8          9         10
     6  C    0.000000
     7  S    1.324200   0.000000
     8  C    2.138679   1.285477   0.000000
     9  C    3.532910   2.421536   1.444004   0.000000
    10  N    4.226572   2.932067   2.441165   1.305056   0.000000
    11  C    5.502424   4.241349   3.546523   2.143697   1.355213
    12  C    5.638974   4.532424   3.513153   2.118030   2.163999
    13  S    4.556543   3.600390   2.424545   1.286006   2.118039
    14  C    7.021925   5.974308   4.883271   3.553176   3.608887
    15  C    8.175382   7.098266   6.048259   4.696870   4.588092
    16  C    9.246401   8.183356   7.109225   5.765160   5.652586
    17  C    8.778487   7.769477   6.679096   5.408705   5.408940
    18  Se   7.438025   6.446862   5.343951   4.103565   4.223468
    19  C    9.450899   8.580223   7.407028   6.287707   6.525865
    20  C    8.894327   8.174962   6.961125   6.041587   6.530609
    21  N    9.779843   9.184710   7.954732   7.171742   7.773291
    22  C   11.096111  10.461679   9.228381   8.370228   8.883060
    23  C   11.616278  10.846573   9.633531   8.607726   8.931762
    24  N   12.872073  12.059583  10.856480   9.771913  10.006875
    25  S   12.956523  12.038262  10.878687   9.680627   9.748172
    26  N   11.803137  10.838666   9.707219   8.466478   8.473230
    27  C   10.839676   9.959428   8.785884   7.640965   7.817063
    28  H    3.001220   4.023628   3.994060   5.299888   6.402255
    29  H    3.010486   4.037341   4.011604   5.318677   6.414125
    30  H    4.614423   5.166695   4.482740   5.346233   6.640831
    31  H    4.289553   4.145517   3.003016   3.275226   4.561278
    32  H    1.032002   2.108223   3.132052   4.477279   5.026617
    33  H    6.368014   5.069608   4.505530   3.143454   2.141470
    34  H    8.420486   7.335770   6.344521   5.019907   4.841057
    35  H   10.255653   9.179710   8.117562   6.762097   6.591520
    36  H    7.884204   7.196364   5.985455   5.140366   5.725620
    37  H   11.800269  11.241814  10.003815   9.226258   9.806002
                   11         12         13         14         15
    11  C    0.000000
    12  C    1.355204   0.000000
    13  S    2.143709   1.305054   0.000000
    14  C    2.532179   1.482007   2.488064   0.000000
    15  C    3.374078   2.621148   3.691647   1.322506   0.000000
    16  C    4.395613   3.662145   4.714001   2.243452   1.486002
    17  C    4.270336   3.453977   4.355411   2.210001   2.243457
    18  Se   3.228040   2.267667   3.050473   1.342834   2.166399
    19  C    5.513863   4.499655   5.125911   3.258287   3.304017
    20  C    5.740326   4.581877   4.863089   3.596148   4.007443
    21  N    7.052499   5.852028   5.991518   4.887225   5.216968
    22  C    8.043888   6.880364   7.163957   5.745800   5.809078
    23  C    7.927879   6.872075   7.400608   5.576016   5.367548
    24  N    8.922029   7.936235   8.569210   6.568840   6.156884
    25  S    8.562724   7.714141   8.521986   6.301297   5.702615
    26  N    7.269246   6.470040   7.342175   5.069524   4.485781
    27  C    6.725756   5.771109   6.471470   4.426755   4.136512
    28  H    7.425143   7.054681   5.770577   8.132012   9.232087
    29  H    7.438456   7.076762   5.797284   8.157818   9.378037
    30  H    7.294481   6.498317   5.241202   7.194652   8.278765
    31  H    4.959878   4.031278   2.832199   4.685906   5.797473
    32  H    6.347788   6.594663   5.556542   8.003598   9.143271
    33  H    1.032005   2.141461   3.143471   2.878240   3.393257
    34  H    3.674271   3.097994   4.118498   2.111627   1.032001
    35  H    5.297901   4.648585   5.722691   3.239103   2.263076
    36  H    5.079747   3.897162   3.998060   3.185587   3.915463
    37  H    9.014533   7.824272   8.024070   6.723425   6.793418
                   16         17         18         19         20
    16  C    0.000000
    17  C    1.322514   0.000000
    18  Se   2.166394   1.342838   0.000000
    19  C    2.294294   1.481993   2.310458   0.000000
    20  C    3.383487   2.459982   2.623938   1.351725   0.000000
    21  N    4.527255   3.722262   3.979861   2.367204   1.359060
    22  C    4.874699   4.257877   4.860705   2.776118   2.365108
    23  C    4.193397   3.790413   4.733340   2.427735   2.755071
    24  N    4.869132   4.690781   5.795982   3.515755   4.060003
    25  S    4.314075   4.359272   5.619052   3.541483   4.465969
    26  N    3.051163   3.099889   4.399612   2.529816   3.688300
    27  C    2.849176   2.491041   3.607929   1.396242   2.376843
    28  H   10.274820   9.815948   8.526499  10.107821   9.264480
    29  H   10.245239   9.583119   8.293818   9.814430   8.892776
    30  H    9.073627   8.499005   7.342040   8.443816   7.401151
    31  H    6.625181   6.101056   4.903906   6.236415   5.383917
    32  H   10.224774   9.757982   8.420349  10.454804   9.900773
    33  H    4.296476   4.317644   3.529186   5.701568   6.145606
    34  H    2.263073   3.239106   3.167711   4.223502   4.920533
    35  H    1.032002   2.111635   3.167701   2.731752   3.969196
    36  H    3.630191   2.631885   2.248432   2.061952   1.032002
    37  H    5.882184   5.289502   5.856062   3.807927   3.297013
                   21         22         23         24         25
    21  N    0.000000
    22  C    1.350734   0.000000
    23  C    2.383999   1.410651   0.000000
    24  N    3.685233   2.534041   1.332172   0.000000
    25  S    4.472807   3.557576   2.158541   1.324941   0.000000
    26  N    4.074569   3.537683   2.212584   2.171089   1.317435
    27  C    2.758727   2.438648   1.423133   2.204921   2.157302
    28  H    9.816580  11.124398  11.908704  13.202929  13.537781
    29  H    9.402410  10.742136  11.590574  12.914400  13.299821
    30  H    7.694262   8.966136   9.915071  11.216290  11.734287
    31  H    5.995208   7.290105   8.006804   9.294440   9.632294
    32  H   10.779073  12.100747  12.628367  13.885182  13.961681
    33  H    7.494277   8.371996   8.088112   8.972967   8.468538
    34  H    6.059414   6.590976   6.105084   6.794447   6.273051
    35  H    4.938916   5.012733   4.082747   4.483361   3.716558
    36  H    2.068554   3.288000   3.786959   5.090299   5.443565
    37  H    2.072840   1.031993   2.127106   2.873690   4.095997
                   26         27         28         29         30
    26  N    0.000000
    27  C    1.342795   0.000000
    28  H   12.549839  11.429061   0.000000
    29  H   12.325859  11.155027   1.721860   0.000000
    30  H   10.897499   9.671435   2.625633   2.638211   0.000000
    31  H    8.677772   7.531614   3.913672   3.932115   2.512272
    32  H   12.799375  11.845756   3.301406   3.304307   5.288902
    33  H    7.154578   6.792043   8.417627   8.426808   8.324736
    34  H    5.119685   4.914604   9.452425   9.770660   8.655706
    35  H    2.520890   2.764778  11.257511  11.257930  10.014297
    36  H    4.565764   3.309905   8.292081   7.889527   6.505547
    37  H    4.339575   3.379037  11.630816  11.223880   9.345179
                   31         32         33         34         35
    31  H    0.000000
    32  H    5.264095   0.000000
    33  H    5.972238   7.152926   0.000000
    34  H    6.220975   9.362261   3.615680   0.000000
    35  H    7.589895  11.230552   5.080724   2.729796   0.000000
    36  H    4.443126   8.886692   5.611736   4.837027   4.410823
    37  H    7.880888  12.796358   9.375726   7.542456   5.975053
                   36         37
    36  H    0.000000
    37  H    4.133311   0.000000
 Stoichiometry    C19H10N4S3Se
 Framework group  C1[X(C19H10N4S3Se)]
 Deg. of freedom   105
 Full point group                 C1      NOp   1
 Largest Abelian subgroup         C1      NOp   1
 Largest concise Abelian subgroup C1      NOp   1
                         Standard orientation:                         
 ---------------------------------------------------------------------
 Center     Atomic      Atomic             Coordinates (Angstroms)
 Number     Number       Type             X           Y           Z
 ---------------------------------------------------------------------
      1          6           0        5.940749    2.592828    0.253429
      2          6           0        4.618633    3.088278    0.660125
      3          6           0        3.792401    2.079466    0.583906
      4          6           0        4.446920    0.981112    0.175836
      5          6           0        5.773576    1.287472   -0.026164
      6          6           0        6.372084    0.124320   -0.439427
      7         16           0        5.429837   -0.805570   -0.470741
      8          6           0        4.302551   -0.303451   -0.110804
      9          6           0        3.059602   -1.034076   -0.030732
     10          7           0        2.907582   -2.294348   -0.333677
     11          6           0        1.602412   -2.602648   -0.138520
     12          6           0        1.012521   -1.464563    0.301217
     13         16           0        1.934285   -0.542020    0.350522
     14          6           0       -0.415776   -1.298293    0.659920
     15          6           0       -1.330326   -1.921111    1.384293
     16          6           0       -2.621830   -1.705643    0.681588
     17          6           0       -2.337326   -0.973284   -0.382249
     18         34           0       -1.016231   -0.733267   -0.399986
     19          6           0       -3.076195    0.309692   -0.316291
     20          6           0       -2.417534    1.485007   -0.425662
     21          7           0       -3.068606    2.676394   -0.364444
     22          6           0       -4.408048    2.742845   -0.203321
     23          6           0       -5.151112    1.549297   -0.088266
     24          7           0       -6.439963    1.254459    0.074873
     25         16           0       -6.571071   -0.063265    0.118272
     26          7           0       -5.398062   -0.648211   -0.014091
     27          6           0       -4.462133    0.305447   -0.147029
     28          1           0        6.645607    2.716074    1.048968
     29          1           0        6.320112    3.130576   -0.590253
     30          1           0        4.386738    4.050932    0.950905
     31          1           0        2.785173    2.120865    0.804817
     32          1           0        7.367624   -0.002007   -0.680197
     33          1           0        1.150112   -3.517275   -0.293171
     34          1           0       -1.178266   -2.448523    2.258215
     35          1           0       -3.550234   -2.055654    0.965463
     36          1           0       -1.394215    1.477452   -0.559038
     37          1           0       -4.883287    3.658088   -0.164749
 ---------------------------------------------------------------------
 Rotational constants (GHZ):      0.4590431      0.0668296      0.0595971
 Standard basis: 6-31++G(d,p) (6D, 7F)
 There are   600 symmetry adapted basis functions of A   symmetry.
 Integral buffers will be    131072 words long.
 Raffenetti 2 integral format.
 Two-electron integral symmetry is turned on.
   600 basis functions,  1071 primitive gaussians,   600 cartesian basis functions
   117 alpha electrons      117 beta electrons
       nuclear repulsion energy      3535.6960941793 Hartrees.
 NAtoms=   37 NActive=   37 NUniq=   37 SFac= 1.00D+00 NAtFMM=   60 NAOKFM=F Big=F
 One-electron integrals computed using PRISM.
 NBasis=   600 RedAO= T  NBF=   600
 NBsUse=   595 1.00D-06 NBFU=   595
 Harris functional with IExCor=  402 diagonalized for initial guess.
 ExpMin= 3.00D-02 ExpMax= 5.61D+05 ExpMxC= 5.42D+03 IAcc=3 IRadAn=         5 AccDes= 0.00D+00
 HarFok:  IExCor=  402 AccDes= 0.00D+00 IRadAn=         5 IDoV= 1
 ScaDFX=  1.000000  1.000000  1.000000  1.000000
 FoFCou: FMM=F IPFlag=           0 FMFlag=      100000 FMFlg1=           0
         NFxFlg=           0 DoJE=T BraDBF=F KetDBF=T FulRan=T
         Omega=  0.000000  0.000000  1.000000  0.000000  0.000000 ICntrl=     500 IOpCl=  0
         NMat0=    1 NMatS0=    1 NMatT0=    0 NMatD0=    1 NMtDS0=    0 NMtDT0=    0
         I1Cent=           4 NGrid=           0.
 Petite list used in FoFCou.
 Initial guess orbital symmetries:
       Occupied  (A) (A) (A) (A) (A) (A) (A) (A) (A) (A) (A) (A)
                 (A) (A) (A) (A) (A) (A) (A) (A) (A) (A) (A) (A)
                 (A) (A) (A) (A) (A) (A) (A) (A) (A) (A) (A) (A)
                 (A) (A) (A) (A) (A) (A) (A) (A) (A) (A) (A) (A)
                 (A) (A) (A) (A) (A) (A) (A) (A) (A) (A) (A) (A)
                 (A) (A) (A) (A) (A) (A) (A) (A) (A) (A) (A) (A)
                 (A) (A) (A) (A) (A) (A) (A) (A) (A) (A) (A) (A)
                 (A) (A) (A) (A) (A) (A) (A) (A) (A) (A) (A) (A)
                 (A) (A) (A) (A) (A) (A) (A) (A) (A) (A) (A) (A)
                 (A) (A) (A) (A) (A) (A) (A) (A) (A)
       Virtual   (A) (A) (A) (A) (A) (A) (A) (A) (A) (A) (A) (A)
                 (A) (A) (A) (A) (A) (A) (A) (A) (A) (A) (A) (A)
                 (A) (A) (A) (A) (A) (A) (A) (A) (A) (A) (A) (A)
                 (A) (A) (A) (A) (A) (A) (A) (A) (A) (A) (A) (A)
                 (A) (A) (A) (A) (A) (A) (A) (A) (A) (A) (A) (A)
                 (A) (A) (A) (A) (A) (A) (A) (A) (A) (A) (A) (A)
                 (A) (A) (A) (A) (A) (A) (A) (A) (A) (A) (A) (A)
                 (A) (A) (A) (A) (A) (A) (A) (A) (A) (A) (A) (A)
                 (A) (A) (A) (A) (A) (A) (A) (A) (A) (A) (A) (A)
                 (A) (A) (A) (A) (A) (A) (A) (A) (A) (A) (A) (A)
                 (A) (A) (A) (A) (A) (A) (A) (A) (A) (A) (A) (A)
                 (A) (A) (A) (A) (A) (A) (A) (A) (A) (A) (A) (A)
                 (A) (A) (A) (A) (A) (A) (A) (A) (A) (A) (A) (A)
                 (A) (A) (A) (A) (A) (A) (A) (A) (A) (A) (A) (A)
                 (A) (A) (A) (A) (A) (A) (A) (A) (A) (A) (A) (A)
                 (A) (A) (A) (A) (A) (A) (A) (A) (A) (A) (A) (A)
                 (A) (A) (A) (A) (A) (A) (A) (A) (A) (A) (A) (A)
                 (A) (A) (A) (A) (A) (A) (A) (A) (A) (A) (A) (A)
                 (A) (A) (A) (A) (A) (A) (A) (A) (A) (A) (A) (A)
                 (A) (A) (A) (A) (A) (A) (A) (A) (A) (A) (A) (A)
                 (A) (A) (A) (A) (A) (A) (A) (A) (A) (A) (A) (A)
                 (A) (A) (A) (A) (A) (A) (A) (A) (A) (A) (A) (A)
                 (A) (A) (A) (A) (A) (A) (A) (A) (A) (A) (A) (A)
                 (A) (A) (A) (A) (A) (A) (A) (A) (A) (A) (A) (A)
                 (A) (A) (A) (A) (A) (A) (A) (A) (A) (A) (A) (A)
                 (A) (A) (A) (A) (A) (A) (A) (A) (A) (A) (A) (A)
                 (A) (A) (A) (A) (A) (A) (A) (A) (A) (A) (A) (A)
                 (A) (A) (A) (A) (A) (A) (A) (A) (A) (A) (A) (A)
                 (A) (A) (A) (A) (A) (A) (A) (A) (A) (A) (A) (A)
                 (A) (A) (A) (A) (A) (A) (A) (A) (A) (A) (A) (A)
                 (A) (A) (A) (A) (A) (A) (A) (A) (A) (A) (A) (A)
                 (A) (A) (A) (A) (A) (A) (A) (A) (A) (A) (A) (A)
                 (A) (A) (A) (A) (A) (A) (A) (A) (A) (A) (A) (A)
                 (A) (A) (A) (A) (A) (A) (A) (A) (A) (A) (A) (A)
                 (A) (A) (A) (A) (A) (A) (A) (A) (A) (A) (A) (A)
                 (A) (A) (A) (A) (A) (A) (A) (A) (A) (A) (A) (A)
                 (A) (A) (A) (A) (A) (A) (A) (A) (A) (A) (A) (A)
                 (A) (A) (A) (A) (A) (A) (A) (A) (A) (A) (A) (A)
                 (A) (A) (A) (A) (A) (A) (A) (A) (A) (A) (A) (A)
                 (A) (A) (A) (A) (A) (A) (A) (A) (A) (A)
 The electronic state of the initial guess is 1-A.
 Requested convergence on RMS density matrix=1.00D-08 within 128 cycles.
 Requested convergence on MAX density matrix=1.00D-06.
 Requested convergence on             energy=1.00D-06.
 No special actions if energy rises.
 SCF Done:  E(RB3LYP) =  -4541.21750429     A.U. after   17 cycles
             Convg  =    0.3165D-08             -V/T =  2.0014

 **********************************************************************

            Population analysis using the SCF density.

 **********************************************************************

 Orbital symmetries:
       Occupied  (A) (A) (A) (A) (A) (A) (A) (A) (A) (A) (A) (A)
                 (A) (A) (A) (A) (A) (A) (A) (A) (A) (A) (A) (A)
                 (A) (A) (A) (A) (A) (A) (A) (A) (A) (A) (A) (A)
                 (A) (A) (A) (A) (A) (A) (A) (A) (A) (A) (A) (A)
                 (A) (A) (A) (A) (A) (A) (A) (A) (A) (A) (A) (A)
                 (A) (A) (A) (A) (A) (A) (A) (A) (A) (A) (A) (A)
                 (A) (A) (A) (A) (A) (A) (A) (A) (A) (A) (A) (A)
                 (A) (A) (A) (A) (A) (A) (A) (A) (A) (A) (A) (A)
                 (A) (A) (A) (A) (A) (A) (A) (A) (A) (A) (A) (A)
                 (A) (A) (A) (A) (A) (A) (A) (A) (A)
       Virtual   (A) (A) (A) (A) (A) (A) (A) (A) (A) (A) (A) (A)
                 (A) (A) (A) (A) (A) (A) (A) (A) (A) (A) (A) (A)
                 (A) (A) (A) (A) (A) (A) (A) (A) (A) (A) (A) (A)
                 (A) (A) (A) (A) (A) (A) (A) (A) (A) (A) (A) (A)
                 (A) (A) (A) (A) (A) (A) (A) (A) (A) (A) (A) (A)
                 (A) (A) (A) (A) (A) (A) (A) (A) (A) (A) (A) (A)
                 (A) (A) (A) (A) (A) (A) (A) (A) (A) (A) (A) (A)
                 (A) (A) (A) (A) (A) (A) (A) (A) (A) (A) (A) (A)
                 (A) (A) (A) (A) (A) (A) (A) (A) (A) (A) (A) (A)
                 (A) (A) (A) (A) (A) (A) (A) (A) (A) (A) (A) (A)
                 (A) (A) (A) (A) (A) (A) (A) (A) (A) (A) (A) (A)
                 (A) (A) (A) (A) (A) (A) (A) (A) (A) (A) (A) (A)
                 (A) (A) (A) (A) (A) (A) (A) (A) (A) (A) (A) (A)
                 (A) (A) (A) (A) (A) (A) (A) (A) (A) (A) (A) (A)
                 (A) (A) (A) (A) (A) (A) (A) (A) (A) (A) (A) (A)
                 (A) (A) (A) (A) (A) (A) (A) (A) (A) (A) (A) (A)
                 (A) (A) (A) (A) (A) (A) (A) (A) (A) (A) (A) (A)
                 (A) (A) (A) (A) (A) (A) (A) (A) (A) (A) (A) (A)
                 (A) (A) (A) (A) (A) (A) (A) (A) (A) (A) (A) (A)
                 (A) (A) (A) (A) (A) (A) (A) (A) (A) (A) (A) (A)
                 (A) (A) (A) (A) (A) (A) (A) (A) (A) (A) (A) (A)
                 (A) (A) (A) (A) (A) (A) (A) (A) (A) (A) (A) (A)
                 (A) (A) (A) (A) (A) (A) (A) (A) (A) (A) (A) (A)
                 (A) (A) (A) (A) (A) (A) (A) (A) (A) (A) (A) (A)
                 (A) (A) (A) (A) (A) (A) (A) (A) (A) (A) (A) (A)
                 (A) (A) (A) (A) (A) (A) (A) (A) (A) (A) (A) (A)
                 (A) (A) (A) (A) (A) (A) (A) (A) (A) (A) (A) (A)
                 (A) (A) (A) (A) (A) (A) (A) (A) (A) (A) (A) (A)
                 (A) (A) (A) (A) (A) (A) (A) (A) (A) (A) (A) (A)
                 (A) (A) (A) (A) (A) (A) (A) (A) (A) (A) (A) (A)
                 (A) (A) (A) (A) (A) (A) (A) (A) (A) (A) (A) (A)
                 (A) (A) (A) (A) (A) (A) (A) (A) (A) (A) (A) (A)
                 (A) (A) (A) (A) (A) (A) (A) (A) (A) (A) (A) (A)
                 (A) (A) (A) (A) (A) (A) (A) (A) (A) (A) (A) (A)
                 (A) (A) (A) (A) (A) (A) (A) (A) (A) (A) (A) (A)
                 (A) (A) (A) (A) (A) (A) (A) (A) (A) (A) (A) (A)
                 (A) (A) (A) (A) (A) (A) (A) (A) (A) (A) (A) (A)
                 (A) (A) (A) (A) (A) (A) (A) (A) (A) (A) (A) (A)
                 (A) (A) (A) (A) (A) (A) (A) (A) (A) (A) (A) (A)
                 (A) (A) (A) (A) (A) (A) (A) (A) (A) (A)
 The electronic state is 1-A.
 Alpha  occ. eigenvalues -- -453.89401 -88.97804 -88.88498 -88.86495 -57.50794
 Alpha  occ. eigenvalues --  -52.17482 -52.17323 -52.17280 -14.35823 -14.35749
 Alpha  occ. eigenvalues --  -14.35634 -14.33881 -10.25886 -10.25582 -10.24542
 Alpha  occ. eigenvalues --  -10.24426 -10.23134 -10.22720 -10.21733 -10.21457
 Alpha  occ. eigenvalues --  -10.20731 -10.20660 -10.20655 -10.18888 -10.18037
 Alpha  occ. eigenvalues --  -10.17599 -10.17416 -10.17145 -10.17055 -10.16776
 Alpha  occ. eigenvalues --  -10.16695  -8.05207  -7.98868  -7.96466  -7.77784
 Alpha  occ. eigenvalues --   -6.01628  -6.00997  -6.00800  -5.95081  -5.94391
 Alpha  occ. eigenvalues --   -5.94229  -5.92705  -5.92000  -5.91895  -5.82245
 Alpha  occ. eigenvalues --   -5.81097  -5.81008  -2.18674  -2.18307  -2.17435
 Alpha  occ. eigenvalues --   -2.16693  -2.16543  -1.17682  -1.10070  -1.05914
 Alpha  occ. eigenvalues --   -1.03783  -0.97774  -0.95903  -0.89991  -0.89344
 Alpha  occ. eigenvalues --   -0.86231  -0.84531  -0.83078  -0.79576  -0.76839
 Alpha  occ. eigenvalues --   -0.76456  -0.73435  -0.73116  -0.69708  -0.69113
 Alpha  occ. eigenvalues --   -0.66405  -0.64350  -0.62807  -0.60585  -0.58952
 Alpha  occ. eigenvalues --   -0.58193  -0.57932  -0.56100  -0.56011  -0.55016
 Alpha  occ. eigenvalues --   -0.54662  -0.54629  -0.53265  -0.52268  -0.51385
 Alpha  occ. eigenvalues --   -0.49368  -0.49062  -0.48374  -0.45972  -0.45502
 Alpha  occ. eigenvalues --   -0.45006  -0.44645  -0.43361  -0.42620  -0.42198
 Alpha  occ. eigenvalues --   -0.41259  -0.40623  -0.38683  -0.38236  -0.37856
 Alpha  occ. eigenvalues --   -0.35240  -0.34497  -0.33774  -0.33633  -0.33037
 Alpha  occ. eigenvalues --   -0.32483  -0.31789  -0.30288  -0.30022  -0.29978
 Alpha  occ. eigenvalues --   -0.28901  -0.27557  -0.27097  -0.25550  -0.24777
 Alpha  occ. eigenvalues --   -0.23669  -0.21500
 Alpha virt. eigenvalues --   -0.07392  -0.03678  -0.03072  -0.02038  -0.01420
 Alpha virt. eigenvalues --   -0.00788  -0.00441   0.00103   0.00275   0.00751
 Alpha virt. eigenvalues --    0.01265   0.01408   0.01725   0.02029   0.02193
 Alpha virt. eigenvalues --    0.02361   0.02633   0.02812   0.03305   0.03514
 Alpha virt. eigenvalues --    0.03732   0.04333   0.04607   0.04652   0.05070
 Alpha virt. eigenvalues --    0.05686   0.06170   0.06532   0.06930   0.07150
 Alpha virt. eigenvalues --    0.07321   0.07718   0.08071   0.08194   0.08800
 Alpha virt. eigenvalues --    0.09170   0.09435   0.09723   0.09972   0.09993
 Alpha virt. eigenvalues --    0.10320   0.10667   0.10973   0.11267   0.11479
 Alpha virt. eigenvalues --    0.11534   0.11681   0.12077   0.12357   0.12495
 Alpha virt. eigenvalues --    0.12786   0.12984   0.13022   0.13140   0.13336
 Alpha virt. eigenvalues --    0.13483   0.13741   0.14102   0.14169   0.14347
 Alpha virt. eigenvalues --    0.14467   0.14825   0.15105   0.15295   0.15730
 Alpha virt. eigenvalues --    0.15915   0.16045   0.16214   0.16451   0.16743
 Alpha virt. eigenvalues --    0.16837   0.17179   0.17432   0.17561   0.17867
 Alpha virt. eigenvalues --    0.18059   0.18224   0.18403   0.18620   0.19274
 Alpha virt. eigenvalues --    0.19530   0.19774   0.20283   0.20358   0.20483
 Alpha virt. eigenvalues --    0.20787   0.21111   0.21209   0.21578   0.21780
 Alpha virt. eigenvalues --    0.22179   0.22260   0.22446   0.22626   0.23214
 Alpha virt. eigenvalues --    0.23384   0.23511   0.23881   0.24204   0.24382
 Alpha virt. eigenvalues --    0.24616   0.24813   0.25070   0.25548   0.26049
 Alpha virt. eigenvalues --    0.26154   0.26695   0.26700   0.26816   0.27076
 Alpha virt. eigenvalues --    0.27402   0.27824   0.27958   0.28351   0.28524
 Alpha virt. eigenvalues --    0.28973   0.29151   0.29490   0.29794   0.30453
 Alpha virt. eigenvalues --    0.30801   0.31125   0.31379   0.31562   0.31983
 Alpha virt. eigenvalues --    0.32263   0.32474   0.32742   0.33104   0.33379
 Alpha virt. eigenvalues --    0.33706   0.34046   0.34124   0.34737   0.34824
 Alpha virt. eigenvalues --    0.35226   0.35404   0.36048   0.36577   0.36972
 Alpha virt. eigenvalues --    0.37370   0.37843   0.38216   0.38596   0.38945
 Alpha virt. eigenvalues --    0.39427   0.39978   0.41030   0.41050   0.41757
 Alpha virt. eigenvalues --    0.41809   0.42144   0.43379   0.43635   0.44251
 Alpha virt. eigenvalues --    0.45230   0.46345   0.46697   0.49087   0.50561
 Alpha virt. eigenvalues --    0.50789   0.51285   0.52174   0.52604   0.53847
 Alpha virt. eigenvalues --    0.54784   0.56072   0.56326   0.57216   0.58426
 Alpha virt. eigenvalues --    0.60208   0.60957   0.63161   0.63587   0.65728
 Alpha virt. eigenvalues --    0.66258   0.67559   0.67870   0.68201   0.69117
 Alpha virt. eigenvalues --    0.69342   0.70138   0.70637   0.71102   0.71579
 Alpha virt. eigenvalues --    0.71835   0.72671   0.73444   0.73566   0.74108
 Alpha virt. eigenvalues --    0.74319   0.74647   0.74814   0.75133   0.76042
 Alpha virt. eigenvalues --    0.76337   0.76491   0.76810   0.77563   0.77856
 Alpha virt. eigenvalues --    0.78078   0.78133   0.78529   0.78899   0.79112
 Alpha virt. eigenvalues --    0.79790   0.80594   0.81225   0.82238   0.82361
 Alpha virt. eigenvalues --    0.82690   0.83177   0.83812   0.84088   0.84554
 Alpha virt. eigenvalues --    0.85071   0.85651   0.85770   0.86796   0.87592
 Alpha virt. eigenvalues --    0.88458   0.88638   0.89039   0.91214   0.92086
 Alpha virt. eigenvalues --    0.92763   0.93215   0.93614   0.94360   0.94590
 Alpha virt. eigenvalues --    0.94751   0.95695   0.96431   0.96642   0.96927
 Alpha virt. eigenvalues --    0.97475   0.97998   0.99031   0.99237   0.99594
 Alpha virt. eigenvalues --    1.01026   1.01712   1.02009   1.02215   1.03167
 Alpha virt. eigenvalues --    1.03777   1.04179   1.04751   1.05743   1.06198
 Alpha virt. eigenvalues --    1.06899   1.07587   1.08467   1.09754   1.10973
 Alpha virt. eigenvalues --    1.12541   1.13075   1.13739   1.14246   1.14846
 Alpha virt. eigenvalues --    1.17666   1.18230   1.19283   1.19621   1.19931
 Alpha virt. eigenvalues --    1.20525   1.22210   1.22764   1.23364   1.23884
 Alpha virt. eigenvalues --    1.25536   1.26112   1.26241   1.26780   1.27772
 Alpha virt. eigenvalues --    1.28344   1.28516   1.30007   1.30622   1.31918
 Alpha virt. eigenvalues --    1.32228   1.32593   1.32809   1.33482   1.33803
 Alpha virt. eigenvalues --    1.34904   1.36621   1.37582   1.38477   1.38740
 Alpha virt. eigenvalues --    1.39568   1.40310   1.42053   1.42384   1.42908
 Alpha virt. eigenvalues --    1.43288   1.43916   1.47853   1.48169   1.50338
 Alpha virt. eigenvalues --    1.51102   1.51633   1.53788   1.55280   1.57208
 Alpha virt. eigenvalues --    1.57759   1.60934   1.62069   1.63510   1.64191
 Alpha virt. eigenvalues --    1.65990   1.67786   1.69208   1.70413   1.73388
 Alpha virt. eigenvalues --    1.74036   1.74555   1.76830   1.77050   1.78239
 Alpha virt. eigenvalues --    1.80620   1.81998   1.82750   1.83811   1.84098
 Alpha virt. eigenvalues --    1.85796   1.86402   1.87607   1.89181   1.90774
 Alpha virt. eigenvalues --    1.91811   1.92380   1.93115   1.94025   1.94282
 Alpha virt. eigenvalues --    1.94520   1.94836   1.96435   1.97375   1.99461
 Alpha virt. eigenvalues --    2.00071   2.01502   2.02833   2.03623   2.03662
 Alpha virt. eigenvalues --    2.06430   2.06979   2.08114   2.08779   2.09642
 Alpha virt. eigenvalues --    2.10151   2.10330   2.11635   2.12419   2.13041
 Alpha virt. eigenvalues --    2.15687   2.17275   2.17736   2.18932   2.21112
 Alpha virt. eigenvalues --    2.21812   2.24881   2.25194   2.26244   2.26806
 Alpha virt. eigenvalues --    2.28078   2.29480   2.30616   2.32070   2.34423
 Alpha virt. eigenvalues --    2.35352   2.35649   2.37235   2.38203   2.39294
 Alpha virt. eigenvalues --    2.39753   2.40441   2.42263   2.43171   2.44285
 Alpha virt. eigenvalues --    2.45826   2.46252   2.49615   2.52300   2.52823
 Alpha virt. eigenvalues --    2.53182   2.53536   2.53669   2.55193   2.56074
 Alpha virt. eigenvalues --    2.57808   2.57942   2.58825   2.59517   2.61599
 Alpha virt. eigenvalues --    2.62524   2.63755   2.64022   2.64442   2.65984
 Alpha virt. eigenvalues --    2.66828   2.67702   2.68946   2.69126   2.70545
 Alpha virt. eigenvalues --    2.72311   2.73048   2.73805   2.74526   2.75723
 Alpha virt. eigenvalues --    2.77016   2.77989   2.78308   2.79643   2.80993
 Alpha virt. eigenvalues --    2.81719   2.82370   2.82609   2.83944   2.87601
 Alpha virt. eigenvalues --    2.88998   2.91249   2.91951   2.93439   2.95726
 Alpha virt. eigenvalues --    2.98638   3.00292   3.01738   3.04894   3.06296
 Alpha virt. eigenvalues --    3.09438   3.14442   3.16140   3.21935   3.23487
 Alpha virt. eigenvalues --    3.25980   3.28729   3.32531   3.35026   3.41682
 Alpha virt. eigenvalues --    3.47181   3.49574   3.53852   3.54215   3.54672
 Alpha virt. eigenvalues --    3.67258   3.70964   3.76482   3.80570   3.89658
 Alpha virt. eigenvalues --    3.97175   4.03222   4.11537   4.18751   4.28381
 Alpha virt. eigenvalues --    4.34445   4.36243   4.37853   4.38405   4.39922
 Alpha virt. eigenvalues --    4.41637   4.43389   4.45650   4.47120   4.49820
 Alpha virt. eigenvalues --    4.52004   4.52721   4.57267   4.61665   4.68186
 Alpha virt. eigenvalues --    4.70729   4.79536   4.81980   4.86464   4.90518
 Alpha virt. eigenvalues --    5.00013   8.66380  86.98125
          Condensed to atoms (all electrons):
              1          2          3          4          5          6
     1  C   12.565605  -5.573348   7.620041  -5.648576  -3.457762  -0.093941
     2  C   -5.573348  16.147882 -11.672050   5.554433   3.440778  -0.690850
     3  C    7.620041 -11.672050  23.424490 -10.955210  -5.393919   0.153939
     4  C   -5.648576   5.554433 -10.955210  17.413557   4.677787  -0.459922
     5  C   -3.457762   3.440778  -5.393919   4.677787  18.518923  -4.796569
     6  C   -0.093941  -0.690850   0.153939  -0.459922  -4.796569  10.220763
     7  S   -0.213109   0.856968  -0.008500  -0.349203   2.467396  -2.690066
     8  C    0.941563  -1.588287   2.827928  -2.561121  -5.590100   1.989997
     9  C   -0.020813  -0.093845   1.154481  -1.567869  -1.830086   0.867051
    10  N   -0.013082   0.026523  -0.048498   0.155839  -0.107297   0.141163
    11  C   -0.005690   0.031318   0.493500  -1.162769  -0.122861   0.032874
    12  C    0.112733  -0.508201  -0.265275   0.420494  -0.506219   0.244719
    13  S   -0.069794  -0.162567  -0.859672  -0.012967  -1.049407   0.240108
    14  C    0.036864  -0.050184   0.075842  -0.068733   0.045300  -0.028750
    15  C    0.009720  -0.008896   0.044296  -0.055878   0.024909  -0.013834
    16  C   -0.002458   0.005719  -0.008210   0.024097  -0.004520   0.004438
    17  C    0.000637  -0.017092  -0.034129   0.021657   0.011162  -0.001429
    18  Se  -0.009951  -0.019686  -0.103635   0.220265   0.055775   0.012618
    19  C    0.002981  -0.020264   0.010533  -0.023364  -0.000699  -0.000692
    20  C    0.003299  -0.003259   0.046734  -0.049678  -0.010106  -0.000942
    21  N   -0.000249   0.002136  -0.000558   0.000036   0.000102  -0.000003
    22  C   -0.000190   0.000537  -0.001125   0.002216   0.000337   0.000004
    23  C    0.000176  -0.000866  -0.000532  -0.000932  -0.000192  -0.000002
    24  N   -0.000000   0.000001  -0.000002   0.000007   0.000000  -0.000000
    25  S    0.000001   0.000018   0.000038   0.000002  -0.000001  -0.000003
    26  N   -0.000001   0.000009   0.000014   0.000007  -0.000002   0.000001
    27  C    0.000370  -0.001025  -0.002552   0.009167   0.001795  -0.000546
    28  H    0.554329  -0.224293   0.205460  -0.113231  -0.168945   0.025052
    29  H    0.517300  -0.144718   0.135919  -0.094682  -0.143522   0.013616
    30  H   -0.224040   0.505552  -0.216955   0.130233   0.223263  -0.041668
    31  H    0.215923  -0.378143   0.640639  -0.186419   0.039736   0.017983
    32  H   -0.145441   0.012041  -0.052501   0.096655  -0.232112   0.571866
    33  H   -0.001493   0.004448   0.006492  -0.020910   0.004143  -0.006783
    34  H    0.000489  -0.000669   0.001231  -0.000489  -0.000014  -0.000600
    35  H   -0.000050   0.000142   0.000060   0.000123  -0.000061   0.000043
    36  H   -0.007874   0.055353  -0.004860  -0.030754  -0.012135  -0.000045
    37  H    0.000002  -0.000032   0.000006   0.000009   0.000002  -0.000001
              7          8          9         10         11         12
     1  C   -0.213109   0.941563  -0.020813  -0.013082  -0.005690   0.112733
     2  C    0.856968  -1.588287  -0.093845   0.026523   0.031318  -0.508201
     3  C   -0.008500   2.827928   1.154481  -0.048498   0.493500  -0.265275
     4  C   -0.349203  -2.561121  -1.567869   0.155839  -1.162769   0.420494
     5  C    2.467396  -5.590100  -1.830086  -0.107297  -0.122861  -0.506219
     6  C   -2.690066   1.989997   0.867051   0.141163   0.032874   0.244719
     7  S   20.236489  -1.504301  -0.694675  -0.050376   0.037525  -1.624552
     8  C   -1.504301  11.577798   1.481243  -0.207680   0.296819  -0.078820
     9  C   -0.694675   1.481243  15.507084   0.717049  -0.215822  -6.082649
    10  N   -0.050376  -0.207680   0.717049   7.091662  -0.340535   0.266462
    11  C    0.037525   0.296819  -0.215822  -0.340535  11.759949  -4.951177
    12  C   -1.624552  -0.078820  -6.082649   0.266462  -4.951177  29.461201
    13  S   -0.520562  -1.250308  -5.088917  -0.415865  -1.310964  -3.611821
    14  C    0.092325  -0.068958   1.623901  -0.016827   0.092544   0.351237
    15  C    0.019975  -0.109809  -0.035219  -0.019196   0.420650  -7.774105
    16  C    0.019660   0.077015   0.729047   0.009680  -0.388790   3.139368
    17  C   -0.034261  -0.233818  -0.514652   0.000989   0.429613  -1.275836
    18  Se  -0.069560  -0.138174  -0.252090   0.061567   0.162591   1.372649
    19  C    0.000110   0.047526  -0.147892  -0.016732   0.129534  -0.749133
    20  C    0.014622   0.081687   0.261249  -0.011235  -0.220891  -0.142113
    21  N   -0.000002  -0.000777  -0.002116   0.000002   0.005558  -0.000338
    22  C    0.000126  -0.000060   0.006902  -0.000065  -0.006838  -0.002452
    23  C   -0.000388  -0.001539  -0.024997   0.000283   0.002688   0.028617
    24  N    0.000000  -0.000002   0.000071  -0.000002  -0.000070  -0.002165
    25  S    0.000024   0.000163   0.001067  -0.000018  -0.001309  -0.007573
    26  N    0.000002   0.000106   0.000587  -0.000013  -0.001041   0.010716
    27  C    0.000218  -0.004149  -0.003693   0.000358   0.026532  -0.609770
    28  H   -0.017771   0.030505   0.002796  -0.000021   0.000178   0.001531
    29  H   -0.007167   0.024970   0.003683   0.000226   0.000237  -0.000276
    30  H    0.007634  -0.085833  -0.024465   0.000372  -0.003577   0.001628
    31  H   -0.068077  -0.090540   0.093895  -0.004383   0.065632  -0.059004
    32  H   -0.250151   0.153349   0.074766   0.003370   0.001952   0.002116
    33  H    0.000528   0.022924  -0.122572  -0.109091   0.815216  -0.784460
    34  H    0.002202   0.004468   0.010600  -0.002634  -0.110799  -0.202186
    35  H    0.000462   0.001497   0.024331  -0.000320  -0.008875   0.085006
    36  H    0.013963   0.041722   0.066120  -0.004940  -0.049879  -0.126277
    37  H    0.000003   0.000024   0.000181  -0.000006  -0.000162  -0.000599
             13         14         15         16         17         18
     1  C   -0.069794   0.036864   0.009720  -0.002458   0.000637  -0.009951
     2  C   -0.162567  -0.050184  -0.008896   0.005719  -0.017092  -0.019686
     3  C   -0.859672   0.075842   0.044296  -0.008210  -0.034129  -0.103635
     4  C   -0.012967  -0.068733  -0.055878   0.024097   0.021657   0.220265
     5  C   -1.049407   0.045300   0.024909  -0.004520   0.011162   0.055775
     6  C    0.240108  -0.028750  -0.013834   0.004438  -0.001429   0.012618
     7  S   -0.520562   0.092325   0.019975   0.019660  -0.034261  -0.069560
     8  C   -1.250308  -0.068958  -0.109809   0.077015  -0.233818  -0.138174
     9  C   -5.088917   1.623901  -0.035219   0.729047  -0.514652  -0.252090
    10  N   -0.415865  -0.016827  -0.019196   0.009680   0.000989   0.061567
    11  C   -1.310964   0.092544   0.420650  -0.388790   0.429613   0.162591
    12  C   -3.611821   0.351237  -7.774105   3.139368  -1.275836   1.372649
    13  S   31.717971  -1.608884   1.223328  -0.940674  -0.865007  -1.285511
    14  C   -1.608884  14.120434  -9.204165   5.935541  -6.336539   0.226328
    15  C    1.223328  -9.204165  25.544587 -11.248414   4.832711  -1.515129
    16  C   -0.940674   5.935541 -11.248414  23.815474 -19.132177  -1.817249
    17  C   -0.865007  -6.336539   4.832711 -19.132177  58.447665   6.453489
    18  Se  -1.285511   0.226328  -1.515129  -1.817249   6.453489  36.587034
    19  C    0.347890   1.433638   0.868176   4.972379 -17.776108  -2.116511
    20  C    0.749748   1.113095  -0.377334   3.049155 -15.452430  -2.996077
    21  N   -0.023335  -0.051859   0.039620  -0.167237   0.604561   0.179630
    22  C    0.002699  -0.072928   0.025833  -0.024501   1.223382  -0.198550
    23  C    0.064231  -0.309469   0.835818  -1.486693   1.528284   0.305965
    24  N   -0.000993  -0.006773  -0.010628  -0.000861   0.037130   0.005173
    25  S    0.006589   0.040908   0.041698   0.313333  -1.368492  -0.101438
    26  N   -0.004852   0.026135  -0.074248   0.301614  -0.372208  -0.024306
    27  C    0.181798  -1.391811   2.385092  -1.452968  -3.027057  -0.390971
    28  H    0.000834   0.000177  -0.000017  -0.000049  -0.000005   0.000366
    29  H   -0.001133   0.000197   0.000096   0.000024   0.000050  -0.000658
    30  H    0.009377  -0.002204  -0.001059   0.000201  -0.000027   0.001362
    31  H   -0.152362   0.039994   0.026026  -0.007175  -0.007414  -0.011004
    32  H   -0.004340  -0.000792  -0.000205   0.000060  -0.000148   0.000163
    33  H    0.391244  -0.095256   0.109889  -0.033399  -0.006771  -0.089137
    34  H    0.117522  -0.320812   1.089968  -0.436047  -0.133186  -0.084117
    35  H   -0.015614   0.210636  -0.545335   1.309827  -0.867044  -0.133929
    36  H    0.175669   0.005791   0.065243   0.266171  -0.950545  -0.630077
    37  H    0.001044  -0.001096   0.001352   0.005353  -0.017387  -0.014747
             19         20         21         22         23         24
     1  C    0.002981   0.003299  -0.000249  -0.000190   0.000176  -0.000000
     2  C   -0.020264  -0.003259   0.002136   0.000537  -0.000866   0.000001
     3  C    0.010533   0.046734  -0.000558  -0.001125  -0.000532  -0.000002
     4  C   -0.023364  -0.049678   0.000036   0.002216  -0.000932   0.000007
     5  C   -0.000699  -0.010106   0.000102   0.000337  -0.000192   0.000000
     6  C   -0.000692  -0.000942  -0.000003   0.000004  -0.000002  -0.000000
     7  S    0.000110   0.014622  -0.000002   0.000126  -0.000388   0.000000
     8  C    0.047526   0.081687  -0.000777  -0.000060  -0.001539  -0.000002
     9  C   -0.147892   0.261249  -0.002116   0.006902  -0.024997   0.000071
    10  N   -0.016732  -0.011235   0.000002  -0.000065   0.000283  -0.000002
    11  C    0.129534  -0.220891   0.005558  -0.006838   0.002688  -0.000070
    12  C   -0.749133  -0.142113  -0.000338  -0.002452   0.028617  -0.002165
    13  S    0.347890   0.749748  -0.023335   0.002699   0.064231  -0.000993
    14  C    1.433638   1.113095  -0.051859  -0.072928  -0.309469  -0.006773
    15  C    0.868176  -0.377334   0.039620   0.025833   0.835818  -0.010628
    16  C    4.972379   3.049155  -0.167237  -0.024501  -1.486693  -0.000861
    17  C  -17.776108 -15.452430   0.604561   1.223382   1.528284   0.037130
    18  Se  -2.116511  -2.996077   0.179630  -0.198550   0.305965   0.005173
    19  C   28.239165  -4.002226   0.574609  -0.517108  -7.804222   0.586596
    20  C   -4.002226  26.012471  -0.606266  -2.068162  -0.983802  -0.004664
    21  N    0.574609  -0.606266   6.811855  -0.066608   0.180343   0.012025
    22  C   -0.517108  -2.068162  -0.066608  12.945169   0.255848  -0.695170
    23  C   -7.804222  -0.983802   0.180343   0.255848  28.706692  -1.583811
    24  N    0.586596  -0.004664   0.012025  -0.695170  -1.583811   7.881183
    25  S    0.544453   0.796458  -0.000728  -0.615991  -1.502527  -0.106514
    26  N   -0.696400  -0.067327  -0.016767   0.483673   2.703967  -0.641125
    27  C    3.318997  -0.421522   0.006212  -5.338541 -14.693868   1.879558
    28  H    0.000047   0.000155  -0.000007  -0.000003   0.000003  -0.000000
    29  H   -0.000042  -0.000265   0.000012   0.000005  -0.000003   0.000000
    30  H   -0.000580  -0.000148   0.000026  -0.000012  -0.000005   0.000000
    31  H    0.015727   0.009883  -0.000889   0.000559  -0.000618   0.000001
    32  H    0.000019   0.000022  -0.000000  -0.000000  -0.000000  -0.000000
    33  H    0.041731  -0.000572   0.000131  -0.000209  -0.000235   0.000014
    34  H    0.164122   0.073336  -0.001334   0.000541  -0.001019  -0.000062
    35  H    0.083671   0.027699  -0.006454   0.021105  -0.054998   0.010883
    36  H   -1.336934   2.047139  -0.236766   0.271225   0.037574  -0.006238
    37  H   -0.021552   0.024162  -0.135188   0.768555  -0.380323  -0.001875
             25         26         27         28         29         30
     1  C    0.000001  -0.000001   0.000370   0.554329   0.517300  -0.224040
     2  C    0.000018   0.000009  -0.001025  -0.224293  -0.144718   0.505552
     3  C    0.000038   0.000014  -0.002552   0.205460   0.135919  -0.216955
     4  C    0.000002   0.000007   0.009167  -0.113231  -0.094682   0.130233
     5  C   -0.000001  -0.000002   0.001795  -0.168945  -0.143522   0.223263
     6  C   -0.000003   0.000001  -0.000546   0.025052   0.013616  -0.041668
     7  S    0.000024   0.000002   0.000218  -0.017771  -0.007167   0.007634
     8  C    0.000163   0.000106  -0.004149   0.030505   0.024970  -0.085833
     9  C    0.001067   0.000587  -0.003693   0.002796   0.003683  -0.024465
    10  N   -0.000018  -0.000013   0.000358  -0.000021   0.000226   0.000372
    11  C   -0.001309  -0.001041   0.026532   0.000178   0.000237  -0.003577
    12  C   -0.007573   0.010716  -0.609770   0.001531  -0.000276   0.001628
    13  S    0.006589  -0.004852   0.181798   0.000834  -0.001133   0.009377
    14  C    0.040908   0.026135  -1.391811   0.000177   0.000197  -0.002204
    15  C    0.041698  -0.074248   2.385092  -0.000017   0.000096  -0.001059
    16  C    0.313333   0.301614  -1.452968  -0.000049   0.000024   0.000201
    17  C   -1.368492  -0.372208  -3.027057  -0.000005   0.000050  -0.000027
    18  Se  -0.101438  -0.024306  -0.390971   0.000366  -0.000658   0.001362
    19  C    0.544453  -0.696400   3.318997   0.000047  -0.000042  -0.000580
    20  C    0.796458  -0.067327  -0.421522   0.000155  -0.000265  -0.000148
    21  N   -0.000728  -0.016767   0.006212  -0.000007   0.000012   0.000026
    22  C   -0.615991   0.483673  -5.338541  -0.000003   0.000005  -0.000012
    23  C   -1.502527   2.703967 -14.693868   0.000003  -0.000003  -0.000005
    24  N   -0.106514  -0.641125   1.879558  -0.000000   0.000000   0.000000
    25  S   16.884490  -0.426303   0.585337   0.000000  -0.000000   0.000001
    26  N   -0.426303   8.444840  -2.287359  -0.000000  -0.000000   0.000001
    27  C    0.585337  -2.287359  27.045755   0.000006  -0.000008  -0.000065
    28  H    0.000000  -0.000000   0.000006   0.584976  -0.056241  -0.001273
    29  H   -0.000000  -0.000000  -0.000008  -0.056241   0.581562   0.001143
    30  H    0.000001   0.000001  -0.000065  -0.001273   0.001143   0.639989
    31  H    0.000018  -0.000040   0.004572   0.003458  -0.005183  -0.030583
    32  H   -0.000000   0.000000  -0.000006  -0.000869  -0.000465   0.000198
    33  H    0.000137  -0.000116   0.010193   0.000004  -0.000020  -0.000040
    34  H    0.006444   0.001886   0.038642   0.000007  -0.000001  -0.000007
    35  H   -0.050503   0.022439   0.065303  -0.000000  -0.000000  -0.000001
    36  H   -0.012298  -0.006042  -0.354161  -0.000536   0.000809   0.000574
    37  H   -0.018711   0.003395  -0.053110   0.000000  -0.000000  -0.000005
             31         32         33         34         35         36
     1  C    0.215923  -0.145441  -0.001493   0.000489  -0.000050  -0.007874
     2  C   -0.378143   0.012041   0.004448  -0.000669   0.000142   0.055353
     3  C    0.640639  -0.052501   0.006492   0.001231   0.000060  -0.004860
     4  C   -0.186419   0.096655  -0.020910  -0.000489   0.000123  -0.030754
     5  C    0.039736  -0.232112   0.004143  -0.000014  -0.000061  -0.012135
     6  C    0.017983   0.571866  -0.006783  -0.000600   0.000043  -0.000045
     7  S   -0.068077  -0.250151   0.000528   0.002202   0.000462   0.013963
     8  C   -0.090540   0.153349   0.022924   0.004468   0.001497   0.041722
     9  C    0.093895   0.074766  -0.122572   0.010600   0.024331   0.066120
    10  N   -0.004383   0.003370  -0.109091  -0.002634  -0.000320  -0.004940
    11  C    0.065632   0.001952   0.815216  -0.110799  -0.008875  -0.049879
    12  C   -0.059004   0.002116  -0.784460  -0.202186   0.085006  -0.126277
    13  S   -0.152362  -0.004340   0.391244   0.117522  -0.015614   0.175669
    14  C    0.039994  -0.000792  -0.095256  -0.320812   0.210636   0.005791
    15  C    0.026026  -0.000205   0.109889   1.089968  -0.545335   0.065243
    16  C   -0.007175   0.000060  -0.033399  -0.436047   1.309827   0.266171
    17  C   -0.007414  -0.000148  -0.006771  -0.133186  -0.867044  -0.950545
    18  Se  -0.011004   0.000163  -0.089137  -0.084117  -0.133929  -0.630077
    19  C    0.015727   0.000019   0.041731   0.164122   0.083671  -1.336934
    20  C    0.009883   0.000022  -0.000572   0.073336   0.027699   2.047139
    21  N   -0.000889  -0.000000   0.000131  -0.001334  -0.006454  -0.236766
    22  C    0.000559  -0.000000  -0.000209   0.000541   0.021105   0.271225
    23  C   -0.000618  -0.000000  -0.000235  -0.001019  -0.054998   0.037574
    24  N    0.000001  -0.000000   0.000014  -0.000062   0.010883  -0.006238
    25  S    0.000018  -0.000000   0.000137   0.006444  -0.050503  -0.012298
    26  N   -0.000040   0.000000  -0.000116   0.001886   0.022439  -0.006042
    27  C    0.004572  -0.000006   0.010193   0.038642   0.065303  -0.354161
    28  H    0.003458  -0.000869   0.000004   0.000007  -0.000000  -0.000536
    29  H   -0.005183  -0.000465  -0.000020  -0.000001  -0.000000   0.000809
    30  H   -0.030583   0.000198  -0.000040  -0.000007  -0.000001   0.000574
    31  H    0.785584   0.000463   0.000730   0.000354  -0.000008  -0.021226
    32  H    0.000463   0.608289  -0.000090   0.000001   0.000000   0.000045
    33  H    0.000730  -0.000090   0.729247  -0.003943   0.001244   0.002496
    34  H    0.000354   0.000001  -0.003943   0.698410  -0.021915   0.004423
    35  H   -0.000008   0.000000   0.001244  -0.021915   0.685363   0.009236
    36  H   -0.021226   0.000045   0.002496   0.004423   0.009236   1.500172
    37  H    0.000109  -0.000000  -0.000003   0.000114   0.000837   0.014032
             37
     1  C    0.000002
     2  C   -0.000032
     3  C    0.000006
     4  C    0.000009
     5  C    0.000002
     6  C   -0.000001
     7  S    0.000003
     8  C    0.000024
     9  C    0.000181
    10  N   -0.000006
    11  C   -0.000162
    12  C   -0.000599
    13  S    0.001044
    14  C   -0.001096
    15  C    0.001352
    16  C    0.005353
    17  C   -0.017387
    18  Se  -0.014747
    19  C   -0.021552
    20  C    0.024162
    21  N   -0.135188
    22  C    0.768555
    23  C   -0.380323
    24  N   -0.001875
    25  S   -0.018711
    26  N    0.003395
    27  C   -0.053110
[...]
 ,0.00000368,0.00001555,0.00000151,0.00005572,0.00000476,-0.00000642,0.
 00000087,-0.00001807,0.00002889,-0.00000478,0.00040794,0.00012984,-0.0
 0010058,0.00132811,-0.00259702,-0.00114182,0.00818388,-0.00400795,0.00
 205150,-0.24079640,0.14078735,-0.03114577,-0.01426750,0.01583069,-0.00
 226069,-0.00192244,-0.00000175,-0.00218137,0.00020786,0.00059944,0.000
 77654,-0.00063909,0.00022236,-0.00017853,0.00031351,-0.00040160,0.0000
 9230,0.00004761,0.00031210,0.00003862,0.00021655,-0.00015037,0.0000856
 8,-0.00005000,-0.00018257,-0.00002671,0.00007772,0.00002114,0.00002188
 ,-0.00001176,-0.00002488,-0.00000333,0.00000678,0.00003698,0.00000448,
 0.00002910,-0.00000249,0.00000511,0.00002888,0.00001409,0.00001391,-0.
 00002135,-0.00001320,-0.00001378,0.00001006,0.00001070,0.00000416,-0.0
 0002980,0.00002458,0.00001045,0.00000540,0.00000836,0.00000609,0.00000
 740,0.00000566,0.00000101,-0.00000255,0.00000264,-0.00000346,0.0000930
 0,-0.00000123,0.00000892,-0.00000204,0.00000909,-0.00000215,0.24626139
 ,-0.00001967,-0.00002774,-0.00001132,0.00008643,0.00003277,0.00003558,
 -0.00012490,-0.00002955,-0.00005079,-0.00036488,-0.00028696,-0.0001305
 5,0.00002455,-0.00008888,0.00003200,0.00005422,-0.00012248,-0.00000509
 ,0.00007043,0.00014336,0.00003796,0.00143418,-0.00011343,0.00021892,-0
 .00015930,-0.00538756,-0.00164721,0.02378138,-0.02198845,0.00302808,0.
 13528747,-0.15348046,0.01502114,-0.00769750,0.00894937,-0.00112719,-0.
 00234402,0.00098374,-0.00154647,0.00026158,-0.00027375,0.00041186,-0.0
 0029759,-0.00009087,-0.00002751,-0.00009000,-0.00010157,0.00004203,0.0
 0015363,0.00002401,0.00003675,0.00021180,0.00003568,0.00009277,-0.0000
 5568,-0.00002893,-0.00002423,0.00004764,-0.00001729,0.00000119,-0.0000
 0553,-0.00001611,-0.00000153,-0.00000565,0.00001993,0.00000252,0.00000
 516,0.00000803,0.00000265,0.00001433,0.00001025,0.00000745,-0.00001585
 ,-0.00000241,-0.00000691,0.00000566,0.00001034,0.00000185,-0.00000641,
 0.00000275,-0.00000073,0.00001177,-0.00000732,0.00000079,0.00001113,-0
 .00001071,0.00000348,0.00000778,-0.00000261,-0.00000045,0.00007791,0.0
 0002175,0.00001716,0.00000933,-0.00000881,-0.00000097,-0.14976571,0.17
 266706,-0.00001232,0.00000133,0.00000928,0.00003834,0.00000250,-0.0000
 1269,-0.00006214,-0.00000500,-0.00000034,-0.00001770,-0.00008304,-0.00
 013260,0.00007111,0.00002148,-0.00019376,0.00000657,-0.00002841,0.0000
 1778,-0.00000996,0.00002785,0.00001636,0.00010126,-0.00009861,0.000930
 97,-0.00060906,-0.00241446,0.00343918,0.00682526,-0.00431049,-0.000902
 47,-0.03166414,0.01637915,-0.03938179,-0.00673916,0.00476875,0.0037295
 8,-0.00273356,-0.00078064,0.00504196,0.00089232,0.00088524,-0.00220145
 ,0.00002374,0.00003774,0.00012725,0.00011843,-0.00012831,-0.00053020,0
 .00013425,0.00008445,-0.00003560,0.00000775,0.00003929,-0.00005703,-0.
 00004749,-0.00008384,0.00003961,0.00003085,0.00001936,0.00004394,-0.00
 000954,-0.00001394,-0.00002645,0.00000630,0.00002019,0.00000237,0.0000
 1722,-0.00000185,0.00000408,0.00001161,0.00000371,-0.00000317,-0.00001
 115,0.00000124,0.00000568,0.00000076,-0.00000011,-0.00000813,-0.000012
 26,0.00000690,0.00001557,0.00000629,-0.00000682,-0.00000074,0.00000258
 ,0.00000724,-0.00000057,-0.00000195,-0.00000049,0.00000765,0.00001410,
 -0.00000709,0.00007469,-0.00000225,-0.00000046,0.00001007,0.03388574,-
 0.01406320,0.02905706,0.00000239,-0.00000123,-0.00001141,0.00000981,0.
 00000049,0.00001968,0.00000030,-0.00001157,-0.00002371,-0.00001555,-0.
 00000235,-0.00003055,-0.00001237,-0.00000542,0.00003154,0.00000895,-0.
 00000404,-0.00001140,0.00000529,0.00002249,0.00000141,0.00007809,0.000
 01172,-0.00002998,-0.00010520,-0.00009415,-0.00000747,0.00031727,-0.00
 007406,0.00023845,-0.00029940,0.00012460,-0.00006865,-0.00067585,-0.00
 115224,0.00150116,0.00002947,0.00012213,0.00011281,-0.00998203,-0.0002
 3631,-0.00683782,-0.30125175,0.00671350,-0.10622066,-0.00717291,0.0034
 9601,-0.00224309,0.00010068,-0.00100748,-0.00163632,0.00070246,0.00103
 323,-0.00156588,-0.00003447,0.00031613,-0.00030127,-0.00012078,-0.0000
 6549,0.00000414,-0.00007702,-0.00012844,0.00007834,-0.00004506,0.00002
 373,-0.00001272,-0.00000302,-0.00002539,0.00004918,-0.00004089,-0.0000
 2806,-0.00000578,-0.00000874,-0.00004281,-0.00000764,0.00003867,-0.000
 00664,0.00003245,-0.00002157,0.00007719,-0.00013869,-0.00000022,-0.000
 00056,-0.00000090,0.00000181,-0.00000150,0.00000124,0.,0.00000002,-0.0
 0000277,-0.00000090,0.00000435,0.00001920,-0.00000011,-0.00000144,0.00
 000057,0.00064423,-0.00060969,-0.00025225,0.31761405,0.00000089,0.0000
 0675,0.00000126,-0.00002274,-0.00000121,-0.00000711,0.00000302,0.00001
 321,0.00000821,0.00001835,0.00002469,-0.00000036,-0.00000121,0.0000001
 9,-0.00000067,0.00000169,0.00003014,0.00000832,-0.00000677,-0.00002632
 ,-0.00000870,-0.00005551,-0.00005822,-0.00000707,-0.00001366,0.0001914
 5,0.00000490,-0.00038539,-0.00007866,-0.00007264,0.00082910,-0.0005333
 2,0.00016727,-0.00070657,0.00072943,0.00014392,-0.00025402,0.00019488,
 -0.00003860,0.02461991,0.00252931,0.00966599,0.00858407,-0.05668194,0.
 00014772,-0.02397904,0.00628740,-0.00868865,-0.00248424,-0.00529447,-0
 .00212778,0.00314134,-0.00227465,0.00029593,-0.00086582,0.00118007,-0.
 00021906,-0.00022594,-0.00065694,-0.00014144,-0.00007322,0.00021123,0.
 00004058,-0.00004338,-0.00002388,-0.00002465,0.00000224,-0.00000441,0.
 00000158,-0.00001835,0.00000146,-0.00000364,0.00002975,-0.00007506,0.0
 0000017,0.00005130,0.00003745,0.00002611,0.00004536,0.00008945,0.00001
 827,-0.00000053,0.00000346,0.00000301,0.00000109,0.00000385,-0.0000015
 8,-0.00000288,0.00000197,-0.00000004,0.00001159,-0.00000238,-0.0000010
 5,-0.00000243,0.00000280,-0.00000114,-0.00076363,-0.00081439,-0.000287
 10,-0.00801007,0.05418300,-0.00000974,-0.00000146,0.00003409,0.0000179
 9,0.00001063,-0.00007402,-0.00003997,-0.00001292,0.00011315,-0.0000017
 7,-0.00001818,0.00003057,0.00004136,0.00001586,-0.00007999,-0.00001994
 ,0.00001521,0.00003233,0.00000077,-0.00000423,0.00000896,-0.00001966,-
 0.00000919,0.00011094,-0.00004800,0.00000649,-0.00007642,0.00029008,-0
 .00002731,-0.00041570,-0.00045958,0.00016348,0.00025406,0.00161790,0.0
 0067559,-0.00397515,0.00017161,0.00002117,-0.00003241,-0.00379588,-0.0
 0099674,0.00549033,-0.10636957,-0.00065656,-0.07528125,-0.00545733,0.0
 0238106,-0.00177628,-0.00197658,-0.00150346,0.00297626,-0.00103578,-0.
 00055027,0.00436975,-0.00035993,0.00024566,0.00064175,-0.00006253,-0.0
 0012507,-0.00020583,0.00010830,0.00004565,-0.00025184,-0.00002218,-0.0
 0001952,-0.00000398,0.00002742,0.00000518,-0.00007955,-0.00000323,-0.0
 0000105,-0.00003481,-0.00000813,-0.00003977,0.00000084,0.00004333,0.00
 001179,-0.00002721,-0.00007872,0.00001091,0.00018719,0.00000318,-0.000
 00055,0.00000106,-0.00000224,0.00000104,-0.00000091,-0.00000228,-0.000
 00383,0.00000696,0.00001105,0.00000024,-0.00003689,0.00000033,-0.00000
 048,-0.00000262,0.00002057,-0.00035392,0.00090608,0.11662115,0.0005950
 7,0.06838577,-0.00000049,0.00000466,-0.00000188,0.00001216,-0.00000231
 ,-0.00000023,-0.00001776,-0.00000701,0.00000986,0.00000314,0.00000670,
 -0.00000257,-0.00000472,-0.00000128,0.00000149,0.00000437,-0.00001220,
 -0.00000018,0.00000098,-0.00000350,-0.00000461,-0.00001079,0.00001079,
 0.00001522,-0.00013186,-0.00028024,-0.00000924,0.00014250,0.00000958,0
 .00003966,0.00002018,0.00007747,-0.00004361,0.00087716,-0.00044021,0.0
 0015672,-0.00009219,-0.00012862,-0.00008697,-0.00178142,-0.00346251,-0
 .00287864,0.01055360,-0.01540658,0.00223004,-0.10614719,0.11286279,-0.
 01377058,-0.00822105,0.02590032,-0.00251663,-0.00243052,0.00206340,-0.
 00254583,0.00093185,-0.00015790,0.00195800,-0.00030826,0.00011506,-0.0
 0007319,0.00019051,-0.00009968,0.00001738,-0.00013279,-0.00003681,-0.0
 0005482,-0.00007808,0.00019100,-0.00023593,0.00086977,0.00059487,0.000
 39195,0.00052724,-0.00119117,0.00007995,-0.00079229,0.00062994,0.00006
 460,-0.00162090,-0.00020990,-0.00062021,0.00000065,0.00000082,0.000001
 26,0.00000119,0.00000033,-0.00000048,-0.00000149,0.00000156,-0.0000007
 0,0.00000385,0.00000313,0.00000212,0.00000048,0.00000084,-0.00000016,-
 0.00002392,0.00001429,-0.00000725,0.00025322,0.00063504,0.00084823,0.1
 0723927,0.00000260,-0.00000309,-0.00000624,0.00000029,-0.00000045,0.00
 000520,0.00000080,-0.00000334,-0.00000282,-0.00000230,0.00000894,-0.00
 001559,-0.00001038,-0.00000305,0.00001500,0.00000591,-0.00001110,-0.00
 000951,0.00000494,-0.00000102,-0.00000293,-0.00002186,0.00000103,0.000
 00956,-0.00000676,-0.00012814,0.00000389,0.00005220,-0.00001032,-0.000
 02058,0.00008683,-0.00002120,0.00004532,0.00056179,-0.00029287,0.00014
 069,-0.00015569,-0.00008857,-0.00004875,-0.00177446,-0.00224453,-0.001
 57423,0.01058914,-0.01273723,0.00255035,0.11456724,-0.29743545,0.01285
 639,0.00068437,0.00052476,-0.00028795,-0.00107322,0.00235699,-0.000741
 45,0.00021600,0.00044485,0.00056044,-0.00013380,-0.00010882,-0.0000189
 0,0.00015368,-0.00011189,0.00002654,-0.00017925,-0.00001317,-0.0000700
 0,0.00006118,0.00008355,-0.00000643,0.00048488,0.00021277,0.00020726,-
 0.00011483,-0.00189173,-0.00025579,-0.00166864,-0.00397039,-0.00098220
 ,-0.00052245,0.00141035,-0.00010598,-0.00000008,0.00000014,0.00000051,
 0.00000059,-0.00000050,-0.00000041,0.00000110,-0.00000210,-0.00000009,
 -0.00000067,-0.00000505,0.00000121,0.00000068,-0.00000091,0.00000119,-
 0.00000129,-0.00001465,0.00001393,-0.00036945,0.00068598,0.00012457,-0
 .12151939,0.31340285,-0.00000515,0.00000091,0.00001227,0.00000784,-0.0
 0000371,-0.00000091,-0.00000110,0.,-0.00002748,-0.00000856,-0.00000331
 ,0.00004096,0.00000673,0.00000463,-0.00003189,0.00000022,-0.00000631,0
 .00001144,-0.00000416,0.00000114,0.00001173,0.00002245,0.00002780,-0.0
 0006857,-0.00001895,-0.00009500,-0.00017643,0.00007467,0.00000056,0.00
 004362,-0.00002908,0.00000687,0.00001399,0.00027937,-0.00014046,0.0004
 7676,-0.00006068,-0.00010025,0.00001769,-0.00254892,-0.00229513,0.0031
 5105,0.00520126,-0.00737936,0.00159576,-0.01377348,0.01229064,-0.03965
 289,-0.00526513,0.00915124,0.00532279,-0.00295743,0.00048079,0.0038959
 9,0.00190009,0.00047478,-0.00323646,-0.00006644,0.00005629,-0.00018828
 ,0.00003822,-0.00007135,0.00013912,-0.00006434,-0.00001016,-0.00004017
 ,-0.00026501,0.00000484,0.00049648,0.00035845,0.00023783,0.00021742,0.
 00021237,-0.00064357,-0.00005224,-0.00014735,-0.00011702,-0.00083627,-
 0.00067272,0.00007638,-0.00029826,0.00000096,-0.00000132,0.00000050,0.
 00000039,0.00000184,-0.00000018,-0.00000120,-0.00000013,0.00000112,0.0
 0000489,0.00000173,-0.00000227,-0.00000054,0.00000029,0.00000125,0.000
 00101,-0.00000067,0.00000650,0.00072279,0.00055193,-0.00133096,0.01702
 326,-0.01242487,0.03038527,0.00000209,0.00001397,-0.00000078,-0.000009
 23,-0.00001084,-0.00002355,-0.00002214,0.00001270,0.00003361,0.0000635
 4,-0.00002733,-0.00003619,0.00001774,0.00000102,0.00004033,-0.00001126
 ,0.00005517,-0.00001416,-0.00002068,-0.00002227,-0.00000618,-0.0000272
 8,0.00003591,0.00002815,0.00001611,-0.00007860,0.00005672,0.00000392,0
 .00011817,-0.00004725,-0.00004060,0.00003724,-0.00002461,0.00021178,-0
 .00012055,0.00017445,0.00006474,-0.00001378,-0.00000210,-0.00099587,0.
 00009195,-0.00032633,0.00037618,-0.00027606,0.00007846,0.00026749,-0.0
 0010904,0.00022072,-0.00021275,0.00159645,0.00233185,-0.00148536,-0.00
 236681,-0.00152025,-0.00410764,0.02672106,-0.00198880,-0.08119391,0.08
 789973,-0.00431180,0.00410708,-0.02965492,-0.00157953,-0.00066356,-0.0
 0406064,-0.00340083,-0.00099901,-0.00037312,0.00002881,0.00043078,-0.0
 0010747,0.00023710,-0.00050608,0.00030401,0.00039687,-0.00001892,0.001
 56651,-0.00006631,-0.00340408,-0.00007531,-0.00494573,0.00000005,0.000
 00356,0.00000319,0.00000194,0.00000263,-0.00000162,-0.00000639,0.00000
 322,-0.00000020,0.00002112,0.00000183,0.00000459,-0.00000270,0.0000003
 9,0.00000066,-0.00000938,-0.00000790,0.00000134,0.00005341,-0.00006849
 ,-0.00003489,0.00014380,0.00004114,-0.00001518,0.08768046,0.00000107,-
 0.00000727,-0.00000312,-0.00000291,0.00000601,0.00000042,0.00001597,0.
 00000147,-0.00000197,-0.00001139,0.00000530,0.00000209,-0.00000613,0.0
 0000193,0.00000264,0.00000201,-0.00002334,-0.00000772,0.00000618,0.000
 00444,0.00000036,-0.00001715,-0.00001109,0.00002081,0.00006666,0.00007
 053,0.00001495,-0.00008542,-0.00000996,-0.00001457,0.00000972,-0.00006
 760,0.00001184,0.00002898,0.00019402,-0.00013938,-0.00003026,-0.000086
 22,0.00000382,-0.00026537,0.00039123,0.00023884,-0.00038181,-0.0001555
 0,-0.00029930,0.00023546,0.00021167,0.00013516,-0.00059000,-0.00009909
 ,0.00041941,-0.00073258,-0.00064866,-0.00058313,0.00080391,-0.00523581
 ,-0.00133118,0.08669746,-0.30177860,0.00442817,-0.00481850,-0.02579116
 ,-0.00482852,-0.00189666,0.00036355,-0.00150298,-0.00020293,0.00018478
 ,0.00010310,0.00003031,-0.00003227,0.00003599,0.00021528,-0.00009777,0
 .00023843,0.00012386,-0.00016606,-0.00004357,0.00124121,0.00122530,-0.
 00045627,-0.00000074,-0.00000061,-0.00000202,-0.00000136,-0.00000190,0
 .00000091,0.00000141,0.00000150,0.00000240,-0.00000839,0.00000418,-0.0
 0001222,0.00000152,0.00000002,0.00000069,0.00000058,0.00000411,-0.0000
 0668,-0.00005826,0.00011825,0.00000446,-0.00013877,-0.00001791,-0.0000
 7958,-0.08047414,0.33204419,-0.00000247,-0.00000043,0.00001137,-0.0000
 1436,-0.00000930,0.00003360,0.00002106,0.00001179,-0.00007050,-0.00001
 666,-0.00002285,0.00009644,0.00002617,0.00001381,-0.00007120,-0.000015
 95,0.00000347,0.00004741,-0.00000280,-0.00000455,-0.00000888,0.0000199
 1,0.00002330,-0.00008852,0.00005859,-0.00001023,-0.00011813,-0.0000271
 1,0.00001686,0.00015582,-0.00004043,-0.00001384,-0.00008156,0.00000789
 ,-0.00000788,0.00005025,-0.00002263,-0.00002062,0.00000587,-0.00018899
 ,0.00012039,-0.00052472,-0.00002897,-0.00017759,0.00024614,0.00027348,
 0.00002334,-0.00019447,0.00196792,0.00135625,-0.00478871,-0.00119326,-
 0.00123247,0.00106156,-0.00487039,0.00881601,0.00783316,-0.00454259,0.
 00488462,-0.04546301,0.00131549,-0.01451212,-0.00172315,-0.00317771,-0
 .00233607,0.00534208,0.00007021,0.00002527,-0.00118843,0.00024649,-0.0
 0001969,-0.00010973,0.00039334,0.00026804,-0.00124807,-0.00022859,0.00
 052527,0.00056651,-0.00480138,-0.00096274,0.00727935,0.00000086,-0.000
 00177,0.00000084,-0.00000021,0.00000389,-0.00000007,0.00000042,0.00000
 083,-0.00000357,0.00000025,-0.00000313,0.00001529,0.00000038,0.0000008
 2,-0.00000302,-0.00000706,0.00000566,-0.00000442,-0.00000474,-0.000046
 27,0.00009035,-0.00002946,-0.00001230,0.00018358,0.01487552,0.00368034
 ,0.03223353,0.00000009,0.00000379,0.00000090,-0.00000616,-0.00000560,-
 0.00000329,-0.00000253,0.00000722,0.00000208,0.00002072,-0.00001706,0.
 00000439,0.00001330,0.00000582,0.00000294,-0.00000924,0.00001597,0.000
 00169,-0.00000711,-0.00000815,-0.00000457,-0.00001527,0.00002346,-0.00
 000087,0.00004703,-0.00001666,0.00000455,-0.00004033,0.00004972,0.0000
 0041,-0.00003195,-0.00003673,-0.00000028,0.00004127,0.00003765,-0.0000
 0696,0.00000963,-0.00001243,0.00000688,0.00009092,-0.00012728,0.000078
 01,0.00002448,0.00021914,-0.00006404,-0.00022283,-0.00008192,-0.000030
 79,0.00016755,-0.00001750,0.00073397,0.00000301,-0.00011867,-0.0000501
 5,-0.00068067,0.00041785,0.00000398,0.00366538,0.00341881,-0.00296023,
 0.01134087,0.00263737,0.00730136,-0.20504815,-0.11991018,-0.07953059,-
 0.01404276,-0.01775249,-0.01008199,0.00185416,-0.00063658,0.00123145,-
 0.00102622,-0.00017918,-0.00015275,-0.00140454,-0.00010154,-0.00068708
 ,-0.00106657,0.00382803,-0.00161653,-0.00000002,0.00000083,0.00000076,
 0.00000034,0.00000087,-0.00000039,-0.00000107,0.00000080,-0.00000027,0
 .00000103,-0.00000050,-0.00000066,-0.00000036,0.00000010,-0.00000013,-
 0.00000091,-0.00000040,-0.00000365,0.00000774,0.00000915,-0.00001534,0
 .00001978,0.00003915,0.00005044,0.00027460,0.00024117,-0.00006224,0.20
 602480,0.00000017,-0.00000438,-0.00000047,0.00000557,0.00000579,0.0000
 0311,0.00000324,-0.00000513,-0.00000069,-0.00001756,0.00001203,-0.0000
 0157,-0.00001116,-0.00000443,-0.00000568,0.00000687,-0.00001731,-0.000
 00009,0.00000565,0.00000759,0.00000309,0.00000929,-0.00001387,-0.00000
 034,-0.00001404,0.00002557,0.00000045,0.00000870,-0.00003509,-0.000002
 49,0.00000965,0.00000793,-0.00000531,-0.00003050,0.00001669,0.00001044
 ,-0.00000979,0.00000187,-0.00000363,0.00006878,0.00002280,0.00001538,-
 0.00005749,0.00000742,-0.00002836,-0.00006447,-0.00007444,-0.00002738,
 -0.00030805,0.00019457,0.00010429,0.00005445,0.00008839,0.00003104,-0.
 00018574,-0.00073940,-0.00010383,0.00143291,-0.00236574,-0.00112496,-0
 .02046322,-0.03086634,-0.01078570,-0.11892822,-0.14951064,-0.05943215,
 0.00948022,0.01023964,0.00414121,-0.00117864,0.00128037,-0.00014539,-0
 .00041105,0.00032905,-0.00004535,0.00124172,0.00037012,0.00049281,0.00
 197804,-0.00181938,0.00009061,-0.00000024,-0.00000098,-0.00000131,-0.0
 0000085,-0.00000134,0.00000060,0.00000107,-0.00000013,0.00000015,-0.00
 000150,0.00000171,-0.00000006,0.00000064,-0.00000042,0.,0.00000244,0.0
 0000176,0.00000020,-0.00000892,-0.00000058,-0.00000954,-0.00002452,-0.
 00001472,0.00000172,-0.00065940,-0.00060165,-0.00038611,0.12806596,0.1
 7346265,0.00000021,0.00000077,-0.00000054,-0.00000142,-0.00000121,-0.0
 0000062,0.00000063,0.00000194,-0.00000175,0.00000580,-0.00000321,-0.00
 000297,0.00000140,0.00000060,0.00000607,-0.00000090,0.00000378,-0.0000
 0408,-0.00000216,-0.00000208,0.00000110,-0.00000431,0.00000501,0.00000
 071,0.00001093,-0.00000460,0.00001117,-0.00001200,0.00001222,-0.000002
 34,-0.00000603,-0.00000545,-0.00002251,0.00001512,0.00001436,-0.000000
 15,0.00000189,-0.00000483,0.00000011,0.00006577,-0.00003273,-0.0000504
 8,-0.00007754,0.00004851,0.00019327,-0.00002659,-0.00001348,-0.0001563
 7,0.00070728,0.00020375,-0.00144760,-0.00002263,-0.00004489,0.00006591
 ,-0.00007334,0.00015205,-0.00052538,-0.00318516,-0.00034382,0.01093989
 ,0.00463621,-0.00174458,-0.00494432,-0.07943758,-0.05982123,-0.0748171
 1,-0.00692907,-0.00650985,0.00303502,0.00116435,0.00006760,-0.00101687
 ,-0.00017745,0.00004408,-0.00075536,-0.00053525,-0.00002820,0.00011015
 ,-0.00182194,0.00080081,0.00354787,-0.00000009,-0.00000010,0.00000005,
 0.00000008,0.00000040,0.,-0.00000045,0.00000024,0.00000059,-0.00000038
 ,0.00000015,0.00000159,-0.00000015,0.,0.00000029,-0.00000114,-0.000001
 09,0.00000576,-0.00002038,-0.00000267,0.00004538,0.00004342,0.00002500
 ,-0.00008203,-0.00016611,-0.00003260,0.00043699,0.08584897,0.06721535,
 0.06542856\\0.00000769,-0.00000415,0.00000241,-0.00000068,-0.00000060,
 0.00000360,0.00000089,-0.00000007,0.00000213,0.00000151,-0.00000127,0.
 00000117,-0.00000399,0.00000389,0.00000082,-0.00000247,0.00000395,0.00
 000294,0.00000175,-0.00000742,-0.00000174,0.00000465,0.00000063,0.0000
 0047,-0.00001281,-0.00000652,-0.00001036,0.00000526,-0.00000145,-0.000
 00257,-0.00000186,-0.00000204,0.00000063,-0.00000053,-0.00000809,-0.00
 000521,0.00000994,0.00001466,0.00000568,0.00001022,0.00000542,0.000006
 13,0.00000280,-0.00000717,-0.00000406,0.00000508,0.00000392,-0.0000004
 0,-0.00000009,-0.00000530,-0.00000234,-0.00001308,0.00000390,-0.000003
 95,-0.00000389,0.00000339,0.00000030,0.00000465,0.00000289,0.00000348,
 -0.00000473,-0.00000384,-0.00000041,-0.00000460,0.00000460,0.00000323,
 0.00000203,-0.00000276,0.00000035,0.00000170,0.00000250,0.00000064,-0.
 00000554,0.00000356,-0.00000332,-0.00000286,-0.00000215,-0.00000288,-0
 .00000095,-0.00000335,-0.00000097,0.00000148,-0.00000059,0.00000354,-0
 .00000030,0.00000077,0.00000325,0.00000045,0.00000024,0.00000411,0.000
 00006,-0.00000009,0.00000260,0.00000297,-0.00000019,-0.00000253,0.0000
 0268,0.00000166,-0.00000452,-0.00000037,0.00000150,-0.00000203,-0.0000
 0195,-0.00000065,-0.00000400,-0.00000284,-0.00000005,0.00000286,-0.000
 00226,0.00000027,0.00000094\\\@


 SIC AS THE CAWSE OF EWERY THING IS, SIC WILBE THE EFFECT.
 -- PROVERBS AND REASONS OF THE YEAR 1585
           AS REPRINTED IN PAISLEY MAGAZINE 1828.
 Job cpu time:  0 days 12 hours 55 minutes 13.9 seconds.
 File lengths (MBytes):  RWF=   1515 Int=      0 D2E=      0 Chk=     27 Scr=      1
 Normal termination of Gaussian 09 at Mon Dec 30 08:36:48 2013.
