 Entering Gaussian System, Link 0=g09
 Initial command:
 /opt/gaussian/g09/l1.exe /panfs/panfs.cluster/home/shuo/Gau-15920.inp -scrdir=/panfs/panfs.cluster/home/shuo/
 Default is to use a total of  12 processors:
                               12 via shared-memory
                                1 via Linda
 Entering Link 1 = /opt/gaussian/g09/l1.exe PID=     15921.
  
 Copyright (c) 1988,1990,1992,1993,1995,1998,2003,2009,2011,
            Gaussian, Inc.  All Rights Reserved.
  
 This is part of the Gaussian(R) 09 program.  It is based on
 the Gaussian(R) 03 system (copyright 2003, Gaussian, Inc.),
 the Gaussian(R) 98 system (copyright 1998, Gaussian, Inc.),
 the Gaussian(R) 94 system (copyright 1995, Gaussian, Inc.),
 the Gaussian 92(TM) system (copyright 1992, Gaussian, Inc.),
 the Gaussian 90(TM) system (copyright 1990, Gaussian, Inc.),
 the Gaussian 88(TM) system (copyright 1988, Gaussian, Inc.),
 the Gaussian 86(TM) system (copyright 1986, Carnegie Mellon
 University), and the Gaussian 82(TM) system (copyright 1983,
 Carnegie Mellon University). Gaussian is a federally registered
 trademark of Gaussian, Inc.
  
 This software contains proprietary and confidential information,
 including trade secrets, belonging to Gaussian, Inc.
  
 This software is provided under written license and may be
 used, copied, transmitted, or stored only in accord with that
 written license.
  
 The following legend is applicable only to US Government
 contracts under FAR:
  
                    RESTRICTED RIGHTS LEGEND
  
 Use, reproduction and disclosure by the US Government is
 subject to restrictions as set forth in subparagraphs (a)
 and (c) of the Commercial Computer Software - Restricted
 Rights clause in FAR 52.227-19.
  
 Gaussian, Inc.
 340 Quinnipiac St., Bldg. 40, Wallingford CT 06492
  
  
 ---------------------------------------------------------------
 Warning -- This program may not be used in any manner that
 competes with the business of Gaussian, Inc. or will provide
 assistance to any competitor of Gaussian, Inc.  The licensee
 of this program is prohibited from giving any competitor of
 Gaussian, Inc. access to this program.  By using this program,
 the user acknowledges that Gaussian, Inc. is engaged in the
 business of creating and licensing software in the field of
 computational chemistry and represents and warrants to the
 licensee that it is not a competitor of Gaussian, Inc. and that
 it will not use this program in any manner prohibited above.
 ---------------------------------------------------------------
  

 Cite this work as:
 Gaussian 09, Revision C.01,
 M. J. Frisch, G. W. Trucks, H. B. Schlegel, G. E. Scuseria, 
 M. A. Robb, J. R. Cheeseman, G. Scalmani, V. Barone, B. Mennucci, 
 G. A. Petersson, H. Nakatsuji, M. Caricato, X. Li, H. P. Hratchian, 
 A. F. Izmaylov, J. Bloino, G. Zheng, J. L. Sonnenberg, M. Hada, 
 M. Ehara, K. Toyota, R. Fukuda, J. Hasegawa, M. Ishida, T. Nakajima, 
 Y. Honda, O. Kitao, H. Nakai, T. Vreven, J. A. Montgomery, Jr., 
 J. E. Peralta, F. Ogliaro, M. Bearpark, J. J. Heyd, E. Brothers, 
 K. N. Kudin, V. N. Staroverov, T. Keith, R. Kobayashi, J. Normand, 
 K. Raghavachari, A. Rendell, J. C. Burant, S. S. Iyengar, J. Tomasi, 
 M. Cossi, N. Rega, J. M. Millam, M. Klene, J. E. Knox, J. B. Cross, 
 V. Bakken, C. Adamo, J. Jaramillo, R. Gomperts, R. E. Stratmann, 
 O. Yazyev, A. J. Austin, R. Cammi, C. Pomelli, J. W. Ochterski, 
 R. L. Martin, K. Morokuma, V. G. Zakrzewski, G. A. Voth, 
 P. Salvador, J. J. Dannenberg, S. Dapprich, A. D. Daniels, 
 O. Farkas, J. B. Foresman, J. V. Ortiz, J. Cioslowski, 
 and D. J. Fox, Gaussian, Inc., Wallingford CT, 2010.
 
 ******************************************
 Gaussian 09:  EM64L-G09RevC.01 23-Sep-2011
                29-Dec-2013 
 ******************************************
 %chk=65_C26H13N5S2.chk
 %NProcShared=12
 Will use up to   12 processors via shared memory.
 %Mem=8000MB
 Default route:  MaxDisk=100GB
 --------------------------------------------
 #B3LYP/6-31++G(d,p) opt scf=direct freq test
 --------------------------------------------
 1/14=-1,18=20,19=15,26=3,38=1/1,3;
 2/9=110,12=2,17=6,18=5,40=1/2;
 3/5=1,6=6,7=1111,11=2,16=1,25=1,30=1,71=1,74=-5/1,2,3;
 4//1;
 5/5=2,38=5/2;
 6/7=2,8=2,9=2,10=2,28=1/1;
 7//1,2,3,16;
 1/14=-1,18=20,19=15/3(2);
 2/9=110/2;
 99//99;
 2/9=110/2;
 3/5=1,6=6,7=1111,11=2,16=1,25=1,30=1,71=1,74=-5/1,2,3;
 4/5=5,16=3/1;
 5/5=2,38=5/2;
 7//1,2,3,16;
 1/14=-1,18=20,19=15/3(-5);
 2/9=110/2;
 6/7=2,8=2,9=2,10=2,19=2,28=1/1;
 99/9=1/99;
 ----------------------------------------------------------------------
 Geom opt of No.65 candidate from the CEPDB database with SMILE code of
  c1occ2c1ccc1sc3cc([Se]c3c21)-c1cncc2nsnc12, HPC, 20131227, Shuo Dai, 
 Gaussian09
 ----------------------------------------------------------------------
 Charge =  0 Multiplicity = 1
 Symbolic Z-Matrix:
 C                     3.453     0.332    -0.024 
 O                     3.032     1.582     0.02 
 C                     1.694     1.597     0.042 
 C                     1.241     0.362     0.018 
 C                     2.314    -0.486    -0.021 
 C                     2.132    -1.835    -0.051 
 C                     0.94     -2.364    -0.046 
 C                    -0.16     -1.622    -0.01 
 S                    -1.901    -1.967     0.008 
 C                    -2.487    -0.288     0.06 
 C                    -3.735     0.551     0.098 
 C                    -3.263     1.965    -0.306 
 Se                   -1.782     1.936     0.118 
 C                    -1.368     0.462     0.064 
 C                    -0.116    -0.221     0.025 
 C                    -4.01309   3.0136    0.42484 
 C                    -3.62121   4.28984   0.21318 
 N                    -4.15835   5.32614   0.90933 
 C                    -5.11916   5.13137   1.83851 
 C                    -5.57318   3.82168   2.10026 
 N                    -6.4743    3.28378   2.92083 
 S                    -6.4833    1.97145   2.73873 
 N                    -5.60941   1.6279    1.81464 
 C                    -5.00196   2.74063   1.372 
 H                     4.435     0.01616  -0.0548 
 H                     1.10812   2.44601   0.073 
 H                     2.95737  -2.4539   -0.07836 
 H                     0.84912  -3.39169  -0.07081 
 H                    -4.15527   0.55935   1.08197 
 H                    -4.49758   0.17551  -0.55191 
 H                    -3.41315   2.19283  -1.34063 
 H                    -2.89568   4.4822   -0.49507 
 H                    -5.51734   5.93309   2.35205 
 

 GradGradGradGradGradGradGradGradGradGradGradGradGradGradGradGradGradGrad
 Berny optimization.
 Initialization pass.
                           ----------------------------
                           !    Initial Parameters    !
                           ! (Angstroms and Degrees)  !
 --------------------------                            --------------------------
 ! Name  Definition              Value          Derivative Info.                !
 --------------------------------------------------------------------------------
 ! R1    R(1,2)                  1.3197         estimate D2E/DX2                !
 ! R2    R(1,5)                  1.4023         estimate D2E/DX2                !
 ! R3    R(1,25)                 1.032          estimate D2E/DX2                !
 ! R4    R(2,3)                  1.3383         estimate D2E/DX2                !
 ! R5    R(3,4)                  1.3157         estimate D2E/DX2                !
 ! R6    R(3,26)                 1.032          estimate D2E/DX2                !
 ! R7    R(4,5)                  1.3682         estimate D2E/DX2                !
 ! R8    R(4,15)                 1.477          estimate D2E/DX2                !
 ! R9    R(5,6)                  1.3616         estimate D2E/DX2                !
 ! R10   R(6,7)                  1.3041         estimate D2E/DX2                !
 ! R11   R(6,27)                 1.032          estimate D2E/DX2                !
 ! R12   R(7,8)                  1.3274         estimate D2E/DX2                !
 ! R13   R(7,28)                 1.032          estimate D2E/DX2                !
 ! R14   R(8,9)                  1.7749         estimate D2E/DX2                !
 ! R15   R(8,15)                 1.4021         estimate D2E/DX2                !
 ! R16   R(9,10)                 1.7791         estimate D2E/DX2                !
 ! R17   R(10,11)                1.5043         estimate D2E/DX2                !
 ! R18   R(10,14)                1.3471         estimate D2E/DX2                !
 ! R19   R(11,12)                1.5445         estimate D2E/DX2                !
 ! R20   R(11,29)                1.07           estimate D2E/DX2                !
 ! R21   R(11,30)                1.07           estimate D2E/DX2                !
 ! R22   R(12,13)                1.5408         estimate D2E/DX2                !
 ! R23   R(12,16)                1.482          estimate D2E/DX2                !
 ! R24   R(12,31)                1.07           estimate D2E/DX2                !
 ! R25   R(13,14)                1.532          estimate D2E/DX2                !
 ! R26   R(14,15)                1.4267         estimate D2E/DX2                !
 ! R27   R(16,17)                1.3517         estimate D2E/DX2                !
 ! R28   R(16,24)                1.3962         estimate D2E/DX2                !
 ! R29   R(17,18)                1.3591         estimate D2E/DX2                !
 ! R30   R(17,32)                1.032          estimate D2E/DX2                !
 ! R31   R(18,19)                1.3507         estimate D2E/DX2                !
 ! R32   R(19,20)                1.4107         estimate D2E/DX2                !
 ! R33   R(19,33)                1.032          estimate D2E/DX2                !
 ! R34   R(20,21)                1.3322         estimate D2E/DX2                !
 ! R35   R(20,22)                2.1585         estimate D2E/DX2                !
 ! R36   R(20,24)                1.4231         estimate D2E/DX2                !
 ! R37   R(21,22)                1.3249         estimate D2E/DX2                !
 ! R38   R(22,23)                1.3174         estimate D2E/DX2                !
 ! R39   R(22,24)                2.1573         estimate D2E/DX2                !
 ! R40   R(23,24)                1.3428         estimate D2E/DX2                !
 ! A1    A(2,1,5)              107.0573         estimate D2E/DX2                !
 ! A2    A(2,1,25)             126.4714         estimate D2E/DX2                !
 ! A3    A(5,1,25)             126.4713         estimate D2E/DX2                !
 ! A4    A(1,2,3)              109.2753         estimate D2E/DX2                !
 ! A5    A(2,3,4)              109.4765         estimate D2E/DX2                !
 ! A6    A(2,3,26)             125.2618         estimate D2E/DX2                !
 ! A7    A(4,3,26)             125.2618         estimate D2E/DX2                !
 ! A8    A(3,4,5)              108.197          estimate D2E/DX2                !
 ! A9    A(3,4,15)             133.3762         estimate D2E/DX2                !
 ! A10   A(5,4,15)             118.4267         estimate D2E/DX2                !
 ! A11   A(1,5,4)              105.9924         estimate D2E/DX2                !
 ! A12   A(1,5,6)              133.3516         estimate D2E/DX2                !
 ! A13   A(4,5,6)              120.6557         estimate D2E/DX2                !
 ! A14   A(5,6,7)              121.6004         estimate D2E/DX2                !
 ! A15   A(5,6,27)             119.1999         estimate D2E/DX2                !
 ! A16   A(7,6,27)             119.1997         estimate D2E/DX2                !
 ! A17   A(6,7,8)              122.0608         estimate D2E/DX2                !
 ! A18   A(6,7,28)             118.9694         estimate D2E/DX2                !
 ! A19   A(8,7,28)             118.9697         estimate D2E/DX2                !
 ! A20   A(7,8,9)              134.7883         estimate D2E/DX2                !
 ! A21   A(7,8,15)             122.2239         estimate D2E/DX2                !
 ! A22   A(9,8,15)             102.9878         estimate D2E/DX2                !
 ! A23   A(8,9,10)              98.0445         estimate D2E/DX2                !
 ! A24   A(9,10,11)            143.1653         estimate D2E/DX2                !
 ! A25   A(9,10,14)            104.5905         estimate D2E/DX2                !
 ! A26   A(11,10,14)           112.2442         estimate D2E/DX2                !
 ! A27   A(10,11,12)           104.5057         estimate D2E/DX2                !
 ! A28   A(10,11,29)           110.698          estimate D2E/DX2                !
 ! A29   A(10,11,30)           112.3462         estimate D2E/DX2                !
 ! A30   A(12,11,29)           110.6977         estimate D2E/DX2                !
 ! A31   A(12,11,30)           112.3462         estimate D2E/DX2                !
 ! A32   A(29,11,30)           106.3419         estimate D2E/DX2                !
 ! A33   A(11,12,13)           101.8023         estimate D2E/DX2                !
 ! A34   A(11,12,16)           111.3529         estimate D2E/DX2                !
 ! A35   A(11,12,31)           113.89           estimate D2E/DX2                !
 ! A36   A(13,12,16)           111.3528         estimate D2E/DX2                !
 ! A37   A(13,12,31)           113.8898         estimate D2E/DX2                !
 ! A38   A(16,12,31)           104.7831         estimate D2E/DX2                !
 ! A39   A(12,13,14)           105.555          estimate D2E/DX2                !
 ! A40   A(10,14,13)           108.1378         estimate D2E/DX2                !
 ! A41   A(10,14,15)           117.5382         estimate D2E/DX2                !
 ! A42   A(13,14,15)           134.3236         estimate D2E/DX2                !
 ! A43   A(4,15,8)             115.0323         estimate D2E/DX2                !
 ! A44   A(4,15,14)            128.1289         estimate D2E/DX2                !
 ! A45   A(8,15,14)            116.8388         estimate D2E/DX2                !
 ! A46   A(12,16,17)           116.3653         estimate D2E/DX2                !
 ! A47   A(12,16,24)           123.6876         estimate D2E/DX2                !
 ! A48   A(17,16,24)           119.7445         estimate D2E/DX2                !
 ! A49   A(16,17,18)           121.6777         estimate D2E/DX2                !
 ! A50   A(16,17,32)           119.1612         estimate D2E/DX2                !
 ! A51   A(18,17,32)           119.1611         estimate D2E/DX2                !
 ! A52   A(17,18,19)           121.5707         estimate D2E/DX2                !
 ! A53   A(18,19,20)           119.3709         estimate D2E/DX2                !
 ! A54   A(18,19,33)           120.3147         estimate D2E/DX2                !
 ! A55   A(20,19,33)           120.3144         estimate D2E/DX2                !
 ! A56   A(19,20,21)           134.9817         estimate D2E/DX2                !
 ! A57   A(19,20,24)           118.7586         estimate D2E/DX2                !
 ! A58   A(21,20,24)           106.2598         estimate D2E/DX2                !
 ! A59   A(20,22,23)            74.7144         estimate D2E/DX2                !
 ! A60   A(21,22,23)           110.4989         estimate D2E/DX2                !
 ! A61   A(21,22,24)            74.2914         estimate D2E/DX2                !
 ! A62   A(16,24,20)           118.8751         estimate D2E/DX2                !
 ! A63   A(16,24,23)           134.9116         estimate D2E/DX2                !
 ! A64   A(20,24,23)           106.2133         estimate D2E/DX2                !
 ! A65   L(19,20,22,1,-1)      188.0307         estimate D2E/DX2                !
 ! A66   L(16,24,22,9,-1)      170.8005         estimate D2E/DX2                !
 ! A67   L(19,20,22,1,-2)      174.9852         estimate D2E/DX2                !
 ! A68   L(16,24,22,9,-2)      183.1281         estimate D2E/DX2                !
 ! D1    D(5,1,2,3)             -0.3848         estimate D2E/DX2                !
 ! D2    D(25,1,2,3)           179.6152         estimate D2E/DX2                !
 ! D3    D(2,1,5,4)              0.3721         estimate D2E/DX2                !
 ! D4    D(2,1,5,6)           -179.816          estimate D2E/DX2                !
 ! D5    D(25,1,5,4)          -179.6278         estimate D2E/DX2                !
 ! D6    D(25,1,5,6)             0.1841         estimate D2E/DX2                !
 ! D7    D(1,2,3,4)              0.2527         estimate D2E/DX2                !
 ! D8    D(1,2,3,26)          -179.7474         estimate D2E/DX2                !
 ! D9    D(2,3,4,5)             -0.0069         estimate D2E/DX2                !
 ! D10   D(2,3,4,15)          -179.9924         estimate D2E/DX2                !
 ! D11   D(26,3,4,5)           179.9932         estimate D2E/DX2                !
 ! D12   D(26,3,4,15)            0.0077         estimate D2E/DX2                !
 ! D13   D(3,4,5,1)             -0.2228         estimate D2E/DX2                !
 ! D14   D(3,4,5,6)            179.9362         estimate D2E/DX2                !
 ! D15   D(15,4,5,1)           179.7652         estimate D2E/DX2                !
 ! D16   D(15,4,5,6)            -0.0758         estimate D2E/DX2                !
 ! D17   D(3,4,15,8)           179.9892         estimate D2E/DX2                !
 ! D18   D(3,4,15,14)           -0.0835         estimate D2E/DX2                !
 ! D19   D(5,4,15,8)             0.0048         estimate D2E/DX2                !
 ! D20   D(5,4,15,14)          179.9322         estimate D2E/DX2                !
 ! D21   D(1,5,6,7)           -179.6741         estimate D2E/DX2                !
 ! D22   D(1,5,6,27)             0.3259         estimate D2E/DX2                !
 ! D23   D(4,5,6,7)              0.1157         estimate D2E/DX2                !
 ! D24   D(4,5,6,27)          -179.8843         estimate D2E/DX2                !
 ! D25   D(5,6,7,8)             -0.0787         estimate D2E/DX2                !
 ! D26   D(5,6,7,28)           179.9213         estimate D2E/DX2                !
 ! D27   D(27,6,7,8)           179.9213         estimate D2E/DX2                !
 ! D28   D(27,6,7,28)           -0.0787         estimate D2E/DX2                !
 ! D29   D(6,7,8,9)            179.9903         estimate D2E/DX2                !
 ! D30   D(6,7,8,15)             0.003          estimate D2E/DX2                !
 ! D31   D(28,7,8,9)            -0.0097         estimate D2E/DX2                !
 ! D32   D(28,7,8,15)         -179.997          estimate D2E/DX2                !
 ! D33   D(7,8,9,10)          -179.9964         estimate D2E/DX2                !
 ! D34   D(15,8,9,10)           -0.0074         estimate D2E/DX2                !
 ! D35   D(7,8,15,4)             0.0322         estimate D2E/DX2                !
 ! D36   D(7,8,15,14)         -179.9037         estimate D2E/DX2                !
 ! D37   D(9,8,15,4)          -179.9585         estimate D2E/DX2                !
 ! D38   D(9,8,15,14)            0.1055         estimate D2E/DX2                !
 ! D39   D(8,9,10,11)          179.8283         estimate D2E/DX2                !
 ! D40   D(8,9,10,14)           -0.0901         estimate D2E/DX2                !
 ! D41   D(9,10,11,12)        -163.0684         estimate D2E/DX2                !
 ! D42   D(9,10,11,29)          77.7213         estimate D2E/DX2                !
 ! D43   D(9,10,11,30)         -40.998          estimate D2E/DX2                !
 ! D44   D(14,10,11,12)         16.8462         estimate D2E/DX2                !
 ! D45   D(14,10,11,29)       -102.3641         estimate D2E/DX2                !
 ! D46   D(14,10,11,30)        138.9166         estimate D2E/DX2                !
 ! D47   D(9,10,14,13)        -179.6165         estimate D2E/DX2                !
 ! D48   D(9,10,14,15)           0.1689         estimate D2E/DX2                !
 ! D49   D(11,10,14,13)          0.4364         estimate D2E/DX2                !
 ! D50   D(11,10,14,15)       -179.7782         estimate D2E/DX2                !
 ! D51   D(10,11,12,13)        -25.9342         estimate D2E/DX2                !
 ! D52   D(10,11,12,16)       -144.6901         estimate D2E/DX2                !
 ! D53   D(10,11,12,31)         97.0936         estimate D2E/DX2                !
 ! D54   D(29,11,12,13)         93.2764         estimate D2E/DX2                !
 ! D55   D(29,11,12,16)        -25.4795         estimate D2E/DX2                !
 ! D56   D(29,11,12,31)       -143.6958         estimate D2E/DX2                !
 ! D57   D(30,11,12,13)       -148.0046         estimate D2E/DX2                !
 ! D58   D(30,11,12,16)         93.2395         estimate D2E/DX2                !
 ! D59   D(30,11,12,31)        -24.9768         estimate D2E/DX2                !
 ! D60   D(11,12,13,14)         26.5024         estimate D2E/DX2                !
 ! D61   D(16,12,13,14)        145.2584         estimate D2E/DX2                !
 ! D62   D(31,12,13,14)        -96.5255         estimate D2E/DX2                !
 ! D63   D(11,12,16,17)        175.819          estimate D2E/DX2                !
 ! D64   D(11,12,16,24)          1.0177         estimate D2E/DX2                !
 ! D65   D(13,12,16,17)         62.9493         estimate D2E/DX2                !
 ! D66   D(13,12,16,24)       -111.852          estimate D2E/DX2                !
 ! D67   D(31,12,16,17)        -60.6156         estimate D2E/DX2                !
 ! D68   D(31,12,16,24)        124.583          estimate D2E/DX2                !
 ! D69   D(12,13,14,10)        -17.679          estimate D2E/DX2                !
 ! D70   D(12,13,14,15)        162.5869         estimate D2E/DX2                !
 ! D71   D(10,14,15,4)         179.8756         estimate D2E/DX2                !
 ! D72   D(10,14,15,8)          -0.1982         estimate D2E/DX2                !
 ! D73   D(13,14,15,4)          -0.4094         estimate D2E/DX2                !
 ! D74   D(13,14,15,8)         179.5168         estimate D2E/DX2                !
 ! D75   D(12,16,17,18)       -174.4716         estimate D2E/DX2                !
 ! D76   D(12,16,17,32)          5.5288         estimate D2E/DX2                !
 ! D77   D(24,16,17,18)          0.5469         estimate D2E/DX2                !
 ! D78   D(24,16,17,32)       -179.4527         estimate D2E/DX2                !
 ! D79   D(12,16,22,21)        174.743          estimate D2E/DX2                !
 ! D80   D(17,16,22,21)         -0.2325         estimate D2E/DX2                !
 ! D81   D(12,16,24,20)        174.3905         estimate D2E/DX2                !
 ! D82   D(12,16,24,23)         -5.6519         estimate D2E/DX2                !
 ! D83   D(17,16,24,20)         -0.2444         estimate D2E/DX2                !
 ! D84   D(17,16,24,23)        179.7133         estimate D2E/DX2                !
 ! D85   D(16,17,18,19)         -0.6075         estimate D2E/DX2                !
 ! D86   D(32,17,18,19)        179.3921         estimate D2E/DX2                !
 ! D87   D(17,18,19,20)          0.3459         estimate D2E/DX2                !
 ! D88   D(17,18,19,33)       -179.6523         estimate D2E/DX2                !
 ! D89   D(18,19,20,21)        179.9637         estimate D2E/DX2                !
 ! D90   D(18,19,20,24)         -0.0502         estimate D2E/DX2                !
 ! D91   D(33,19,20,21)         -0.038          estimate D2E/DX2                !
 ! D92   D(33,19,20,24)        179.948          estimate D2E/DX2                !
 ! D93   D(18,19,22,23)         -0.1032         estimate D2E/DX2                !
 ! D94   D(33,19,22,23)        179.9068         estimate D2E/DX2                !
 ! D95   D(19,20,24,16)          0.0021         estimate D2E/DX2                !
 ! D96   D(19,20,24,23)       -179.9667         estimate D2E/DX2                !
 ! D97   D(21,20,24,16)        179.9918         estimate D2E/DX2                !
 ! D98   D(21,20,24,23)          0.023          estimate D2E/DX2                !
 --------------------------------------------------------------------------------
 Trust Radius=3.00D-01 FncErr=1.00D-07 GrdErr=1.00D-06
 Number of steps in this run=    198 maximum allowed number of steps=    198.
 GradGradGradGradGradGradGradGradGradGradGradGradGradGradGradGradGradGrad

                          Input orientation:                          
 ---------------------------------------------------------------------
 Center     Atomic      Atomic             Coordinates (Angstroms)
 Number     Number       Type             X           Y           Z
 ---------------------------------------------------------------------
      1          6           0        3.453000    0.332000   -0.024000
      2          8           0        3.032000    1.582000    0.020000
      3          6           0        1.694000    1.597000    0.042000
      4          6           0        1.241000    0.362000    0.018000
      5          6           0        2.314000   -0.486000   -0.021000
      6          6           0        2.132000   -1.835000   -0.051000
      7          6           0        0.940000   -2.364000   -0.046000
      8          6           0       -0.160000   -1.622000   -0.010000
      9         16           0       -1.901000   -1.967000    0.008000
     10          6           0       -2.487000   -0.288000    0.060000
     11          6           0       -3.735000    0.551000    0.098000
     12          6           0       -3.263000    1.965000   -0.306000
     13         34           0       -1.782000    1.936000    0.118000
     14          6           0       -1.368000    0.462000    0.064000
     15          6           0       -0.116000   -0.221000    0.025000
     16          6           0       -4.013090    3.013600    0.424840
     17          6           0       -3.621210    4.289840    0.213180
     18          7           0       -4.158350    5.326140    0.909330
     19          6           0       -5.119160    5.131370    1.838510
     20          6           0       -5.573180    3.821680    2.100260
     21          7           0       -6.474300    3.283780    2.920830
     22         16           0       -6.483300    1.971450    2.738730
     23          7           0       -5.609410    1.627900    1.814640
     24          6           0       -5.001960    2.740630    1.372000
     25          1           0        4.435000    0.016160   -0.054800
     26          1           0        1.108120    2.446010    0.073000
     27          1           0        2.957370   -2.453900   -0.078360
     28          1           0        0.849120   -3.391690   -0.070810
     29          1           0       -4.155270    0.559350    1.081970
     30          1           0       -4.497580    0.175510   -0.551910
     31          1           0       -3.413150    2.192830   -1.340630
     32          1           0       -2.895680    4.482200   -0.495070
     33          1           0       -5.517340    5.933090    2.352050
 ---------------------------------------------------------------------
                    Distance matrix (angstroms):
                    1          2          3          4          5
     1  C    0.000000
     2  O    1.319726   0.000000
     3  C    2.167640   1.338265   0.000000
     4  C    2.212602   2.167045   1.315679   0.000000
     5  C    1.402303   2.189481   2.174226   1.368194   0.000000
     6  C    2.538042   3.534251   3.461086   2.371803   1.361552
     7  C    3.685657   4.466737   4.033086   2.743314   2.327098
     8  C    4.107564   4.522762   3.715102   2.428959   2.722369
     9  S    5.826812   6.077009   5.062339   3.911075   4.467709
    10  C    5.972860   5.827337   4.586318   3.784475   4.805764
    11  C    7.192370   6.845534   5.529131   4.980231   6.138398
    12  C    6.917432   6.315061   4.982808   4.791722   6.098488
    13  Se   5.477062   4.827993   3.493318   3.409693   4.760527
    14  C    4.823555   4.540522   3.265663   2.611321   3.803032
    15  C    3.611921   3.627773   2.565446   1.476952   2.444840
    16  C    7.945750   7.200463   5.892724   5.899319   7.244173
    17  C    8.109575   7.185744   5.960885   6.253568   7.621693
    18  N    9.151240   8.155405   6.993479   7.388514   8.748588
    19  C    9.999241   9.074493   7.882789   8.155537   9.500763
    20  C    9.907688   9.131964   7.873852   7.920748   9.233821
    21  N   10.767373  10.083680   8.823492   8.745803  10.004990
    22  S   10.442726   9.903742   8.618631   8.346108   9.541890
    23  N    9.337410   8.825917   7.515518   7.194341   8.403486
    24  C    8.901498   8.228903   6.921898   6.816579   8.116333
    25  H    1.032002   2.103773   3.165676   3.213494   2.179896
    26  H    3.158625   2.109653   1.032005   2.088966   3.171698
    27  H    2.830167   4.037788   4.245042   3.299167   2.071194
    28  H    4.544034   5.432385   5.060986   3.775135   3.254441
    29  H    7.691595   7.336923   6.030938   5.503700   6.645356
    30  H    7.969624   7.681137   6.380363   5.769825   6.864188
    31  H    7.234654   6.615466   5.324440   5.182560   6.458932
    32  H    7.599461   6.619203   5.447751   5.861008   7.214466
    33  H   10.839042   9.872267   8.725906   9.064215  10.400287
                    6          7          8          9         10
     6  C    0.000000
     7  C    1.304120   0.000000
     8  C    2.302241   1.327351   0.000000
     9  S    4.035591   2.869112   1.774945   0.000000
    10  C    4.872442   4.008159   2.683167   1.779084   0.000000
    11  C    6.335368   5.511224   4.184999   3.116405   1.504284
    12  C    6.603866   6.039292   4.752136   4.173040   2.410838
    13  Se   5.437683   5.091776   3.912369   3.906363   2.333788
    14  C    4.188011   3.650375   2.409937   2.487422   1.347099
    15  C    2.768443   2.390110   1.402128   2.497004   2.372205
    16  C    7.842033   7.326211   6.043523   5.425961   3.655492
    17  C    8.407311   8.071270   6.854169   6.492247   4.718741
    18  N    9.579805   9.275995   8.068991   7.687517   5.918897
    19  C   10.231319   9.820660   8.580109   8.005884   6.281794
    20  C    9.797742   9.235290   7.961744   7.167376   5.529615
    21  N   10.445194   9.781173   8.516268   7.547870   6.069639
    22  S    9.823189   9.036384   7.775122   6.630667   5.315178
    23  N    8.683416   7.892529   6.602063   5.471705   4.061881
    24  C    8.593876   7.960833   6.662360   5.799847   4.149574
    25  H    2.954762   4.228506   4.878483   6.639410   6.929630
    26  H    4.403493   4.814418   4.261892   5.341693   4.516621
    27  H    1.031999   2.019631   3.227186   4.883471   5.861009
    28  H    2.017290   1.031999   2.038093   3.098243   4.558476
    29  H    6.822485   5.981644   4.681118   3.552125   2.132029
    30  H    6.945818   6.022652   4.726448   3.412635   2.152140
    31  H    6.973898   6.433559   5.187147   4.627049   2.995669
    32  H    8.085900   7.860315   6.706750   6.544818   4.819744
    33  H   11.163793  10.783765   9.558230   8.999106   7.289610
                   11         12         13         14         15
    11  C    0.000000
    12  C    1.544473   0.000000
    13  Se   2.394334   1.540772   0.000000
    14  C    2.368917   2.446821   1.531988   0.000000
    15  C    3.701145   3.846007   2.727060   1.426714   0.000000
    16  C    2.499711   1.482000   2.496625   3.692881   5.080337
    17  C    3.742344   2.408888   2.988698   4.444274   5.715731
    18  N    4.862041   3.684554   4.215008   5.671022   6.920505
    19  C    5.091666   4.250900   4.930231   6.246847   7.547734
    20  C    4.252681   3.817627   4.675274   5.754767   7.101463
    21  N    4.789595   4.739627   5.629391   6.496016   7.816476
    22  S    4.067467   4.431789   5.382537   5.966483   7.260419
    23  N    2.760431   3.180627   4.197926   4.734303   6.066201
    24  C    2.832445   2.537965   3.547970   4.484271   5.870116
    25  H    8.188913   7.944827   6.508973   5.821314   4.557874
    26  H    5.200721   4.413808   2.935120   3.172940   2.934913
    27  H    7.338143   7.633577   6.463080   5.218387   3.800280
    28  H    6.048757   6.757142   5.944975   4.448002   3.315707
    29  H    1.069997   2.167593   2.908060   2.968942   4.247568
    30  H    1.070002   2.187906   3.304917   3.202451   4.437149
    31  H    2.206547   1.070005   2.203228   3.025128   4.308447
    32  H    4.063314   2.550876   2.845922   4.336862   5.487913
    33  H    6.101178   5.281384   5.909355   7.237750   8.512488
                   16         17         18         19         20
    16  C    0.000000
    17  C    1.351724   0.000000
    18  N    2.367208   1.359067   0.000000
    19  C    2.776113   2.365106   1.350728   0.000000
    20  C    2.427737   2.755074   2.384000   1.410651   0.000000
    21  N    3.515753   4.060006   3.685240   2.534050   1.332174
    22  S    3.541483   4.465971   4.472811   3.557579   2.158544
    23  N    2.529811   3.688297   4.074572   3.537685   2.212592
    24  C    1.396241   2.376844   2.758732   2.438648   1.423139
    25  H    8.976911   9.123523  10.147468  11.001453  10.921993
    26  H    5.164566   5.077984   6.060553   7.007653   7.116321
    27  H    8.873223   9.425537  10.589524  11.244601  10.812011
    28  H    8.056953   8.892154  10.101287  10.578678   9.899100
    29  H    2.544676   3.867373   4.769916   4.733371   3.700024
    30  H    3.040317   4.275640   5.364633   5.537239   4.635243
    31  H    2.037272   2.618218   3.928775   4.653216   4.377054
    32  H    2.061947   1.031995   2.068553   3.287990   3.786955
    33  H    3.807930   3.297021   2.072844   1.032001   2.127103
                   21         22         23         24         25
    21  N    0.000000
    22  S    1.324935   0.000000
    23  N    2.171089   1.317442   0.000000
    24  C    2.204920   2.157303   1.342793   0.000000
    25  H   11.770495  11.438367  10.343243   9.925458   0.000000
    26  H    8.142794   8.059838   6.987691   6.253581   4.121727
    27  H   11.439952  10.800276   9.676480   9.614449   2.878392
    28  H   10.351053   9.509005   8.394273   8.597801   4.946942
    29  H    4.022664   3.187256   1.947595   2.357750   8.682168
    30  H    5.062478   4.242263   2.991013   3.245870   8.947821
    31  H    5.359184   5.110382   3.885670   3.191044   8.245284
    32  H    5.090295   5.443560   4.565755   3.309899   8.595244
    33  H    2.873696   4.095997   4.339579   3.379041  11.825906
                   26         27         28         29         30
    26  H    0.000000
    27  H    5.239442   0.000000
    28  H    5.845212   2.307428   0.000000
    29  H    5.681618   7.811254   6.479471   0.000000
    30  H    6.080259   7.919238   6.445430   1.712914   0.000000
    31  H    4.743873   7.985546   7.139065   3.014629   2.422323
    32  H    4.527603   9.085226   8.729357   4.411618   4.595312
    33  H    7.826271  12.168369  11.547882   5.687303   6.528600
                   31         32         33
    31  H    0.000000
    32  H    2.494787   0.000000
    33  H    5.661541   4.133313   0.000000
 Stoichiometry    C17H9N3OS2Se
 Framework group  C1[X(C17H9N3OS2Se)]
 Deg. of freedom    93
 Full point group                 C1      NOp   1
 Largest Abelian subgroup         C1      NOp   1
 Largest concise Abelian subgroup C1      NOp   1
                         Standard orientation:                         
 ---------------------------------------------------------------------
 Center     Atomic      Atomic             Coordinates (Angstroms)
 Number     Number       Type             X           Y           Z
 ---------------------------------------------------------------------
      1          6           0        5.338104   -1.723919   -0.775727
      2          8           0        4.392436   -2.638201   -0.668597
      3          6           0        3.233494   -2.041628   -0.365435
      4          6           0        3.418428   -0.741829   -0.279794
      5          6           0        4.737050   -0.480189   -0.534220
      6          6           0        5.208080    0.797110   -0.512734
      7          6           0        4.428289    1.808665   -0.249268
      8          6           0        3.135942    1.653113    0.010544
      9         16           0        1.797952    2.751964    0.401360
     10          6           0        0.511795    1.532667    0.557107
     11          6           0       -0.952469    1.358476    0.854524
     12          6           0       -1.104010   -0.142357    1.186083
     13         34           0        0.080384   -0.756516    0.415370
     14          6           0        1.125336    0.358912    0.311051
     15          6           0        2.521555    0.392792    0.019610
     16          6           0       -2.398689   -0.674479    0.699280
     17          6           0       -2.600249   -2.001575    0.858487
     18          7           0       -3.698677   -2.622296    0.353292
     19          6           0       -4.648521   -1.939873   -0.322402
     20          6           0       -4.496483   -0.550924   -0.516408
     21          7           0       -5.212219    0.400298   -1.114395
     22         16           0       -4.574431    1.554496   -0.985926
     23          7           0       -3.452836    1.389615   -0.314739
     24          6           0       -3.340815    0.091494    0.009953
     25          1           0        6.332208   -1.892444   -0.995694
     26          1           0        2.333826   -2.526200   -0.221142
     27          1           0        6.206423    0.968944   -0.709723
     28          1           0        4.828530    2.759866   -0.242568
     29          1           0       -1.545047    1.619285    0.002630
     30          1           0       -1.282647    1.987264    1.654844
     31          1           0       -1.097195   -0.357425    2.234229
     32          1           0       -1.902281   -2.557587    1.376856
     33          1           0       -5.477604   -2.429945   -0.693181
 ---------------------------------------------------------------------
 Rotational constants (GHZ):      0.4483696      0.1102029      0.0935763
 Standard basis: 6-31++G(d,p) (6D, 7F)
 There are   533 symmetry adapted basis functions of A   symmetry.
 Integral buffers will be    131072 words long.
 Raffenetti 2 integral format.
 Two-electron integral symmetry is turned on.
   533 basis functions,   943 primitive gaussians,   533 cartesian basis functions
   103 alpha electrons      103 beta electrons
       nuclear repulsion energy      2867.8779392751 Hartrees.
 NAtoms=   33 NActive=   33 NUniq=   33 SFac= 1.00D+00 NAtFMM=   60 NAOKFM=F Big=F
 One-electron integrals computed using PRISM.
 NBasis=   533 RedAO= T  NBF=   533
 NBsUse=   526 1.00D-06 NBFU=   526
 Harris functional with IExCor=  402 diagonalized for initial guess.
 ExpMin= 3.00D-02 ExpMax= 5.61D+05 ExpMxC= 5.42D+03 IAcc=3 IRadAn=         5 AccDes= 0.00D+00
 HarFok:  IExCor=  402 AccDes= 0.00D+00 IRadAn=         5 IDoV= 1
 ScaDFX=  1.000000  1.000000  1.000000  1.000000
 FoFCou: FMM=F IPFlag=           0 FMFlag=      100000 FMFlg1=           0
         NFxFlg=           0 DoJE=T BraDBF=F KetDBF=T FulRan=T
         Omega=  0.000000  0.000000  1.000000  0.000000  0.000000 ICntrl=     500 IOpCl=  0
         NMat0=    1 NMatS0=    1 NMatT0=    0 NMatD0=    1 NMtDS0=    0 NMtDT0=    0
         I1Cent=           4 NGrid=           0.
 Petite list used in FoFCou.
 Initial guess orbital symmetries:
       Occupied  (A) (A) (A) (A) (A) (A) (A) (A) (A) (A) (A) (A)
                 (A) (A) (A) (A) (A) (A) (A) (A) (A) (A) (A) (A)
                 (A) (A) (A) (A) (A) (A) (A) (A) (A) (A) (A) (A)
                 (A) (A) (A) (A) (A) (A) (A) (A) (A) (A) (A) (A)
                 (A) (A) (A) (A) (A) (A) (A) (A) (A) (A) (A) (A)
                 (A) (A) (A) (A) (A) (A) (A) (A) (A) (A) (A) (A)
                 (A) (A) (A) (A) (A) (A) (A) (A) (A) (A) (A) (A)
                 (A) (A) (A) (A) (A) (A) (A) (A) (A) (A) (A) (A)
                 (A) (A) (A) (A) (A) (A) (A)
       Virtual   (A) (A) (A) (A) (A) (A) (A) (A) (A) (A) (A) (A)
                 (A) (A) (A) (A) (A) (A) (A) (A) (A) (A) (A) (A)
                 (A) (A) (A) (A) (A) (A) (A) (A) (A) (A) (A) (A)
                 (A) (A) (A) (A) (A) (A) (A) (A) (A) (A) (A) (A)
                 (A) (A) (A) (A) (A) (A) (A) (A) (A) (A) (A) (A)
                 (A) (A) (A) (A) (A) (A) (A) (A) (A) (A) (A) (A)
                 (A) (A) (A) (A) (A) (A) (A) (A) (A) (A) (A) (A)
                 (A) (A) (A) (A) (A) (A) (A) (A) (A) (A) (A) (A)
                 (A) (A) (A) (A) (A) (A) (A) (A) (A) (A) (A) (A)
                 (A) (A) (A) (A) (A) (A) (A) (A) (A) (A) (A) (A)
                 (A) (A) (A) (A) (A) (A) (A) (A) (A) (A) (A) (A)
                 (A) (A) (A) (A) (A) (A) (A) (A) (A) (A) (A) (A)
                 (A) (A) (A) (A) (A) (A) (A) (A) (A) (A) (A) (A)
                 (A) (A) (A) (A) (A) (A) (A) (A) (A) (A) (A) (A)
                 (A) (A) (A) (A) (A) (A) (A) (A) (A) (A) (A) (A)
                 (A) (A) (A) (A) (A) (A) (A) (A) (A) (A) (A) (A)
                 (A) (A) (A) (A) (A) (A) (A) (A) (A) (A) (A) (A)
                 (A) (A) (A) (A) (A) (A) (A) (A) (A) (A) (A) (A)
                 (A) (A) (A) (A) (A) (A) (A) (A) (A) (A) (A) (A)
                 (A) (A) (A) (A) (A) (A) (A) (A) (A) (A) (A) (A)
                 (A) (A) (A) (A) (A) (A) (A) (A) (A) (A) (A) (A)
                 (A) (A) (A) (A) (A) (A) (A) (A) (A) (A) (A) (A)
                 (A) (A) (A) (A) (A) (A) (A) (A) (A) (A) (A) (A)
                 (A) (A) (A) (A) (A) (A) (A) (A) (A) (A) (A) (A)
                 (A) (A) (A) (A) (A) (A) (A) (A) (A) (A) (A) (A)
                 (A) (A) (A) (A) (A) (A) (A) (A) (A) (A) (A) (A)
                 (A) (A) (A) (A) (A) (A) (A) (A) (A) (A) (A) (A)
                 (A) (A) (A) (A) (A) (A) (A) (A) (A) (A) (A) (A)
                 (A) (A) (A) (A) (A) (A) (A) (A) (A) (A) (A) (A)
                 (A) (A) (A) (A) (A) (A) (A) (A) (A) (A) (A) (A)
                 (A) (A) (A) (A) (A) (A) (A) (A) (A) (A) (A) (A)
                 (A) (A) (A) (A) (A) (A) (A) (A) (A) (A) (A) (A)
                 (A) (A) (A) (A) (A) (A) (A) (A) (A) (A) (A) (A)
                 (A) (A) (A) (A) (A) (A) (A) (A) (A) (A) (A) (A)
                 (A) (A) (A) (A) (A) (A) (A) (A) (A) (A) (A) (A)
                 (A) (A) (A)
 The electronic state of the initial guess is 1-A.
 Requested convergence on RMS density matrix=1.00D-08 within 128 cycles.
 Requested convergence on MAX density matrix=1.00D-06.
 Requested convergence on             energy=1.00D-06.
 No special actions if energy rises.
 SCF Done:  E(RB3LYP) =  -4087.97392326     A.U. after   19 cycles
             Convg  =    0.8827D-08             -V/T =  2.0037

 **********************************************************************

            Population analysis using the SCF density.

 **********************************************************************

 Orbital symmetries:
       Occupied  (A) (A) (A) (A) (A) (A) (A) (A) (A) (A) (A) (A)
                 (A) (A) (A) (A) (A) (A) (A) (A) (A) (A) (A) (A)
                 (A) (A) (A) (A) (A) (A) (A) (A) (A) (A) (A) (A)
                 (A) (A) (A) (A) (A) (A) (A) (A) (A) (A) (A) (A)
                 (A) (A) (A) (A) (A) (A) (A) (A) (A) (A) (A) (A)
                 (A) (A) (A) (A) (A) (A) (A) (A) (A) (A) (A) (A)
                 (A) (A) (A) (A) (A) (A) (A) (A) (A) (A) (A) (A)
                 (A) (A) (A) (A) (A) (A) (A) (A) (A) (A) (A) (A)
                 (A) (A) (A) (A) (A) (A) (A)
       Virtual   (A) (A) (A) (A) (A) (A) (A) (A) (A) (A) (A) (A)
                 (A) (A) (A) (A) (A) (A) (A) (A) (A) (A) (A) (A)
                 (A) (A) (A) (A) (A) (A) (A) (A) (A) (A) (A) (A)
                 (A) (A) (A) (A) (A) (A) (A) (A) (A) (A) (A) (A)
                 (A) (A) (A) (A) (A) (A) (A) (A) (A) (A) (A) (A)
                 (A) (A) (A) (A) (A) (A) (A) (A) (A) (A) (A) (A)
                 (A) (A) (A) (A) (A) (A) (A) (A) (A) (A) (A) (A)
                 (A) (A) (A) (A) (A) (A) (A) (A) (A) (A) (A) (A)
                 (A) (A) (A) (A) (A) (A) (A) (A) (A) (A) (A) (A)
                 (A) (A) (A) (A) (A) (A) (A) (A) (A) (A) (A) (A)
                 (A) (A) (A) (A) (A) (A) (A) (A) (A) (A) (A) (A)
                 (A) (A) (A) (A) (A) (A) (A) (A) (A) (A) (A) (A)
                 (A) (A) (A) (A) (A) (A) (A) (A) (A) (A) (A) (A)
                 (A) (A) (A) (A) (A) (A) (A) (A) (A) (A) (A) (A)
                 (A) (A) (A) (A) (A) (A) (A) (A) (A) (A) (A) (A)
                 (A) (A) (A) (A) (A) (A) (A) (A) (A) (A) (A) (A)
                 (A) (A) (A) (A) (A) (A) (A) (A) (A) (A) (A) (A)
                 (A) (A) (A) (A) (A) (A) (A) (A) (A) (A) (A) (A)
                 (A) (A) (A) (A) (A) (A) (A) (A) (A) (A) (A) (A)
                 (A) (A) (A) (A) (A) (A) (A) (A) (A) (A) (A) (A)
                 (A) (A) (A) (A) (A) (A) (A) (A) (A) (A) (A) (A)
                 (A) (A) (A) (A) (A) (A) (A) (A) (A) (A) (A) (A)
                 (A) (A) (A) (A) (A) (A) (A) (A) (A) (A) (A) (A)
                 (A) (A) (A) (A) (A) (A) (A) (A) (A) (A) (A) (A)
                 (A) (A) (A) (A) (A) (A) (A) (A) (A) (A) (A) (A)
                 (A) (A) (A) (A) (A) (A) (A) (A) (A) (A) (A) (A)
                 (A) (A) (A) (A) (A) (A) (A) (A) (A) (A) (A) (A)
                 (A) (A) (A) (A) (A) (A) (A) (A) (A) (A) (A) (A)
                 (A) (A) (A) (A) (A) (A) (A) (A) (A) (A) (A) (A)
                 (A) (A) (A) (A) (A) (A) (A) (A) (A) (A) (A) (A)
                 (A) (A) (A) (A) (A) (A) (A) (A) (A) (A) (A) (A)
                 (A) (A) (A) (A) (A) (A) (A) (A) (A) (A) (A) (A)
                 (A) (A) (A) (A) (A) (A) (A) (A) (A) (A) (A) (A)
                 (A) (A) (A) (A) (A) (A) (A) (A) (A) (A) (A) (A)
                 (A) (A) (A) (A) (A) (A) (A) (A) (A) (A) (A) (A)
                 (A) (A) (A)
 The electronic state is 1-A.
 Alpha  occ. eigenvalues -- -453.87937 -88.98521 -88.91654 -57.48235 -52.15347
 Alpha  occ. eigenvalues --  -52.15117 -52.14874 -19.24265 -14.36422 -14.36295
 Alpha  occ. eigenvalues --  -14.36213 -10.26940 -10.26271 -10.25286 -10.24197
 Alpha  occ. eigenvalues --  -10.24012 -10.23621 -10.23040 -10.22841 -10.22659
 Alpha  occ. eigenvalues --  -10.22513 -10.21771 -10.21287 -10.20465 -10.18892
 Alpha  occ. eigenvalues --  -10.18846 -10.18729 -10.18665  -8.05903  -7.97371
 Alpha  occ. eigenvalues --   -7.73341  -6.02326  -6.01700  -6.01495  -5.93838
 Alpha  occ. eigenvalues --   -5.93464  -5.93029  -5.77682  -5.77020  -5.76341
 Alpha  occ. eigenvalues --   -2.13710  -2.13381  -2.12626  -2.12145  -2.12102
 Alpha  occ. eigenvalues --   -1.18429  -1.14912  -0.98695  -0.97919  -0.96025
 Alpha  occ. eigenvalues --   -0.90629  -0.86564  -0.84593  -0.82334  -0.80495
 Alpha  occ. eigenvalues --   -0.77829  -0.76753  -0.74525  -0.71881  -0.70142
 Alpha  occ. eigenvalues --   -0.68918  -0.66823  -0.62801  -0.61132  -0.60828
 Alpha  occ. eigenvalues --   -0.60097  -0.58286  -0.56923  -0.55821  -0.55344
 Alpha  occ. eigenvalues --   -0.53995  -0.51956  -0.50968  -0.50016  -0.49309
 Alpha  occ. eigenvalues --   -0.48066  -0.47612  -0.46552  -0.46095  -0.44696
 Alpha  occ. eigenvalues --   -0.44288  -0.43620  -0.41468  -0.41021  -0.40864
 Alpha  occ. eigenvalues --   -0.39709  -0.38740  -0.38551  -0.37742  -0.36378
 Alpha  occ. eigenvalues --   -0.35938  -0.34323  -0.33626  -0.33039  -0.31547
 Alpha  occ. eigenvalues --   -0.30894  -0.29502  -0.27882  -0.27822  -0.27557
 Alpha  occ. eigenvalues --   -0.25913  -0.20534  -0.17902
 Alpha virt. eigenvalues --   -0.07957  -0.05947  -0.04231  -0.01996  -0.00781
 Alpha virt. eigenvalues --   -0.00470  -0.00287   0.00386   0.00450   0.01004
 Alpha virt. eigenvalues --    0.01442   0.02025   0.02421   0.02537   0.02627
 Alpha virt. eigenvalues --    0.03034   0.03414   0.03635   0.03867   0.04356
 Alpha virt. eigenvalues --    0.04834   0.05374   0.05787   0.05970   0.06264
 Alpha virt. eigenvalues --    0.06494   0.07129   0.07495   0.07636   0.08118
 Alpha virt. eigenvalues --    0.08250   0.08511   0.08822   0.09669   0.09872
 Alpha virt. eigenvalues --    0.10152   0.10512   0.10782   0.11140   0.11211
 Alpha virt. eigenvalues --    0.11523   0.11859   0.12361   0.12450   0.12670
 Alpha virt. eigenvalues --    0.12871   0.13059   0.13403   0.13481   0.13922
 Alpha virt. eigenvalues --    0.14110   0.14239   0.14530   0.14609   0.15114
 Alpha virt. eigenvalues --    0.15442   0.15595   0.15703   0.16041   0.16145
 Alpha virt. eigenvalues --    0.16502   0.16834   0.17185   0.17266   0.17736
 Alpha virt. eigenvalues --    0.18078   0.18224   0.18697   0.18970   0.19314
 Alpha virt. eigenvalues --    0.19511   0.19687   0.20066   0.20377   0.20764
 Alpha virt. eigenvalues --    0.20998   0.21284   0.21691   0.21893   0.22427
 Alpha virt. eigenvalues --    0.22640   0.22768   0.22894   0.23054   0.23191
 Alpha virt. eigenvalues --    0.23968   0.24272   0.24424   0.24714   0.24953
 Alpha virt. eigenvalues --    0.25483   0.25717   0.26339   0.26808   0.26849
 Alpha virt. eigenvalues --    0.27049   0.27277   0.27660   0.27846   0.28158
 Alpha virt. eigenvalues --    0.28400   0.28990   0.29582   0.29623   0.29916
 Alpha virt. eigenvalues --    0.30184   0.30821   0.31045   0.31448   0.32003
 Alpha virt. eigenvalues --    0.32117   0.32481   0.33161   0.33264   0.33605
 Alpha virt. eigenvalues --    0.33960   0.34179   0.34907   0.35055   0.35338
 Alpha virt. eigenvalues --    0.36146   0.36395   0.36676   0.37272   0.37502
 Alpha virt. eigenvalues --    0.38301   0.38846   0.39637   0.40052   0.40845
 Alpha virt. eigenvalues --    0.40861   0.41237   0.42013   0.42992   0.43466
 Alpha virt. eigenvalues --    0.43968   0.45126   0.46422   0.47307   0.48510
 Alpha virt. eigenvalues --    0.51056   0.51713   0.53267   0.55200   0.55486
 Alpha virt. eigenvalues --    0.55950   0.57178   0.57693   0.58816   0.59771
 Alpha virt. eigenvalues --    0.61685   0.64187   0.64701   0.65715   0.66008
 Alpha virt. eigenvalues --    0.66571   0.67082   0.67194   0.67957   0.68558
 Alpha virt. eigenvalues --    0.68850   0.69500   0.70012   0.70545   0.70910
 Alpha virt. eigenvalues --    0.71030   0.71859   0.72415   0.73164   0.73892
 Alpha virt. eigenvalues --    0.74217   0.74415   0.75650   0.76068   0.76394
 Alpha virt. eigenvalues --    0.76563   0.77292   0.77756   0.78746   0.79052
 Alpha virt. eigenvalues --    0.79452   0.80147   0.80464   0.81852   0.82189
 Alpha virt. eigenvalues --    0.82795   0.83624   0.84503   0.85403   0.87032
 Alpha virt. eigenvalues --    0.87806   0.88573   0.89553   0.89634   0.91226
 Alpha virt. eigenvalues --    0.91562   0.92446   0.93049   0.94039   0.95026
 Alpha virt. eigenvalues --    0.95937   0.96218   0.96953   0.97393   0.98349
 Alpha virt. eigenvalues --    0.98432   0.99041   0.99322   0.99797   1.01329
 Alpha virt. eigenvalues --    1.02953   1.04137   1.04663   1.04787   1.06567
 Alpha virt. eigenvalues --    1.07433   1.09923   1.10244   1.10581   1.11746
 Alpha virt. eigenvalues --    1.12197   1.12698   1.13494   1.13837   1.14722
 Alpha virt. eigenvalues --    1.16065   1.16583   1.17674   1.18347   1.19746
 Alpha virt. eigenvalues --    1.19841   1.21132   1.21917   1.22385   1.23010
 Alpha virt. eigenvalues --    1.23384   1.23742   1.25103   1.25719   1.26731
 Alpha virt. eigenvalues --    1.28652   1.29552   1.30158   1.30895   1.31072
 Alpha virt. eigenvalues --    1.31917   1.32633   1.33368   1.34855   1.35499
 Alpha virt. eigenvalues --    1.36209   1.36792   1.38131   1.38715   1.38891
 Alpha virt. eigenvalues --    1.39791   1.40375   1.40839   1.41580   1.42907
 Alpha virt. eigenvalues --    1.44453   1.46533   1.47803   1.48544   1.48989
 Alpha virt. eigenvalues --    1.49566   1.52484   1.53675   1.54335   1.55604
 Alpha virt. eigenvalues --    1.59067   1.60325   1.62021   1.62491   1.63614
 Alpha virt. eigenvalues --    1.67559   1.69274   1.70058   1.73429   1.75846
 Alpha virt. eigenvalues --    1.76934   1.77694   1.79654   1.80549   1.82655
 Alpha virt. eigenvalues --    1.83911   1.85255   1.86270   1.86942   1.87441
 Alpha virt. eigenvalues --    1.89503   1.89562   1.90670   1.92571   1.92745
 Alpha virt. eigenvalues --    1.93325   1.93667   1.95005   1.96277   1.98739
 Alpha virt. eigenvalues --    2.00105   2.01534   2.02498   2.03484   2.05654
 Alpha virt. eigenvalues --    2.06976   2.07092   2.07768   2.08601   2.09673
 Alpha virt. eigenvalues --    2.11899   2.13081   2.13749   2.16039   2.16493
 Alpha virt. eigenvalues --    2.17406   2.19219   2.21186   2.21867   2.22344
 Alpha virt. eigenvalues --    2.23768   2.24505   2.27055   2.27823   2.30241
 Alpha virt. eigenvalues --    2.31341   2.31565   2.33301   2.34678   2.35580
 Alpha virt. eigenvalues --    2.37373   2.37676   2.38673   2.39941   2.41888
 Alpha virt. eigenvalues --    2.42671   2.43185   2.45550   2.47078   2.48945
 Alpha virt. eigenvalues --    2.49271   2.54646   2.55304   2.56220   2.56550
 Alpha virt. eigenvalues --    2.56648   2.57427   2.59258   2.60918   2.61216
 Alpha virt. eigenvalues --    2.62415   2.64159   2.65282   2.66327   2.67390
 Alpha virt. eigenvalues --    2.68951   2.70846   2.72036   2.73054   2.73573
 Alpha virt. eigenvalues --    2.74981   2.75456   2.75945   2.76590   2.78447
 Alpha virt. eigenvalues --    2.79833   2.80927   2.81127   2.81857   2.83996
 Alpha virt. eigenvalues --    2.84893   2.87686   2.89322   2.91560   2.92067
 Alpha virt. eigenvalues --    2.95545   2.97088   3.00104   3.03371   3.06552
 Alpha virt. eigenvalues --    3.06885   3.12795   3.15256   3.17242   3.25573
 Alpha virt. eigenvalues --    3.32041   3.33636   3.34694   3.38626   3.44572
 Alpha virt. eigenvalues --    3.47245   3.47905   3.53341   3.55516   3.67567
 Alpha virt. eigenvalues --    3.75826   3.76325   3.90696   3.97963   4.01430
 Alpha virt. eigenvalues --    4.21772   4.27401   4.31680   4.33210   4.33632
 Alpha virt. eigenvalues --    4.35593   4.37312   4.37830   4.41149   4.41423
 Alpha virt. eigenvalues --    4.42920   4.45627   4.50908   4.55283   4.57913
 Alpha virt. eigenvalues --    4.59604   4.62732   4.72521   4.75869   4.86516
 Alpha virt. eigenvalues --    4.97809   8.60811  85.72668
          Condensed to atoms (all electrons):
              1          2          3          4          5          6
     1  C    9.301176   0.004823  -1.038582  -1.906422   0.687310  -1.100378
     2  O    0.004823   8.091156   0.156929   0.041347  -0.003327   0.094172
     3  C   -1.038582   0.156929   9.250343  -0.544967  -1.666735  -1.067741
     4  C   -1.906422   0.041347  -0.544967   9.018377   0.587310   0.560267
     5  C    0.687310  -0.003327  -1.666735   0.587310  15.494646  -5.621979
     6  C   -1.100378   0.094172  -1.067741   0.560267  -5.621979  13.190859
     7  C    0.467811   0.008261   0.419683   0.327502  -0.786005   0.215151
     8  C    1.226688  -0.014424  -1.334969  -0.229933   4.149327  -3.423654
     9  S    0.028026  -0.004716  -0.259405  -0.075385   0.252130   0.436810
    10  C   -0.428552   0.009709   0.042996  -1.987772  -1.523628   0.570063
    11  C   -0.004853   0.001100   0.585633  -0.186741  -0.027597  -0.304276
    12  C    0.013390   0.001127  -0.125027   0.239772   0.172013  -0.082091
    13  Se   0.008863   0.017464  -0.057764   0.075433  -0.062567   0.047680
    14  C   -0.495145   0.028048   0.265492  -0.566913  -1.476560   0.368497
    15  C   -1.542113   0.033309   0.666550   1.584515  -4.297359   2.907970
    16  C   -0.024988  -0.000846  -0.114391  -0.321979  -0.088178   0.079617
    17  C   -0.007448   0.000887   0.021072  -0.068229  -0.044216   0.005483
    18  N   -0.000041  -0.000001  -0.002756   0.001568   0.000332   0.000059
    19  C   -0.000086  -0.000003   0.001505  -0.002750   0.000035   0.000277
    20  C    0.000712  -0.000039   0.020527  -0.021551   0.001279  -0.003085
    21  N    0.000002   0.000000  -0.000109   0.000535   0.000026  -0.000014
    22  S   -0.000070  -0.000001  -0.000894  -0.000332  -0.000584   0.000624
    23  N   -0.000008  -0.000002  -0.003536   0.007231  -0.000006   0.001202
    24  C   -0.001612  -0.000253  -0.014632  -0.062281  -0.002933   0.002653
    25  H    0.487709  -0.093205   0.045822  -0.032988  -0.126023  -0.015225
    26  H    0.106555  -0.171095   0.600882  -0.302168  -0.200070  -0.031618
    27  H   -0.190423   0.002236   0.000218   0.124874  -0.305077   0.621121
    28  H   -0.017978   0.000750   0.037224   0.069886   0.013975  -0.171718
    29  H    0.000613   0.000081  -0.019722   0.024701   0.017574  -0.008918
    30  H    0.000486   0.000006   0.001866   0.003175   0.004889  -0.004463
    31  H   -0.002975   0.000288  -0.033504   0.015103   0.018539  -0.001476
    32  H   -0.004171   0.000120   0.010695  -0.033213  -0.012799   0.003198
    33  H   -0.000012  -0.000000   0.000072  -0.000288  -0.000041   0.000009
              7          8          9         10         11         12
     1  C    0.467811   1.226688   0.028026  -0.428552  -0.004853   0.013390
     2  O    0.008261  -0.014424  -0.004716   0.009709   0.001100   0.001127
     3  C    0.419683  -1.334969  -0.259405   0.042996   0.585633  -0.125027
     4  C    0.327502  -0.229933  -0.075385  -1.987772  -0.186741   0.239772
     5  C   -0.786005   4.149327   0.252130  -1.523628  -0.027597   0.172013
     6  C    0.215151  -3.423654   0.436810   0.570063  -0.304276  -0.082091
     7  C    8.954230  -1.062475   0.044942  -1.474530   0.782728  -0.131234
     8  C   -1.062475  12.030599  -0.217527  -3.037145  -0.088143  -0.020463
     9  S    0.044942  -0.217527  16.870912   0.242106  -0.690611  -0.088440
    10  C   -1.474530  -3.037145   0.242106  26.267638  -6.147207  -3.927996
    11  C    0.782728  -0.088143  -0.690611  -6.147207  15.623568  -0.039283
    12  C   -0.131234  -0.020463  -0.088440  -3.927996  -0.039283  15.531233
    13  Se  -0.073455  -0.127338  -0.073362   0.252828   0.089779   0.360563
    14  C   -0.975721  -0.155216  -0.469343  -4.435992  -0.917565   2.262679
    15  C   -0.681262  -1.367943  -0.273904  -4.031853  -0.443537   0.817340
    16  C   -0.161692  -0.355978   0.140369   4.357036  -2.077917  -1.523447
    17  C    0.005687  -0.091415   0.050543   0.781397   0.192771  -1.668426
    18  N   -0.000226  -0.000550   0.001005   0.028165  -0.012077   0.072234
    19  C    0.000699   0.010682  -0.006949  -0.084357   0.208543  -0.595878
    20  C    0.015055   0.065710  -0.027537  -0.983449   1.519962  -3.284324
    21  N   -0.000152  -0.001498  -0.000144   0.002461  -0.136572   0.279132
    22  S   -0.000436  -0.003428   0.013838   0.109455  -0.010015  -0.083159
    23  N   -0.003874  -0.002582   0.011097   0.370119  -0.205061  -0.434104
    24  C    0.008844   0.003218   0.004674   1.546016  -1.301066  -1.490089
    25  H    0.022582   0.009283   0.000336  -0.008008   0.000878  -0.000154
    26  H   -0.051170  -0.134362  -0.011869   0.119538   0.053926   0.028625
    27  H   -0.050605  -0.154398  -0.016915   0.016556  -0.004999  -0.001034
    28  H    0.369643  -0.025390  -0.048681   0.002666   0.021136  -0.002348
    29  H   -0.011988   0.049590  -0.028974  -0.322518   0.158838   0.276509
    30  H    0.013359   0.017697  -0.012029  -0.282606   0.540664  -0.020952
    31  H   -0.008998   0.006895  -0.000488   0.041948  -0.246855   0.459755
    32  H   -0.000667  -0.015432   0.001373   0.122904  -0.011484  -0.353581
    33  H    0.000010   0.000038  -0.000037  -0.000097  -0.003032  -0.025085
             13         14         15         16         17         18
     1  C    0.008863  -0.495145  -1.542113  -0.024988  -0.007448  -0.000041
     2  O    0.017464   0.028048   0.033309  -0.000846   0.000887  -0.000001
     3  C   -0.057764   0.265492   0.666550  -0.114391   0.021072  -0.002756
     4  C    0.075433  -0.566913   1.584515  -0.321979  -0.068229   0.001568
     5  C   -0.062567  -1.476560  -4.297359  -0.088178  -0.044216   0.000332
     6  C    0.047680   0.368497   2.907970   0.079617   0.005483   0.000059
     7  C   -0.073455  -0.975721  -0.681262  -0.161692   0.005687  -0.000226
     8  C   -0.127338  -0.155216  -1.367943  -0.355978  -0.091415  -0.000550
     9  S   -0.073362  -0.469343  -0.273904   0.140369   0.050543   0.001005
    10  C    0.252828  -4.435992  -4.031853   4.357036   0.781397   0.028165
    11  C    0.089779  -0.917565  -0.443537  -2.077917   0.192771  -0.012077
    12  C    0.360563   2.262679   0.817340  -1.523447  -1.668426   0.072234
    13  Se  35.863285   0.224491  -0.455380  -0.058143  -0.690367   0.007226
    14  C    0.224491  13.011195   2.445934  -2.214725  -0.660196  -0.015960
    15  C   -0.455380   2.445934  12.106499  -0.985164  -0.551540  -0.001599
    16  C   -0.058143  -2.214725  -0.985164  18.897479 -10.070566   0.372154
    17  C   -0.690367  -0.660196  -0.551540 -10.070566  19.651057  -0.070205
    18  N    0.007226  -0.015960  -0.001599   0.372154  -0.070205   6.780548
    19  C   -0.169829   0.127721   0.027656   0.824206  -2.085623   0.000516
    20  C    0.006795   0.045527   0.053976  -2.837779   1.888388   0.018557
    21  N    0.001865   0.008188   0.000811   0.317291  -0.021348   0.011098
    22  S    0.053553  -0.028223  -0.009946  -0.120790   0.235704   0.011229
    23  N    0.053860   0.025453   0.011734  -0.557221  -0.141666  -0.002217
    24  C   -0.050202  -0.925597  -0.258081   2.339242  -0.966456   0.157416
    25  H   -0.000681  -0.019422  -0.020573  -0.000712  -0.000031  -0.000001
    26  H   -0.096591   0.152333  -0.109644  -0.044024   0.040414   0.000176
    27  H    0.000559   0.022348   0.194220   0.001081   0.000055   0.000001
    28  H    0.000906   0.011565   0.010334  -0.001144   0.000079  -0.000003
    29  H   -0.238220   0.213946   0.048207   0.015956  -0.191406   0.000179
    30  H    0.033247   0.106019   0.021927  -0.114087   0.012116  -0.001038
    31  H   -0.584350  -0.020495   0.026966   0.287322  -0.272083   0.011216
    32  H   -0.142045  -0.038708  -0.067251  -0.690381   1.289531  -0.147721
    33  H   -0.005657  -0.000718  -0.000413  -0.012832  -0.001302  -0.135113
             19         20         21         22         23         24
     1  C   -0.000086   0.000712   0.000002  -0.000070  -0.000008  -0.001612
     2  O   -0.000003  -0.000039   0.000000  -0.000001  -0.000002  -0.000253
     3  C    0.001505   0.020527  -0.000109  -0.000894  -0.003536  -0.014632
     4  C   -0.002750  -0.021551   0.000535  -0.000332   0.007231  -0.062281
     5  C    0.000035   0.001279   0.000026  -0.000584  -0.000006  -0.002933
     6  C    0.000277  -0.003085  -0.000014   0.000624   0.001202   0.002653
     7  C    0.000699   0.015055  -0.000152  -0.000436  -0.003874   0.008844
     8  C    0.010682   0.065710  -0.001498  -0.003428  -0.002582   0.003218
     9  S   -0.006949  -0.027537  -0.000144   0.013838   0.011097   0.004674
    10  C   -0.084357  -0.983449   0.002461   0.109455   0.370119   1.546016
    11  C    0.208543   1.519962  -0.136572  -0.010015  -0.205061  -1.301066
    12  C   -0.595878  -3.284324   0.279132  -0.083159  -0.434104  -1.490089
    13  Se  -0.169829   0.006795   0.001865   0.053553   0.053860  -0.050202
    14  C    0.127721   0.045527   0.008188  -0.028223   0.025453  -0.925597
    15  C    0.027656   0.053976   0.000811  -0.009946   0.011734  -0.258081
    16  C    0.824206  -2.837779   0.317291  -0.120790  -0.557221   2.339242
    17  C   -2.085623   1.888388  -0.021348   0.235704  -0.141666  -0.966456
    18  N    0.000516   0.018557   0.011098   0.011229  -0.002217   0.157416
    19  C   12.716902  -1.312398  -0.657130  -0.341140   0.488206  -3.554633
    20  C   -1.312398  21.564541  -1.122685  -0.384070   1.534339 -10.621655
    21  N   -0.657130  -1.122685   7.842145  -0.098262  -0.658759   1.556251
    22  S   -0.341140  -0.384070  -0.098262  16.423281  -0.320651  -0.242177
    23  N    0.488206   1.534339  -0.658759  -0.320651   8.821713  -1.607158
    24  C   -3.554633 -10.621655   1.556251  -0.242177  -1.607158  20.974283
    25  H   -0.000001   0.000024  -0.000000  -0.000001  -0.000000  -0.000035
    26  H   -0.002190  -0.010611   0.000032   0.001010   0.001115  -0.016451
    27  H    0.000002  -0.000042  -0.000000   0.000005   0.000013   0.000006
    28  H   -0.000005   0.000173  -0.000001  -0.000007  -0.000088   0.000303
    29  H    0.017632  -0.042459   0.022239  -0.140850   0.009624   0.144899
    30  H    0.017743   0.083014  -0.010553  -0.004564   0.010729  -0.089181
    31  H    0.028438  -0.067340  -0.000128  -0.011250  -0.020539   0.140564
    32  H    0.056809   0.099744  -0.007265  -0.003896  -0.005074   0.002945
    33  H    0.777420  -0.322423  -0.002869  -0.019637   0.001185  -0.080878
             25         26         27         28         29         30
     1  C    0.487709   0.106555  -0.190423  -0.017978   0.000613   0.000486
     2  O   -0.093205  -0.171095   0.002236   0.000750   0.000081   0.000006
     3  C    0.045822   0.600882   0.000218   0.037224  -0.019722   0.001866
     4  C   -0.032988  -0.302168   0.124874   0.069886   0.024701   0.003175
     5  C   -0.126023  -0.200070  -0.305077   0.013975   0.017574   0.004889
     6  C   -0.015225  -0.031618   0.621121  -0.171718  -0.008918  -0.004463
     7  C    0.022582  -0.051170  -0.050605   0.369643  -0.011988   0.013359
     8  C    0.009283  -0.134362  -0.154398  -0.025390   0.049590   0.017697
     9  S    0.000336  -0.011869  -0.016915  -0.048681  -0.028974  -0.012029
    10  C   -0.008008   0.119538   0.016556   0.002666  -0.322518  -0.282606
    11  C    0.000878   0.053926  -0.004999   0.021136   0.158838   0.540664
    12  C   -0.000154   0.028625  -0.001034  -0.002348   0.276509  -0.020952
    13  Se  -0.000681  -0.096591   0.000559   0.000906  -0.238220   0.033247
    14  C   -0.019422   0.152333   0.022348   0.011565   0.213946   0.106019
    15  C   -0.020573  -0.109644   0.194220   0.010334   0.048207   0.021927
    16  C   -0.000712  -0.044024   0.001081  -0.001144   0.015956  -0.114087
    17  C   -0.000031   0.040414   0.000055   0.000079  -0.191406   0.012116
    18  N   -0.000001   0.000176   0.000001  -0.000003   0.000179  -0.001038
    19  C   -0.000001  -0.002190   0.000002  -0.000005   0.017632   0.017743
    20  C    0.000024  -0.010611  -0.000042   0.000173  -0.042459   0.083014
    21  N   -0.000000   0.000032  -0.000000  -0.000001   0.022239  -0.010553
    22  S   -0.000001   0.001010   0.000005  -0.000007  -0.140850  -0.004564
    23  N   -0.000000   0.001115   0.000013  -0.000088   0.009624   0.010729
    24  C   -0.000035  -0.016451   0.000006   0.000303   0.144899  -0.089181
    25  H    0.587284   0.003234  -0.001592   0.000235  -0.000029   0.000004
    26  H    0.003234   0.870946   0.000165   0.000317  -0.011558  -0.001410
    27  H   -0.001592   0.000165   0.693505  -0.013236  -0.000021  -0.000074
    28  H    0.000235   0.000317  -0.013236   0.647197  -0.000260   0.000330
    29  H   -0.000029  -0.011558  -0.000021  -0.000260   0.767292  -0.063234
    30  H    0.000004  -0.001410  -0.000074   0.000330  -0.063234   0.585843
    31  H   -0.000122  -0.017633  -0.000029  -0.000198   0.107714  -0.016245
    32  H   -0.000058   0.005978   0.000035   0.000008  -0.003062   0.002103
    33  H   -0.000000  -0.000008   0.000000  -0.000000  -0.000281   0.000126
             31         32         33
     1  C   -0.002975  -0.004171  -0.000012
     2  O    0.000288   0.000120  -0.000000
     3  C   -0.033504   0.010695   0.000072
     4  C    0.015103  -0.033213  -0.000288
     5  C    0.018539  -0.012799  -0.000041
     6  C   -0.001476   0.003198   0.000009
     7  C   -0.008998  -0.000667   0.000010
     8  C    0.006895  -0.015432   0.000038
     9  S   -0.000488   0.001373  -0.000037
    10  C    0.041948   0.122904  -0.000097
    11  C   -0.246855  -0.011484  -0.003032
    12  C    0.459755  -0.353581  -0.025085
    13  Se  -0.584350  -0.142045  -0.005657
    14  C   -0.020495  -0.038708  -0.000718
    15  C    0.026966  -0.067251  -0.000413
    16  C    0.287322  -0.690381  -0.012832
    17  C   -0.272083   1.289531  -0.001302
    18  N    0.011216  -0.147721  -0.135113
    19  C    0.028438   0.056809   0.777420
    20  C   -0.067340   0.099744  -0.322423
    21  N   -0.000128  -0.007265  -0.002869
    22  S   -0.011250  -0.003896  -0.019637
    23  N   -0.020539  -0.005074   0.001185
    24  C    0.140564   0.002945  -0.080878
    25  H   -0.000122  -0.000058  -0.000000
    26  H   -0.017633   0.005978  -0.000008
    27  H   -0.000029   0.000035   0.000000
    28  H   -0.000198   0.000008  -0.000000
    29  H    0.107714  -0.003062  -0.000281
    30  H   -0.016245   0.002103   0.000126
    31  H    0.999417   0.011757   0.000408
    32  H    0.011757   0.769655   0.004202
    33  H    0.000408   0.004202   0.662405
 Mulliken atomic charges:
              1
     1  C    0.431692
     2  O   -0.203904
     3  C    0.157224
     4  C   -0.337685
     5  C    0.846299
     6  C   -1.269077
     7  C   -0.181698
     8  C    0.294536
     9  S    0.208154
    10  C   -0.207891
    11  C   -0.920637
    12  C   -0.617259
    13  Se  -0.212447
    14  C    0.097060
    15  C    0.139615
    16  C    0.745228
    17  C   -0.572663
    18  N   -0.084171
    19  C   -0.492021
    20  C    0.123124
    21  N   -0.324587
    22  S    0.975682
    23  N   -0.385072
    24  C    0.404056
    25  H    0.161469
    26  H    0.227226
    27  H    0.061444
    28  H    0.094329
    29  H    0.207906
    30  H    0.165091
    31  H    0.148379
    32  H    0.155750
    33  H    0.164847
 Sum of Mulliken atomic charges =  -0.00000
 Mulliken charges with hydrogens summed into heavy atoms:
              1
     1  C    0.593161
     2  O   -0.203904
     3  C    0.384451
     4  C   -0.337685
     5  C    0.846299
     6  C   -1.207633
     7  C   -0.087369
     8  C    0.294536
     9  S    0.208154
    10  C   -0.207891
    11  C   -0.547639
    12  C   -0.468881
    13  Se  -0.212447
    14  C    0.097060
    15  C    0.139615
    16  C    0.745228
    17  C   -0.416913
    18  N   -0.084171
    19  C   -0.327174
    20  C    0.123124
    21  N   -0.324587
    22  S    0.975682
    23  N   -0.385072
    24  C    0.404056
 Sum of Mulliken charges with hydrogens summed into heavy atoms =  -0.00000
 Electronic spatial extent (au):  <R**2>=          10611.3744
 Charge=             -0.0000 electrons
 Dipole moment (field-independent basis, Debye):
    X=             -0.4709    Y=              1.8596    Z=              0.5599  Tot=              1.9983
 Quadrupole moment (field-independent basis, Debye-Ang):
   XX=           -147.2025   YY=           -171.0697   ZZ=           -161.5354
   XY=             -4.9756   XZ=             -3.9220   YZ=             -0.0801
 Traceless Quadrupole moment (field-independent basis, Debye-Ang):
   XX=             12.7334   YY=            -11.1338   ZZ=             -1.5995
   XY=             -4.9756   XZ=             -3.9220   YZ=             -0.0801
 Octapole moment (field-independent basis, Debye-Ang**2):
  XXX=            102.1062  YYY=              4.2932  ZZZ=             11.7374  XYY=              5.6798
  XXY=             24.9167  XXZ=            -18.7111  XZZ=            -18.7624  YZZ=             -9.1142
  YYZ=             -2.1699  XYZ=             -9.0729
 Hexadecapole moment (field-independent basis, Debye-Ang**3):
 XXXX=         -10571.3528 YYYY=          -2762.0254 ZZZZ=           -576.7956 XXXY=            -78.0942
 XXXZ=           -196.3305 YYYX=           -136.7956 YYYZ=             -7.8040 ZZZX=             25.1682
 ZZZY=            -20.0344 XXYY=          -2346.1983 XXZZ=          -2056.9483 YYZZ=           -536.8024
 XXYZ=             53.1503 YYXZ=             28.7243 ZZXY=            -42.3061
 N-N= 2.867877939275D+03 E-N=-1.542984861604D+04  KE= 4.072785129179D+03
 Calling FoFJK, ICntrl=      2127 FMM=F ISym2X=0 I1Cent= 0 IOpClX= 0 NMat=1 NMatS=1 NMatT=0.
 ***** Axes restored to original set *****
 -------------------------------------------------------------------
 Center     Atomic                   Forces (Hartrees/Bohr)
 Number     Number              X              Y              Z
 -------------------------------------------------------------------
      1        6          -0.051429714   -0.038923369    0.000618967
      2        8           0.023732215    0.040817007   -0.000081674
      3        6           0.006108255    0.022237463    0.000948278
      4        6          -0.093403907   -0.029894029    0.000533014
      5        6           0.061874593    0.020561662   -0.000696313
      6        6           0.044097040   -0.004608276   -0.001458148
      7        6          -0.004221105   -0.060697638   -0.000717991
      8        6          -0.109900113    0.094321846    0.005513811
      9       16          -0.027332817   -0.033751643   -0.000775834
     10        6           0.022669911   -0.059905272   -0.011438344
     11        6          -0.008115450   -0.036416324   -0.016698826
     12        6          -0.329175800   -0.027230980   -0.079993614
     13       34           0.323984986    0.378986255    0.120581083
     14        6           0.091325101   -0.288035007   -0.014946963
     15        6           0.035277318    0.019123661    0.000944027
     16        6          -0.007318135   -0.030548811    0.002932894
     17        6          -0.047894547    0.025419480    0.045671868
     18        7          -0.011641708    0.014287732    0.009612591
     19        6           0.030990471   -0.041073343   -0.034068745
     20        6           0.039076322    0.029816358   -0.039400633
     21        7          -0.027120701    0.428868718    0.089131522
     22       16          -0.341210840   -0.341990776    0.291216598
     23        7           0.290699492   -0.142071003   -0.315744737
     24        6           0.023906796    0.048836123   -0.014758546
     25        1           0.041395216    0.004658777   -0.000622428
     26        1          -0.004932561    0.042843519    0.001124898
     27        1           0.035077414   -0.027342892   -0.001172790
     28        1          -0.003225313   -0.044975123   -0.001211012
     29        1           0.001093687   -0.004276875    0.010486432
     30        1          -0.013685904   -0.005151194   -0.009433456
     31        1          -0.008066664   -0.007233959   -0.026836010
     32        1           0.029990892    0.015853920   -0.027860354
     33        1          -0.012624429    0.037493993    0.018600435
 -------------------------------------------------------------------
 Cartesian Forces:  Max     0.428868718 RMS     0.113366215

 GradGradGradGradGradGradGradGradGradGradGradGradGradGradGradGradGradGrad
 Berny optimization.
 Internal  Forces:  Max     0.369481145 RMS     0.057455671
 Search for a local minimum.
 Step number   1 out of a maximum of  198
 All quantities printed in internal units (Hartrees-Bohrs-Radians)
 Mixed Optimization -- RFO/linear search
 Second derivative matrix not updated -- first step.
 ITU=  0
 DSYEVD returned Info=         140 IAlg= 4 N=    93 NDim=    93 NE2=    11255790 trying DSYEV.
     Eigenvalues ---    0.00230   0.00858   0.01003   0.01096   0.01331
     Eigenvalues ---    0.01368   0.01551   0.01695   0.01781   0.01813
     Eigenvalues ---    0.01886   0.02045   0.02121   0.02209   0.02280
     Eigenvalues ---    0.02375   0.02408   0.02483   0.02575   0.02745
     Eigenvalues ---    0.02828   0.02958   0.02972   0.02983   0.03021
     Eigenvalues ---    0.03212   0.04822   0.05378   0.05943   0.06031
     Eigenvalues ---    0.08294   0.09252   0.09768   0.15855   0.16000
     Eigenvalues ---    0.16000   0.16000   0.16000   0.16000   0.16000
     Eigenvalues ---    0.16047   0.16592   0.20090   0.20981   0.21468
     Eigenvalues ---    0.22519   0.23248   0.23256   0.23989   0.24087
     Eigenvalues ---    0.24562   0.24886   0.24991   0.25000   0.25000
     Eigenvalues ---    0.27310   0.27559   0.27902   0.31025   0.34005
     Eigenvalues ---    0.34341   0.34693   0.37229   0.37230   0.37230
     Eigenvalues ---    0.39819   0.40674   0.41887   0.42224   0.42477
     Eigenvalues ---    0.42477   0.42477   0.42478   0.42478   0.42478
     Eigenvalues ---    0.44720   0.45221   0.48381   0.48523   0.51162
     Eigenvalues ---    0.51300   0.52578   0.53169   0.54368   0.55070
     Eigenvalues ---    0.55454   0.57127   0.57468   0.58183   0.62116
     Eigenvalues ---    0.63938   1.52488   1.67025
 RFO step:  Lambda=-5.07643332D-01 EMin= 2.30010473D-03
 Linear search not attempted -- first point.
 Maximum step size (   0.300) exceeded in Quadratic search.
    -- Step size scaled by   0.464
 Iteration  1 RMS(Cart)=  0.06027382 RMS(Int)=  0.00063870
 Iteration  2 RMS(Cart)=  0.00143985 RMS(Int)=  0.00020037
 Iteration  3 RMS(Cart)=  0.00000170 RMS(Int)=  0.00020037
 Iteration  4 RMS(Cart)=  0.00000000 RMS(Int)=  0.00020037
 Variable       Old X    -DE/DX   Delta X   Delta X   Delta X     New X
                                 (Linear)    (Quad)   (Total)
    R1        2.49392   0.03439   0.00000   0.01342   0.01342   2.50734
    R2        2.64997  -0.00222   0.00000  -0.00188  -0.00189   2.64808
    R3        1.95020   0.03798   0.00000   0.01889   0.01889   1.96909
    R4        2.52895   0.01901   0.00000   0.00837   0.00838   2.53733
    R5        2.48627   0.07084   0.00000   0.02974   0.02974   2.51602
    R6        1.95021   0.03808   0.00000   0.01894   0.01894   1.96915
    R7        2.58551   0.07020   0.00000   0.03172   0.03171   2.61722
    R8        2.79103  -0.01255   0.00000  -0.00836  -0.00840   2.78263
    R9        2.57296   0.06120   0.00000   0.02820   0.02822   2.60119
   R10        2.46443   0.08195   0.00000   0.03368   0.03372   2.49815
   R11        1.95020   0.04448   0.00000   0.02212   0.02212   1.97232
   R12        2.50833   0.09931   0.00000   0.04211   0.04212   2.55045
   R13        1.95020   0.04510   0.00000   0.02243   0.02243   1.97262
   R14        3.35416  -0.00301   0.00000  -0.00218  -0.00217   3.35199
   R15        2.64964   0.01350   0.00000   0.00605   0.00612   2.65575
   R16        3.36198  -0.00983   0.00000  -0.00622  -0.00631   3.35567
   R17        2.84268   0.03690   0.00000   0.01279   0.01208   2.85477
   R18        2.54565   0.06219   0.00000   0.02622   0.02595   2.57160
   R19        2.91863   0.05361   0.00000   0.02678   0.02646   2.94509
   R20        2.02200   0.00918   0.00000   0.00484   0.00484   2.02684
   R21        2.02201   0.01729   0.00000   0.00911   0.00911   2.03112
   R22        2.91164   0.36917   0.00000   0.16197   0.16257   3.07420
   R23        2.80057   0.06101   0.00000   0.03325   0.03325   2.83382
   R24        2.02202   0.02554   0.00000   0.01346   0.01346   2.03548
   R25        2.89504   0.32286   0.00000   0.14018   0.14074   3.03578
   R26        2.69610  -0.01233   0.00000  -0.00572  -0.00567   2.69043
   R27        2.55439   0.03823   0.00000   0.01929   0.01932   2.57371
   R28        2.63851   0.02934   0.00000   0.01277   0.01278   2.65130
   R29        2.56826  -0.01943   0.00000  -0.00498  -0.00497   2.56330
   R30        1.95019   0.04316   0.00000   0.02147   0.02147   1.97165
   R31        2.55251  -0.04046   0.00000  -0.01643  -0.01644   2.53606
   R32        2.66574   0.00472   0.00000  -0.00031  -0.00034   2.66541
   R33        1.95020   0.04325   0.00000   0.02151   0.02151   1.97171
   R34        2.51744  -0.00290   0.00000   0.01141   0.01165   2.52909
   R35        4.07906   0.08931   0.00000   0.03168   0.03141   4.11047
   R36        2.68934   0.06336   0.00000   0.01604   0.01614   2.70548
   R37        2.50376   0.34906   0.00000   0.08121   0.08134   2.58510
   R38        2.48960   0.36948   0.00000   0.08297   0.08306   2.57266
   R39        4.07671   0.10262   0.00000   0.03911   0.03892   4.11563
   R40        2.53751  -0.01346   0.00000   0.00740   0.00757   2.54509
[...]
 0088,-0.00000358,0.00000018,0.00000050,-0.00000092,0.00000392,0.000013
 58,0.00000140,-0.00000374,0.00001575,0.00001720,0.00000051,-0.00006759
 ,-0.00003909,-0.00002075,-0.00000732,-0.00002222,-0.00000395,0.0010248
 0,0.00003445,0.00078446,0.08099241,0.00008162,-0.00019205,-0.00041214,
 -0.00039180,0.00008731,0.00034059,0.00016409,0.00003642,0.00008709,0.0
 0050954,0.00023960,0.00020455,-0.00017924,0.00219511,-0.00171010,-0.00
 005406,-0.00202662,-0.00182640,-0.07115797,-0.29500121,-0.07943830,-0.
 00766514,-0.01586501,-0.00544473,0.00013736,0.00023520,0.00027324,0.00
 001458,-0.00070103,0.00007282,0.00005428,0.00012371,-0.00006088,-0.000
 00130,-0.00003881,-0.00002088,0.00018712,0.00012573,0.00016296,-0.0003
 3289,-0.00046110,-0.00037521,0.00315297,-0.00008152,-0.00081274,0.0000
 0183,0.00002611,0.00004231,0.00000711,0.00000422,-0.00001443,0.0000038
 8,-0.00001268,-0.00000807,0.00000692,-0.00000307,-0.00000042,-0.000005
 23,0.00000065,-0.00000473,0.00002160,-0.00001318,-0.00000078,-0.000011
 92,0.00000412,0.00000713,0.00000731,0.00001049,-0.00001002,-0.00001112
 ,-0.00001224,0.00000734,-0.00003416,-0.00001545,-0.00001805,-0.0000080
 0,0.00000759,-0.00000826,-0.00030199,0.00046409,0.00170015,0.07570437,
 0.31090188,0.00001507,-0.00052571,0.00120514,-0.00003657,0.00030057,-0
 .00122716,0.00009588,0.00007525,-0.00019602,0.00008906,0.00013565,-0.0
 0017927,-0.00161586,-0.00157202,0.00759938,-0.00088060,-0.00511352,0.0
 0319116,-0.02471791,-0.07918190,-0.05908061,-0.00111157,-0.00240251,0.
 00010643,0.00023804,0.00027705,-0.00069625,0.00007131,0.00000006,-0.00
 052476,0.00003051,-0.00001116,0.00012168,-0.00000059,0.00002927,-0.000
 08561,0.00000091,0.00005317,-0.00021177,-0.00010909,-0.00019724,0.0006
 5089,0.00006921,-0.00082477,0.00371987,0.00005126,0.00004769,0.0000268
 4,-0.00002167,0.00000594,-0.00000570,0.00000858,-0.00000323,-0.0000159
 4,0.00000425,-0.00000548,0.00001180,-0.00000109,0.00000314,-0.00000814
 ,0.00000715,-0.00001488,-0.00000727,-0.00000198,-0.00000978,0.00000038
 ,0.00001886,0.00001783,-0.00000308,-0.00003923,-0.00002840,-0.00001243
 ,-0.00002599,-0.00002320,0.00002691,-0.00001461,-0.00000478,0.00002631
 ,0.00067171,0.00172403,-0.00530947,0.02718657,0.08726072,0.05086976,0.
 00003330,0.00009208,0.00007694,0.00008805,-0.00028234,-0.00007292,-0.0
 0013239,-0.00015251,-0.00006833,0.00017715,0.00047809,-0.00004345,-0.0
 0001326,0.00013831,-0.00000511,-0.00014687,0.00018987,0.00008298,0.000
 06120,-0.00007097,-0.00044956,-0.00120592,0.00010998,-0.00027426,0.000
 22740,-0.00120182,0.00044180,-0.01856579,-0.00240163,0.02409346,-0.081
 90466,-0.02443822,0.08729277,-0.00230497,-0.00169333,0.00504355,0.0007
 8934,-0.00028241,0.00015163,0.00043523,0.00256823,0.00147283,-0.000322
 90,0.00090766,-0.00081076,-0.00022449,0.00042380,-0.00080629,0.0001825
 7,0.00036955,0.00010020,-0.00002519,0.00002964,-0.00007044,0.00004203,
 -0.00000429,0.00008538,-0.00009221,-0.00005292,-0.00007320,-0.00034443
 ,0.00022903,0.00011019,0.00008824,0.00018411,-0.00000602,-0.00034409,0
 .00025219,0.00104440,0.00056379,0.00101584,0.00031557,-0.00000284,-0.0
 0000421,0.00002164,-0.00004676,0.00001843,-0.00001592,-0.00000263,-0.0
 0003035,0.00005673,-0.00001908,0.00005925,0.00002231,0.09285177,0.0000
 7417,-0.00004543,0.00004626,-0.00010067,0.00010554,0.00000928,0.000134
 57,0.00016478,-0.00000720,-0.00030965,-0.00039310,0.00012725,-0.000072
 46,-0.00022571,-0.00014603,0.00031674,0.00002260,-0.00000460,-0.000416
 59,0.00012870,0.00052791,0.00158703,0.00031243,0.00050713,-0.00049830,
 0.00022351,-0.00064476,0.00917406,0.00447873,-0.01485485,-0.02024664,-
 0.05789761,0.04553887,-0.01012774,-0.00943542,0.03091065,0.00055189,0.
 00070661,-0.00060333,-0.00150488,-0.00032938,-0.00067682,0.00078208,-0
 .00090320,-0.00005269,-0.00057412,0.00190191,0.00044325,0.00023450,-0.
 00035696,0.00036327,-0.00008720,0.00018990,-0.00004916,0.00007114,-0.0
 0001611,-0.00007676,0.00003328,-0.00036325,0.00009023,-0.00070609,0.00
 050452,0.00010300,0.00047837,0.00039265,-0.00080949,-0.00011289,-0.000
 86003,-0.00040504,0.00098622,-0.00159932,0.00027689,-0.00000800,0.0000
 1838,-0.00001164,0.00000317,0.00000233,0.00006158,0.00000823,0.0000183
 2,-0.00005851,-0.00000464,-0.00001984,-0.00000857,0.01870751,0.0674763
 0,0.00000561,-0.00001426,-0.00004006,-0.00005054,-0.00002248,-0.000005
 86,0.00004293,0.00000608,0.00003883,-0.00002776,0.00008528,-0.00011610
 ,0.00001530,-0.00000069,0.00017232,-0.00015025,-0.00001694,-0.00008393
 ,0.00019344,-0.00018639,0.00014992,-0.00018243,0.00013461,-0.00017115,
 0.00046077,0.00048836,0.00011714,0.00613697,-0.00303096,0.00130077,0.0
 8445946,0.05229310,-0.26135523,-0.00064879,0.00146642,-0.00120537,0.00
 097286,0.00123434,0.00046103,-0.00202456,-0.00122738,0.00006283,0.0001
 5525,-0.00038277,-0.00026828,-0.00015494,-0.00034484,-0.00008299,0.000
 02524,0.00003445,-0.00009162,-0.00001261,0.00004703,0.00005643,-0.0000
 2829,-0.00000400,0.00000113,-0.00019693,0.00015612,0.00016801,0.000035
 33,0.00021529,-0.00002711,0.00067480,-0.00026021,-0.00089208,0.0006233
 9,-0.00156470,-0.00239446,-0.00010810,-0.00072988,0.00081301,0.0000002
 8,0.00000033,0.00000455,-0.00002023,0.00001283,-0.00001819,-0.00000072
 ,0.00000110,-0.00001822,0.00001032,0.00000442,-0.00000870,-0.09780996,
 -0.05305056,0.28083944,-0.00000846,0.00008727,0.00002496,0.00001759,-0
 .00011131,0.00000246,-0.00000814,-0.00002361,-0.00000994,-0.00004847,0
 .00046766,0.00014225,-0.00012723,-0.00002941,0.00007060,-0.00000959,0.
 00005189,-0.00009001,0.00006380,-0.00004916,0.00042556,-0.00067649,-0.
 00024819,-0.00021759,0.00064816,-0.00001302,-0.00031602,-0.01922544,-0
 .00795779,-0.01719823,-0.16136003,-0.04107084,-0.12139842,-0.00357944,
 -0.00232272,-0.00277176,-0.00018981,0.00013552,-0.00011102,-0.00251722
 ,0.00247725,-0.00042742,-0.00081202,-0.00058350,0.00050531,0.00002583,
 0.00012636,0.00037176,0.00018533,-0.00015746,-0.00005973,-0.00004253,0
 .00001804,-0.00000454,0.00002080,-0.00006490,-0.00002360,0.00005990,0.
 00009594,0.00010198,-0.00011111,0.00006643,0.00002640,0.00004789,0.000
 06729,-0.00005867,-0.00010707,0.00000121,0.00025486,-0.00012401,-0.000
 17693,-0.00008072,-0.00000866,-0.00000341,-0.00002785,0.00001963,-0.00
 000060,-0.00002126,0.00001506,0.00002008,-0.00003964,-0.00001338,0.000
 02937,0.00000903,0.00939575,0.00335369,0.00749413,0.17807201,-0.000042
 22,-0.00002951,-0.00000158,-0.00002870,0.00017191,0.00007917,0.0000415
 7,-0.00005736,-0.00003308,0.00000368,-0.00036775,-0.00009520,0.0000051
 7,-0.00007231,-0.00001068,0.00019907,-0.00002363,-0.00000100,-0.000285
 90,0.00018965,-0.00008645,0.00077135,-0.00004916,0.00028167,-0.0005086
 2,0.00063948,0.00004434,0.01100608,0.00550225,0.01367816,-0.04201708,-
 0.06127402,-0.04568377,-0.01994276,-0.01115769,-0.02040668,-0.00285582
 ,-0.00338840,-0.00016753,0.00254278,-0.00285893,-0.00119080,0.00050947
 ,0.00077119,-0.00038349,-0.00124102,0.00096096,0.00064757,0.00069984,-
 0.00011124,0.00015015,-0.00007475,-0.00004684,0.00014135,0.00000260,-0
 .00004057,-0.00004020,-0.00009106,0.00000214,-0.00004051,-0.00008034,0
 .00001119,-0.00000913,0.00004739,0.00003896,0.00000444,0.00005975,-0.0
 0000082,0.00015365,0.00024934,0.00019929,-0.00024561,0.00000142,0.0000
 1393,0.00000331,0.00009572,0.00003825,-0.00000036,-0.00001170,0.000004
 04,0.00000623,0.00000646,-0.00001015,-0.00002164,0.00516727,0.00200441
 ,0.00457361,0.04589653,0.06737910,0.00003717,0.00003606,0.00004276,0.0
 0000481,-0.00011222,-0.00003756,-0.00001711,-0.00000412,0.00000695,0.0
 0005229,0.00009136,-0.00007370,0.00001916,0.00002710,-0.00004893,-0.00
 004751,0.00007522,0.00007339,0.00001088,-0.00009275,-0.00006569,-0.000
 29225,0.00035590,-0.00021271,-0.00050947,-0.00008143,0.00032313,0.0049
 0000,0.00265907,0.00487240,-0.12335283,-0.04513038,-0.17718171,0.00202
 318,0.00087822,0.00121150,0.00204498,0.00093747,0.00116910,0.00086143,
 -0.00011828,0.00029221,0.00052699,0.00002586,0.00019123,-0.00012759,0.
 00001084,0.00009463,0.00005296,-0.00017261,0.00003755,0.00006188,-0.00
 001354,0.00005529,0.00001439,0.00002197,-0.00005388,-0.00001991,-0.000
 04071,-0.00007901,0.00033234,-0.00021890,-0.00004668,-0.00019562,-0.00
 015686,0.00025386,0.00019034,-0.00017792,-0.00075093,0.00002726,0.0001
 2641,-0.00029671,0.00000475,-0.00000227,-0.00000063,-0.00002322,-0.000
 01049,0.00002287,-0.00000454,-0.00000293,-0.00000585,-0.00000664,0.000
 00528,0.00000824,-0.02024777,-0.00752313,-0.01890597,0.13305976,0.0485
 5433,0.18783008,-0.00006300,0.00005365,0.00007498,0.00002404,0.0000431
 5,0.00004266,0.00004725,-0.00010311,0.00002648,0.00015233,-0.00002004,
 -0.00004670,0.00005136,0.00001479,-0.00010171,0.00000909,-0.00005723,0
 .00004143,-0.00003346,0.00010753,-0.00005591,0.00006484,-0.00041542,0.
 00004852,0.00018741,0.00046306,0.00009002,-0.00001637,-0.00059999,0.00
 079467,-0.00030198,-0.00348171,0.00558243,-0.03936887,-0.00015940,0.02
 526642,-0.01279436,0.00378972,-0.02329247,0.00036724,-0.00300360,-0.00
 054418,-0.00037899,0.00044533,0.00037398,-0.00415231,-0.00427902,0.022
 92635,-0.00007766,-0.00090511,0.00148748,0.00016437,-0.00005385,-0.000
 13957,-0.00003034,-0.00010240,-0.00002377,0.00001574,-0.00049694,0.000
 93862,-0.00042548,0.00025324,0.00026382,-0.00018247,-0.00001614,0.0001
 1318,0.00004878,-0.00027162,-0.00020893,-0.00116735,0.00415908,0.00052
 879,0.00000413,0.00000734,-0.00002774,0.00008703,0.00005360,0.00005339
 ,0.00000311,0.00001241,0.00001270,0.00001452,0.00001091,-0.00001660,0.
 00077315,-0.00165262,0.00013153,0.00038177,-0.00008134,0.00062295,0.05
 655496,0.00001744,0.00003051,0.00010561,0.00001450,-0.00002617,0.00000
 087,-0.00001031,0.00002342,-0.00001997,0.00009942,-0.00008209,0.000029
 48,0.00006181,0.00002609,-0.00017264,-0.00003714,0.00001039,0.00005980
 ,0.00003231,-0.00003458,0.00001250,0.00002979,-0.00006703,-0.00008503,
 0.00005587,-0.00018232,-0.00000393,-0.00139273,0.00130899,-0.00004012,
 -0.00572940,-0.01035749,0.03060528,-0.00360984,-0.06531624,0.06401051,
 -0.00307010,0.00251844,-0.00470828,0.00055605,-0.00064959,0.00001597,0
 .00016808,-0.00007081,0.00000085,0.00320732,0.00438826,-0.02002704,0.0
 0077153,-0.00039292,-0.00242796,-0.00051368,0.00028115,0.00016347,0.00
 002955,-0.00009918,-0.00005328,0.00017339,0.00050046,-0.00069328,0.000
 19451,-0.00012787,-0.00021827,0.00004807,-0.00009326,-0.00022201,0.000
 01798,-0.00011786,0.00035913,0.00310825,-0.00235892,-0.00048260,0.0000
 0230,0.00000458,-0.00001779,0.00003043,0.00000074,0.00004832,0.0000046
 6,0.00001008,0.00000467,0.00000714,-0.00000657,0.00000902,-0.00037868,
 -0.00636633,0.00011954,-0.00007127,0.00159945,0.00007123,0.00586743,0.
 07588330,-0.00001309,0.00002253,0.00006565,0.00001738,-0.00000762,0.00
 001741,-0.00000473,-0.00002679,0.00000701,0.00001425,-0.00000883,-0.00
 014570,-0.00001605,0.00002686,-0.00006198,-0.00002969,-0.00001665,0.00
 003654,0.00006033,-0.00002036,0.00002397,-0.00002887,0.00013819,-0.000
 00704,0.00001300,0.00007660,-0.00010976,-0.00065431,0.00017339,-0.0002
 2128,0.00064261,0.00001893,-0.00122459,0.03665227,0.06411213,-0.301755
 07,-0.00576952,-0.00056655,-0.00609872,-0.00000328,0.00030986,0.000878
 26,0.00011519,-0.00006885,-0.00001091,0.00305714,0.00309486,-0.0132610
 2,-0.00195831,0.00199602,0.00014242,0.00025930,-0.00031983,0.00046369,
 -0.00020488,0.00008592,0.00019022,-0.00014921,0.00071037,-0.00050786,0
 .00022785,-0.00017047,-0.00019902,0.00004015,-0.00002268,-0.00004771,-
 0.00023880,-0.00009063,0.00038338,0.00145954,-0.00183925,0.00038344,0.
 00000084,0.00000277,-0.00001229,0.00002393,0.00000321,0.00002889,0.000
 00011,0.00000431,-0.00000543,0.00000316,0.00000269,0.00000687,0.000341
 56,0.00022933,0.00150742,0.00037327,0.00003957,0.00129097,-0.03432199,
 -0.06706975,0.31737826,0.00000714,0.00000210,-0.00003340,0.00000200,0.
 00000889,0.00000501,0.00000239,0.00000012,0.00001345,0.00000509,-0.000
 02101,0.00002697,0.00000015,-0.00000953,0.00003107,0.00000713,-0.00000
 340,-0.00001011,-0.00000081,0.00001298,-0.00000725,0.00000261,-0.00003
 804,-0.00000500,0.00003752,-0.00000993,-0.00002201,-0.00008284,-0.0001
 2336,0.00002640,0.00024430,-0.00005268,0.00025629,-0.00173881,-0.00158
 479,-0.00233130,-0.00006349,0.00023828,-0.00031531,-0.00012647,0.00005
 343,0.00001092,-0.00000791,0.00000902,0.00000472,0.00787300,0.00452883
 ,-0.00969946,-0.06912762,-0.01021021,0.07715411,-0.01308319,0.00170156
 ,0.02426405,0.00080926,0.00458734,0.00277112,-0.00049362,0.00025663,-0
 .00019400,-0.00000043,-0.00032682,0.00007013,-0.00068818,-0.00056395,-
 0.00048380,0.00088842,0.00041614,-0.00040129,0.00286113,0.00506437,0.0
 0089987,-0.00000072,-0.00000069,0.00000378,-0.00000043,0.00000198,-0.0
 0003733,0.00000194,-0.00000023,0.00000243,-0.00000079,-0.00000150,0.00
 000215,-0.00001414,-0.00008182,-0.00001227,0.00002239,-0.00004051,-0.0
 0000004,0.00001642,0.00031451,0.00011302,0.07260210,0.00000291,0.00001
 341,0.00000686,-0.00002989,-0.00001782,0.00000041,0.00003604,-0.000005
 33,-0.00000564,0.00002274,0.00000914,0.00001465,-0.00000610,0.00000097
 ,-0.00001845,-0.00000800,0.00000399,0.00000935,0.00000070,-0.00001638,
 -0.00001283,-0.00000767,-0.00000083,-0.00000524,0.00000843,0.00000123,
 -0.00002697,0.00001742,-0.00007502,0.00004000,0.00026827,-0.00004865,-
 0.00009696,-0.00260328,-0.00071051,0.00159830,-0.00014120,0.00002884,-
 0.00031600,-0.00005072,-0.00013856,0.00005728,0.00003571,0.00000149,-0
 .00003328,-0.00495178,0.00030790,0.02186912,-0.01031370,-0.05811340,0.
 05178531,0.01091273,0.00027567,-0.02494695,0.00529284,0.00036085,-0.00
 147989,0.00034647,-0.00073960,-0.00007170,-0.00025741,0.00021992,-0.00
 022664,-0.00066342,-0.00072412,0.00002490,-0.00017268,0.00044950,0.001
 26644,0.00562857,-0.00048872,0.00286332,-0.00000089,0.00000233,-0.0000
 0055,0.00000462,0.00000353,-0.00002223,-0.00000363,0.00000557,0.000000
 34,0.00000036,-0.00000267,0.00000866,0.00004458,0.00012664,-0.00004272
 ,-0.00001259,-0.00003914,-0.00000377,0.00037294,-0.00024208,-0.0007781
 9,-0.00419049,0.05925662,0.00000650,-0.00001549,-0.00001154,0.00001168
 ,0.00001592,0.00001032,0.00000366,0.00000710,0.00000647,-0.00000349,-0
 .00001368,0.00001689,0.00000231,-0.00000500,0.00000155,0.00001273,-0.0
 0001041,0.00000044,-0.00001221,0.00001696,-0.00000167,0.00000089,-0.00
 003603,-0.00001524,0.00000610,-0.00002496,-0.00002639,-0.00004577,-0.0
 0001583,0.00009638,0.00009520,0.00005014,0.00036777,-0.00018241,-0.002
 26932,0.00009548,-0.00004815,0.00012640,-0.00006450,-0.00009400,0.0000
 6434,0.00007335,-0.00001976,0.00000566,-0.00001814,0.00721342,0.002145
 73,-0.01269146,0.07703463,0.05158637,-0.30131066,0.00794154,-0.0051032
 3,-0.00814934,0.00146374,0.00008197,0.00243589,-0.00029300,0.00002687,
 0.00022339,-0.00000690,-0.00013610,0.00002679,-0.00044319,-0.00000147,
 -0.00046236,0.00054980,0.00026431,-0.00055594,0.00012874,0.00357598,0.
 00091274,0.00000015,0.00000125,-0.00000006,-0.00000941,-0.00000293,-0.
 00002362,0.00000351,0.00000013,0.00000026,-0.00000035,-0.00000404,0.00
 000044,0.00000293,-0.00022412,-0.00000212,-0.00000114,0.00005749,-0.00
 001550,-0.00060335,0.00056263,0.00079717,-0.09289139,-0.05090860,0.318
 52472,-0.00000109,0.00000718,0.00000620,-0.00000975,-0.00000695,-0.000
 00252,0.00000807,-0.00000383,-0.00000450,0.00000447,0.00000291,0.00000
 165,-0.00000372,-0.00000109,-0.00000721,-0.00000045,0.00000155,0.00000
 233,0.00000904,0.00000129,-0.00000166,-0.00001371,-0.00000054,-0.00000
 504,0.00002477,0.00001166,0.00000724,-0.00007109,-0.00008325,0.0000066
 4,0.00025864,-0.00008411,-0.00012405,-0.00112419,-0.00095997,-0.000412
 86,-0.00018929,0.00019252,0.00004365,-0.00009688,-0.00003529,-0.000017
 03,0.00003429,0.00002667,0.00000623,-0.00039177,0.00010300,-0.00025487
 ,0.00777278,0.00427332,0.00342631,-0.01120592,0.00093293,0.00899044,-0
 .17957282,0.13731605,0.05552298,-0.00076353,0.00686806,0.00489114,-0.0
 0028282,-0.00116110,-0.00049857,-0.00071813,0.00028151,-0.00044087,0.0
 0003330,0.00025573,-0.00017942,0.00281509,0.00174398,0.00018582,0.,0.0
 0000048,-0.00000026,0.00000404,0.00000333,0.00000348,-0.00000059,0.000
 00090,0.00000058,-0.00000057,0.00000220,0.00000151,0.00000363,0.000007
 66,-0.00000920,-0.00000683,-0.00000370,-0.00000302,0.00002510,0.000000
 79,-0.00002219,0.00004644,0.00041809,0.00017700,0.18341348,-0.00000138
 ,0.00000255,0.00000060,-0.00000242,0.00000276,-0.00000061,0.00000299,-
 0.00000735,-0.00000400,0.00000246,-0.00000425,0.00000743,0.00000028,0.
 00000255,-0.00000466,0.00000117,-0.00000378,0.00000212,0.00000499,0.00
 001053,-0.00000601,-0.00000963,-0.00001178,0.00000556,0.00002366,0.000
 01262,0.00000665,-0.00004433,-0.00005511,-0.00000459,0.00019473,-0.000
 09892,-0.00004676,-0.00094577,-0.00077694,-0.00046458,-0.00017400,0.00
 017929,0.00003109,-0.00010188,-0.00002795,-0.00003868,0.00002554,0.000
 02795,0.00001681,-0.00024988,-0.00037988,0.00051835,0.00361573,0.00630
 359,0.00404372,-0.00771951,0.00552279,-0.00418437,0.13774680,-0.178393
 71,-0.04741927,0.01698752,-0.00883513,-0.00737910,-0.00140069,0.000859
 53,-0.00112887,0.00023163,-0.00093802,-0.00007165,0.00069762,-0.000975
 12,0.00043833,0.00110591,0.00069741,0.00383673,-0.00000047,0.00000007,
 0.00000009,0.00000319,0.00000294,0.00000268,0.00000047,0.00000028,0.00
 000073,-0.00000121,0.00000095,0.00000074,0.00000821,0.00003341,0.00000
 587,0.00000215,0.00000134,-0.00001404,0.00004533,0.00000545,-0.0000411
 1,0.00006278,0.00029522,0.00018196,-0.15011199,0.17654670,-0.00000125,
 -0.00000568,0.00000275,0.00000752,0.00000745,0.00000286,-0.00000121,0.
 00000230,-0.00000032,-0.00000317,0.00000024,-0.00001362,0.00000284,0.0
 0000019,0.00000179,0.00000469,-0.00000429,-0.00000456,0.00000122,0.000
 00729,0.00001158,0.00000923,-0.00001705,-0.00002138,0.00002180,-0.0000
 0336,0.00000342,-0.00004603,-0.00007090,0.00000314,0.00021826,-0.00003
 523,-0.00005581,-0.00055117,-0.00074818,0.00001242,-0.00006505,0.00007
 025,0.00002613,-0.00002622,-0.00000722,0.00002793,-0.00000293,0.000000
 08,0.00000205,0.00033533,-0.00013041,-0.00082299,0.00466800,0.00262232
 ,-0.00141351,0.02418706,-0.02233389,-0.01825089,0.05464173,-0.04657742
 ,-0.07292588,-0.01275772,0.01394844,0.00969952,-0.00006719,-0.00167757
 ,0.00151137,-0.00034894,-0.00014400,0.00025848,-0.00097611,0.00142775,
 -0.00022965,0.00129612,0.00247469,-0.00262368,0.00000023,-0.00000005,-
 0.00000067,-0.00000169,-0.00000242,0.00000098,0.00000190,-0.00000069,0
 .00000026,-0.00000063,-0.00000114,0.00000008,-0.00000291,-0.00002766,-
 0.00000536,-0.00000478,0.00000262,-0.00000072,-0.00003746,0.00006306,0
 .00006681,0.00078847,-0.00054834,-0.00024150,-0.07128992,0.05170881,0.
 08497899\\0.00000531,-0.00000646,-0.00001530,0.00000082,0.00001106,-0.
 00000916,-0.00000720,-0.00001265,-0.00001279,0.00002063,0.00002320,0.0
 0000424,-0.00000534,0.00000737,0.00000202,-0.00001025,-0.00000434,-0.0
 0000953,0.00001394,0.00000762,-0.00000492,0.00000397,-0.00000866,0.000
 01660,-0.00000580,-0.00000079,0.00000110,-0.00000240,0.00001738,0.0000
 0786,-0.00000973,0.00002796,-0.00001611,-0.00000998,-0.00003269,0.0000
 2745,-0.00001708,0.00009163,0.00003923,0.00004348,-0.00009142,-0.00004
 709,-0.00001889,-0.00001936,-0.00000312,0.00001352,0.00003659,-0.00005
 083,0.00000561,-0.00001773,0.00000140,-0.00000537,-0.00000353,0.000021
 25,0.00000064,0.00000708,-0.00002145,-0.00000832,0.00001392,0.00005210
 ,0.00000718,-0.00000689,-0.00001913,0.00004528,-0.00000314,-0.00004604
 ,-0.00003727,0.00002845,0.00004376,0.00000306,-0.00004822,0.00002165,-
 0.00000466,-0.00000021,-0.00000980,-0.00000391,-0.00000385,-0.00000768
 ,-0.00000516,0.00000224,0.00000292,0.00000119,0.00000454,-0.00000092,0
 .00000738,-0.00000151,0.00001227,-0.00000032,-0.00000648,0.00001146,-0
 .00001353,-0.00000378,-0.00000445,-0.00000988,-0.00000610,0.00000663,0
 .00000310,-0.00000122,0.00000639\\\@


 A MAN IS EXACTLY AS GREAT AS THE TIDE SURGING
 BENEATH HIM.      - BISMARCK
 Job cpu time:  0 days  9 hours 22 minutes 41.7 seconds.
 File lengths (MBytes):  RWF=   1081 Int=      0 D2E=      0 Chk=     22 Scr=      1
 Normal termination of Gaussian 09 at Sun Dec 29 17:33:42 2013.
