 Entering Gaussian System, Link 0=g09
 Initial command:
 /opt/gaussian/g09/l1.exe /panfs/panfs.cluster/home/shuo/Gau-15165.inp -scrdir=/panfs/panfs.cluster/home/shuo/
 Default is to use a total of  12 processors:
                               12 via shared-memory
                                1 via Linda
 Entering Link 1 = /opt/gaussian/g09/l1.exe PID=     15166.
  
 Copyright (c) 1988,1990,1992,1993,1995,1998,2003,2009,2011,
            Gaussian, Inc.  All Rights Reserved.
  
 This is part of the Gaussian(R) 09 program.  It is based on
 the Gaussian(R) 03 system (copyright 2003, Gaussian, Inc.),
 the Gaussian(R) 98 system (copyright 1998, Gaussian, Inc.),
 the Gaussian(R) 94 system (copyright 1995, Gaussian, Inc.),
 the Gaussian 92(TM) system (copyright 1992, Gaussian, Inc.),
 the Gaussian 90(TM) system (copyright 1990, Gaussian, Inc.),
 the Gaussian 88(TM) system (copyright 1988, Gaussian, Inc.),
 the Gaussian 86(TM) system (copyright 1986, Carnegie Mellon
 University), and the Gaussian 82(TM) system (copyright 1983,
 Carnegie Mellon University). Gaussian is a federally registered
 trademark of Gaussian, Inc.
  
 This software contains proprietary and confidential information,
 including trade secrets, belonging to Gaussian, Inc.
  
 This software is provided under written license and may be
 used, copied, transmitted, or stored only in accord with that
 written license.
  
 The following legend is applicable only to US Government
 contracts under FAR:
  
                    RESTRICTED RIGHTS LEGEND
  
 Use, reproduction and disclosure by the US Government is
 subject to restrictions as set forth in subparagraphs (a)
 and (c) of the Commercial Computer Software - Restricted
 Rights clause in FAR 52.227-19.
  
 Gaussian, Inc.
 340 Quinnipiac St., Bldg. 40, Wallingford CT 06492
  
  
 ---------------------------------------------------------------
 Warning -- This program may not be used in any manner that
 competes with the business of Gaussian, Inc. or will provide
 assistance to any competitor of Gaussian, Inc.  The licensee
 of this program is prohibited from giving any competitor of
 Gaussian, Inc. access to this program.  By using this program,
 the user acknowledges that Gaussian, Inc. is engaged in the
 business of creating and licensing software in the field of
 computational chemistry and represents and warrants to the
 licensee that it is not a competitor of Gaussian, Inc. and that
 it will not use this program in any manner prohibited above.
 ---------------------------------------------------------------
  

 Cite this work as:
 Gaussian 09, Revision C.01,
 M. J. Frisch, G. W. Trucks, H. B. Schlegel, G. E. Scuseria, 
 M. A. Robb, J. R. Cheeseman, G. Scalmani, V. Barone, B. Mennucci, 
 G. A. Petersson, H. Nakatsuji, M. Caricato, X. Li, H. P. Hratchian, 
 A. F. Izmaylov, J. Bloino, G. Zheng, J. L. Sonnenberg, M. Hada, 
 M. Ehara, K. Toyota, R. Fukuda, J. Hasegawa, M. Ishida, T. Nakajima, 
 Y. Honda, O. Kitao, H. Nakai, T. Vreven, J. A. Montgomery, Jr., 
 J. E. Peralta, F. Ogliaro, M. Bearpark, J. J. Heyd, E. Brothers, 
 K. N. Kudin, V. N. Staroverov, T. Keith, R. Kobayashi, J. Normand, 
 K. Raghavachari, A. Rendell, J. C. Burant, S. S. Iyengar, J. Tomasi, 
 M. Cossi, N. Rega, J. M. Millam, M. Klene, J. E. Knox, J. B. Cross, 
 V. Bakken, C. Adamo, J. Jaramillo, R. Gomperts, R. E. Stratmann, 
 O. Yazyev, A. J. Austin, R. Cammi, C. Pomelli, J. W. Ochterski, 
 R. L. Martin, K. Morokuma, V. G. Zakrzewski, G. A. Voth, 
 P. Salvador, J. J. Dannenberg, S. Dapprich, A. D. Daniels, 
 O. Farkas, J. B. Foresman, J. V. Ortiz, J. Cioslowski, 
 and D. J. Fox, Gaussian, Inc., Wallingford CT, 2010.
 
 ******************************************
 Gaussian 09:  EM64L-G09RevC.01 23-Sep-2011
                29-Dec-2013 
 ******************************************
 %chk=36_C21H10N4S5.chk
 %NProcShared=12
 Will use up to   12 processors via shared memory.
 %Mem=8000MB
 Default route:  MaxDisk=100GB
 --------------------------------------------
 #B3LYP/6-31++G(d,p) opt scf=direct freq test
 --------------------------------------------
 1/14=-1,18=20,19=15,26=3,38=1/1,3;
 2/9=110,12=2,17=6,18=5,40=1/2;
 3/5=1,6=6,7=1111,11=2,16=1,25=1,30=1,71=1,74=-5/1,2,3;
 4//1;
 5/5=2,38=5/2;
 6/7=2,8=2,9=2,10=2,28=1/1;
 7//1,2,3,16;
 1/14=-1,18=20,19=15/3(2);
 2/9=110/2;
 99//99;
 2/9=110/2;
 3/5=1,6=6,7=1111,11=2,16=1,25=1,30=1,71=1,74=-5/1,2,3;
 4/5=5,16=3/1;
 5/5=2,38=5/2;
 7//1,2,3,16;
 1/14=-1,18=20,19=15/3(-5);
 2/9=110/2;
 6/7=2,8=2,9=2,10=2,19=2,28=1/1;
 99/9=1/99;
 ----------------------------------------------------------------------
 Geom opt of No.36 candidate from the CEPDB database with SMILE code of
  [SiH2]1C=c2c3c4sccc4[Se]c3c3c4nsnc4c(cc3c2=C1)-c1cccc2nsnc12, HPC, 20
 131227, Shuo Dai, Gaussian09
 ----------------------------------------------------------------------
 Charge =  0 Multiplicity = 1
 Symbolic Z-Matrix:
 Si                    1.468    -1.01144  -0.98346 
 H                     0.64843  -1.83464  -0.16673 
 H                     0.64843  -0.21812  -1.82924 
 C                     2.48735   0.07993   0.07771 
 C                     1.90736   0.9253    0.8997 
 C                     0.52206   1.13186   0.92535 
 C                    -0.43579   0.47124   0.25784 
 S                    -0.18078  -0.7823   -0.78109 
 C                     1.43375  -1.09935  -0.87359 
 C                    -2.78002   0.55503   0.07081 
 C                    -1.60228   0.97629   0.55957 
 Se                   -1.43405   2.02229   1.46933 
 C                    -0.07154   2.15164   1.72917 
 C                     0.83956   2.97822   2.5345 
 C                     0.45784   4.01705   3.38179 
 N                    -0.79915   4.31935   3.5056 
 S                    -1.24458   5.51362   4.47896 
 N                     1.04262   5.70202   4.88257 
 C                     1.41939   4.7365    4.09991 
 C                     2.74472   4.44001   3.99094 
 C                     3.13826   3.44466   3.1847 
 C                     2.24018   2.70615   2.46387 
 C                     2.7375    1.69077   1.64399 
 C                     2.56339  -2.06425  -2.00715 
 C                     3.72086   5.19493   4.74086 
 C                     3.57172   6.52701   4.90753 
 C                     4.47868   7.26313   5.60222 
 C                     5.56691   6.69702   6.17007 
 C                     5.78221   5.32387   6.03747 
 N                     6.72884   4.46799   6.45516 
 S                     6.41479   3.26141   6.02949 
 N                     5.28507   3.2928    5.33797 
 C                     4.83972   4.54792   5.30607 
 H                     3.51707   0.03079   0.02994 
 H                     2.41611  -1.38516  -1.00884 
 H                    -3.80762   0.58035  -0.02098 
 H                     4.14452   3.22972   3.10552 
 H                     2.87215  -2.77025  -2.69362 
 H                     2.74948   6.997     4.49759 
 H                     4.33284   8.28021   5.69866 
 H                     6.23601   7.27751   6.69956 
 

 GradGradGradGradGradGradGradGradGradGradGradGradGradGradGradGradGradGrad
 Berny optimization.
 Initialization pass.
                           ----------------------------
                           !    Initial Parameters    !
                           ! (Angstroms and Degrees)  !
 --------------------------                            --------------------------
 ! Name  Definition              Value          Derivative Info.                !
 --------------------------------------------------------------------------------
 ! R1    R(1,2)                  1.42           estimate D2E/DX2                !
 ! R2    R(1,3)                  1.42           estimate D2E/DX2                !
 ! R3    R(1,4)                  1.832          estimate D2E/DX2                !
 ! R4    R(1,8)                  1.6769         estimate D2E/DX2                !
 ! R5    R(1,9)                  0.1448         estimate D2E/DX2                !
 ! R6    R(1,24)                 1.832          estimate D2E/DX2                !
 ! R7    R(1,35)                 1.0194         estimate D2E/DX2                !
 ! R8    R(2,8)                  1.4739         estimate D2E/DX2                !
 ! R9    R(2,9)                  1.2873         estimate D2E/DX2                !
 ! R10   R(3,8)                  1.4507         estimate D2E/DX2                !
 ! R11   R(4,5)                  1.314          estimate D2E/DX2                !
 ! R12   R(4,34)                 1.032          estimate D2E/DX2                !
 ! R13   R(5,6)                  1.4009         estimate D2E/DX2                !
 ! R14   R(5,23)                 1.3524         estimate D2E/DX2                !
 ! R15   R(6,7)                  1.3414         estimate D2E/DX2                !
 ! R16   R(6,12)                 2.217          estimate D2E/DX2                !
 ! R17   R(6,13)                 1.4277         estimate D2E/DX2                !
 ! R18   R(7,8)                  1.648          estimate D2E/DX2                !
 ! R19   R(7,11)                 1.3065         estimate D2E/DX2                !
 ! R20   R(7,12)                 2.2068         estimate D2E/DX2                !
 ! R21   R(8,9)                  1.648          estimate D2E/DX2                !
 ! R22   R(9,35)                 1.032          estimate D2E/DX2                !
 ! R23   R(10,11)                1.3429         estimate D2E/DX2                !
 ! R24   R(10,36)                1.032          estimate D2E/DX2                !
 ! R25   R(11,12)                1.3965         estimate D2E/DX2                !
 ! R26   R(12,13)                1.3931         estimate D2E/DX2                !
 ! R27   R(13,14)                1.4703         estimate D2E/DX2                !
 ! R28   R(14,15)                1.3938         estimate D2E/DX2                !
 ! R29   R(14,22)                1.4285         estimate D2E/DX2                !
 ! R30   R(15,16)                1.2987         estimate D2E/DX2                !
 ! R31   R(15,19)                1.3992         estimate D2E/DX2                !
 ! R32   R(16,17)                1.6038         estimate D2E/DX2                !
 ! R33   R(18,19)                1.2987         estimate D2E/DX2                !
 ! R34   R(19,20)                1.3625         estimate D2E/DX2                !
 ! R35   R(20,21)                1.34           estimate D2E/DX2                !
 ! R36   R(20,25)                1.444          estimate D2E/DX2                !
 ! R37   R(21,22)                1.368          estimate D2E/DX2                !
 ! R38   R(21,37)                1.032          estimate D2E/DX2                !
 ! R39   R(22,23)                1.3966         estimate D2E/DX2                !
 ! R40   R(24,35)                1.2163         estimate D2E/DX2                !
 ! R41   R(24,38)                1.032          estimate D2E/DX2                !
 ! R42   R(25,26)                1.3507         estimate D2E/DX2                !
 ! R43   R(25,33)                1.4106         estimate D2E/DX2                !
 ! R44   R(26,27)                1.3591         estimate D2E/DX2                !
 ! R45   R(26,39)                1.032          estimate D2E/DX2                !
 ! R46   R(27,28)                1.3517         estimate D2E/DX2                !
 ! R47   R(27,40)                1.032          estimate D2E/DX2                !
 ! R48   R(28,29)                1.3962         estimate D2E/DX2                !
 ! R49   R(28,41)                1.032          estimate D2E/DX2                !
 ! R50   R(29,30)                1.3428         estimate D2E/DX2                !
 ! R51   R(29,31)                2.1573         estimate D2E/DX2                !
 ! R52   R(29,33)                1.4231         estimate D2E/DX2                !
 ! R53   R(30,31)                1.3174         estimate D2E/DX2                !
 ! R54   R(31,32)                1.3249         estimate D2E/DX2                !
 ! R55   R(31,33)                2.1585         estimate D2E/DX2                !
 ! R56   R(32,33)                1.3322         estimate D2E/DX2                !
 ! A1    A(2,1,3)              109.4714         estimate D2E/DX2                !
 ! A2    A(2,1,4)              109.4713         estimate D2E/DX2                !
 ! A3    A(2,1,24)             109.4714         estimate D2E/DX2                !
 ! A4    A(2,1,35)             109.7905         estimate D2E/DX2                !
 ! A5    A(3,1,4)              109.471          estimate D2E/DX2                !
 ! A6    A(3,1,9)              130.8828         estimate D2E/DX2                !
 ! A7    A(3,1,24)             109.4712         estimate D2E/DX2                !
 ! A8    A(3,1,35)             136.6162         estimate D2E/DX2                !
 ! A9    A(4,1,8)              113.3146         estimate D2E/DX2                !
 ! A10   A(4,1,9)               93.082          estimate D2E/DX2                !
 ! A11   A(4,1,24)             109.4709         estimate D2E/DX2                !
 ! A12   A(4,1,35)              73.4606         estimate D2E/DX2                !
 ! A13   A(8,1,24)             137.2112         estimate D2E/DX2                !
 ! A14   A(9,1,24)             102.5031         estimate D2E/DX2                !
 ! A15   A(1,4,5)              120.0001         estimate D2E/DX2                !
 ! A16   A(1,4,34)             120.0003         estimate D2E/DX2                !
 ! A17   A(5,4,34)             119.9996         estimate D2E/DX2                !
 ! A18   A(4,5,6)              122.8741         estimate D2E/DX2                !
 ! A19   A(4,5,23)             115.9421         estimate D2E/DX2                !
 ! A20   A(6,5,23)             120.8951         estimate D2E/DX2                !
 ! A21   A(5,6,7)              128.6375         estimate D2E/DX2                !
 ! A22   A(5,6,12)             159.4292         estimate D2E/DX2                !
 ! A23   A(5,6,13)             121.7879         estimate D2E/DX2                !
 ! A24   A(7,6,13)             109.5746         estimate D2E/DX2                !
 ! A25   A(6,7,8)              125.2972         estimate D2E/DX2                !
 ! A26   A(6,7,11)             109.4051         estimate D2E/DX2                !
 ! A27   A(8,7,11)             125.2977         estimate D2E/DX2                !
 ! A28   A(8,7,12)             161.9386         estimate D2E/DX2                !
 ! A29   A(1,8,7)              109.4008         estimate D2E/DX2                !
 ! A30   A(2,8,3)              104.9072         estimate D2E/DX2                !
 ! A31   A(2,8,7)              111.5536         estimate D2E/DX2                !
 ! A32   A(3,8,7)              104.3666         estimate D2E/DX2                !
 ! A33   A(3,8,9)               58.2823         estimate D2E/DX2                !
 ! A34   A(7,8,9)              109.4712         estimate D2E/DX2                !
 ! A35   A(2,9,35)             119.6369         estimate D2E/DX2                !
 ! A36   A(11,10,36)           153.8883         estimate D2E/DX2                !
 ! A37   A(7,11,10)            125.2907         estimate D2E/DX2                !
 ! A38   A(10,11,12)           125.2909         estimate D2E/DX2                !
 ! A39   A(6,12,11)             69.2434         estimate D2E/DX2                !
 ! A40   A(7,12,13)             74.0517         estimate D2E/DX2                !
 ! A41   A(11,12,13)           107.9924         estimate D2E/DX2                !
 ! A42   A(6,13,14)            116.8897         estimate D2E/DX2                !
 ! A43   A(12,13,14)           139.5007         estimate D2E/DX2                !
 ! A44   A(13,14,15)           125.6079         estimate D2E/DX2                !
 ! A45   A(13,14,22)           118.2548         estimate D2E/DX2                !
 ! A46   A(15,14,22)           116.1363         estimate D2E/DX2                !
 ! A47   A(14,15,16)           119.7679         estimate D2E/DX2                !
 ! A48   A(14,15,19)           120.4638         estimate D2E/DX2                !
 ! A49   A(16,15,19)           119.7683         estimate D2E/DX2                !
 ! A50   A(15,16,17)           119.9996         estimate D2E/DX2                !
 ! A51   A(15,19,18)           119.4834         estimate D2E/DX2                !
 ! A52   A(15,19,20)           121.0328         estimate D2E/DX2                !
 ! A53   A(18,19,20)           119.4838         estimate D2E/DX2                !
 ! A54   A(19,20,21)           119.6993         estimate D2E/DX2                !
 ! A55   A(19,20,25)           120.1505         estimate D2E/DX2                !
 ! A56   A(21,20,25)           120.1502         estimate D2E/DX2                !
 ! A57   A(20,21,22)           121.6824         estimate D2E/DX2                !
 ! A58   A(20,21,37)           119.1585         estimate D2E/DX2                !
 ! A59   A(22,21,37)           119.1591         estimate D2E/DX2                !
 ! A60   A(14,22,21)           120.9824         estimate D2E/DX2                !
 ! A61   A(14,22,23)           121.1057         estimate D2E/DX2                !
 ! A62   A(21,22,23)           117.9065         estimate D2E/DX2                !
 ! A63   A(5,23,22)            121.0643         estimate D2E/DX2                !
 ! A64   A(1,24,38)            160.6878         estimate D2E/DX2                !
 ! A65   A(35,24,38)           164.6067         estimate D2E/DX2                !
 ! A66   A(20,25,26)           120.3329         estimate D2E/DX2                !
 ! A67   A(20,25,33)           120.2959         estimate D2E/DX2                !
 ! A68   A(26,25,33)           119.3712         estimate D2E/DX2                !
 ! A69   A(25,26,27)           121.5707         estimate D2E/DX2                !
 ! A70   A(25,26,39)           119.215          estimate D2E/DX2                !
 ! A71   A(27,26,39)           119.2143         estimate D2E/DX2                !
 ! A72   A(26,27,28)           121.678          estimate D2E/DX2                !
 ! A73   A(26,27,40)           119.1612         estimate D2E/DX2                !
 ! A74   A(28,27,40)           119.1608         estimate D2E/DX2                !
 ! A75   A(27,28,29)           119.7439         estimate D2E/DX2                !
 ! A76   A(27,28,41)           120.1277         estimate D2E/DX2                !
 ! A77   A(29,28,41)           120.1284         estimate D2E/DX2                !
 ! A78   A(28,29,30)           134.9113         estimate D2E/DX2                !
 ! A79   A(28,29,33)           118.8756         estimate D2E/DX2                !
 ! A80   A(30,29,33)           106.2131         estimate D2E/DX2                !
 ! A81   A(29,31,32)            74.2915         estimate D2E/DX2                !
 ! A82   A(30,31,32)           110.4992         estimate D2E/DX2                !
 ! A83   A(30,31,33)            74.7147         estimate D2E/DX2                !
 ! A84   A(25,33,29)           118.7582         estimate D2E/DX2                !
 ! A85   A(25,33,32)           134.9817         estimate D2E/DX2                !
 ! A86   A(29,33,32)           106.2601         estimate D2E/DX2                !
 ! A87   A(9,35,24)            112.1758         estimate D2E/DX2                !
 ! A88   L(8,1,35,4,-1)        186.7752         estimate D2E/DX2                !
 ! A89   L(8,9,35,1,-1)        180.0616         estimate D2E/DX2                !
 ! A90   L(28,29,31,10,-1)     189.6673         estimate D2E/DX2                !
 ! A91   L(25,33,31,1,-1)      170.9756         estimate D2E/DX2                !
 ! A92   L(8,1,35,4,-2)        166.1873         estimate D2E/DX2                !
 ! A93   L(8,9,35,1,-2)        186.7538         estimate D2E/DX2                !
 ! A94   L(28,29,31,10,-2)     180.1907         estimate D2E/DX2                !
 ! A95   L(25,33,31,1,-2)      182.902          estimate D2E/DX2                !
 ! D1    D(2,1,4,5)            -59.9998         estimate D2E/DX2                !
 ! D2    D(2,1,4,34)           119.9993         estimate D2E/DX2                !
 ! D3    D(3,1,4,5)             60.0004         estimate D2E/DX2                !
 ! D4    D(3,1,4,34)          -120.0005         estimate D2E/DX2                !
 ! D5    D(8,1,4,5)              0.5454         estimate D2E/DX2                !
 ! D6    D(8,1,4,34)          -179.4555         estimate D2E/DX2                !
 ! D7    D(9,1,4,5)            -75.5819         estimate D2E/DX2                !
 ! D8    D(9,1,4,34)           104.4171         estimate D2E/DX2                !
 ! D9    D(24,1,4,5)          -179.9998         estimate D2E/DX2                !
 ! D10   D(24,1,4,34)           -0.0008         estimate D2E/DX2                !
 ! D11   D(35,1,4,5)          -165.6419         estimate D2E/DX2                !
 ! D12   D(35,1,4,34)           14.3572         estimate D2E/DX2                !
 ! D13   D(4,1,8,7)              4.368          estimate D2E/DX2                !
 ! D14   D(24,1,8,7)          -174.8752         estimate D2E/DX2                !
 ! D15   D(2,1,24,38)           60.0            estimate D2E/DX2                !
 ! D16   D(3,1,24,38)          -60.0004         estimate D2E/DX2                !
 ! D17   D(4,1,24,38)         -180.0            estimate D2E/DX2                !
 ! D18   D(8,1,24,38)           -0.7371         estimate D2E/DX2                !
 ! D19   D(9,1,24,38)           82.1367         estimate D2E/DX2                !
 ! D20   D(1,2,8,9)             -1.2685         estimate D2E/DX2                !
 ! D21   D(1,4,5,6)             -6.1291         estimate D2E/DX2                !
 ! D22   D(1,4,5,23)           179.9999         estimate D2E/DX2                !
 ! D23   D(34,4,5,6)           173.8718         estimate D2E/DX2                !
 ! D24   D(34,4,5,23)            0.0008         estimate D2E/DX2                !
 ! D25   D(4,5,6,7)              6.4701         estimate D2E/DX2                !
 ! D26   D(4,5,6,12)          -173.3676         estimate D2E/DX2                !
 ! D27   D(4,5,6,13)          -173.4785         estimate D2E/DX2                !
 ! D28   D(23,5,6,7)          -179.9539         estimate D2E/DX2                !
 ! D29   D(23,5,6,12)            0.2084         estimate D2E/DX2                !
 ! D30   D(23,5,6,13)            0.0975         estimate D2E/DX2                !
 ! D31   D(4,5,23,22)          174.2417         estimate D2E/DX2                !
 ! D32   D(6,5,23,22)            0.2399         estimate D2E/DX2                !
 ! D33   D(5,6,7,8)              0.0804         estimate D2E/DX2                !
 ! D34   D(5,6,7,11)          -179.9199         estimate D2E/DX2                !
 ! D35   D(13,6,7,8)          -179.9661         estimate D2E/DX2                !
 ! D36   D(13,6,7,11)            0.0337         estimate D2E/DX2                !
 ! D37   D(5,6,12,11)          179.8476         estimate D2E/DX2                !
 ! D38   D(5,6,13,14)           -0.0942         estimate D2E/DX2                !
 ! D39   D(7,6,13,14)          179.9485         estimate D2E/DX2                !
 ! D40   D(6,7,8,1)             -5.188          estimate D2E/DX2                !
 ! D41   D(6,7,8,2)             51.7656         estimate D2E/DX2                !
 ! D42   D(6,7,8,3)            -60.9834         estimate D2E/DX2                !
 ! D43   D(6,7,8,9)             -0.0003         estimate D2E/DX2                !
 ! D44   D(11,7,8,1)           174.8122         estimate D2E/DX2                !
 ! D45   D(11,7,8,2)          -128.2341         estimate D2E/DX2                !
 ! D46   D(11,7,8,3)           119.0169         estimate D2E/DX2                !
 ! D47   D(11,7,8,9)           179.9999         estimate D2E/DX2                !
 ! D48   D(12,7,8,1)           174.8747         estimate D2E/DX2                !
 ! D49   D(12,7,8,2)          -128.1717         estimate D2E/DX2                !
 ! D50   D(12,7,8,3)           119.0793         estimate D2E/DX2                !
 ! D51   D(12,7,8,9)          -179.9376         estimate D2E/DX2                !
 ! D52   D(6,7,11,10)          179.9673         estimate D2E/DX2                !
 ! D53   D(8,7,11,10)           -0.033          estimate D2E/DX2                !
 ! D54   D(8,7,12,13)          179.9328         estimate D2E/DX2                !
 ! D55   D(3,8,35,24)          -69.7112         estimate D2E/DX2                !
 ! D56   D(7,8,35,24)         -163.3371         estimate D2E/DX2                !
 ! D57   D(2,9,35,24)           91.3529         estimate D2E/DX2                !
 ! D58   D(36,10,11,7)        -179.992          estimate D2E/DX2                !
 ! D59   D(36,10,11,12)          0.0074         estimate D2E/DX2                !
 ! D60   D(10,11,12,6)        -179.9798         estimate D2E/DX2                !
 ! D61   D(10,11,12,13)       -179.9811         estimate D2E/DX2                !
 ! D62   D(7,12,13,14)        -179.9457         estimate D2E/DX2                !
 ! D63   D(11,12,13,14)       -179.9564         estimate D2E/DX2                !
 ! D64   D(6,13,14,15)        -179.8534         estimate D2E/DX2                !
 ! D65   D(6,13,14,22)          -0.2278         estimate D2E/DX2                !
 ! D66   D(12,13,14,15)          0.1012         estimate D2E/DX2                !
 ! D67   D(12,13,14,22)        179.7268         estimate D2E/DX2                !
 ! D68   D(13,14,15,16)          0.0371         estimate D2E/DX2                !
 ! D69   D(13,14,15,19)       -179.963          estimate D2E/DX2                !
 ! D70   D(22,14,15,16)       -179.5956         estimate D2E/DX2                !
 ! D71   D(22,14,15,19)          0.4044         estimate D2E/DX2                !
 ! D72   D(13,14,22,21)        179.6918         estimate D2E/DX2                !
 ! D73   D(13,14,22,23)          0.5623         estimate D2E/DX2                !
 ! D74   D(15,14,22,21)         -0.6473         estimate D2E/DX2                !
 ! D75   D(15,14,22,23)       -179.7768         estimate D2E/DX2                !
 ! D76   D(14,15,16,17)       -179.9999         estimate D2E/DX2                !
 ! D77   D(19,15,16,17)          0.0001         estimate D2E/DX2                !
 ! D78   D(14,15,19,18)        179.9047         estimate D2E/DX2                !
 ! D79   D(14,15,19,20)         -0.0949         estimate D2E/DX2                !
 ! D80   D(16,15,19,18)         -0.0953         estimate D2E/DX2                !
 ! D81   D(16,15,19,20)        179.9051         estimate D2E/DX2                !
 ! D82   D(15,19,20,21)         -0.002          estimate D2E/DX2                !
 ! D83   D(15,19,20,25)        179.9986         estimate D2E/DX2                !
 ! D84   D(18,19,20,21)        179.9984         estimate D2E/DX2                !
 ! D85   D(18,19,20,25)         -0.001          estimate D2E/DX2                !
 ! D86   D(19,20,21,22)         -0.2462         estimate D2E/DX2                !
 ! D87   D(19,20,21,37)        179.7532         estimate D2E/DX2                !
 ! D88   D(25,20,21,22)        179.7531         estimate D2E/DX2                !
 ! D89   D(25,20,21,37)         -0.2474         estimate D2E/DX2                !
 ! D90   D(19,20,25,26)        -38.3199         estimate D2E/DX2                !
 ! D91   D(19,20,25,33)        141.6999         estimate D2E/DX2                !
 ! D92   D(21,20,25,26)        141.6808         estimate D2E/DX2                !
 ! D93   D(21,20,25,33)        -38.2995         estimate D2E/DX2                !
 ! D94   D(20,21,22,14)          0.5863         estimate D2E/DX2                !
 ! D95   D(20,21,22,23)        179.7429         estimate D2E/DX2                !
 ! D96   D(37,21,22,14)       -179.4131         estimate D2E/DX2                !
 ! D97   D(37,21,22,23)         -0.2566         estimate D2E/DX2                !
 ! D98   D(14,22,23,5)          -0.5784         estimate D2E/DX2                !
 ! D99   D(21,22,23,5)        -179.7339         estimate D2E/DX2                !
 ! D100  D(38,24,35,9)        -143.4752         estimate D2E/DX2                !
 ! D101  D(20,25,26,27)       -179.6335         estimate D2E/DX2                !
 ! D102  D(20,25,26,39)          0.3664         estimate D2E/DX2                !
 ! D103  D(33,25,26,27)          0.347          estimate D2E/DX2                !
 ! D104  D(33,25,26,39)       -179.6532         estimate D2E/DX2                !
 ! D105  D(20,25,31,30)        179.8895         estimate D2E/DX2                !
 ! D106  D(26,25,31,30)         -0.1033         estimate D2E/DX2                !
 ! D107  D(20,25,33,29)        179.9296         estimate D2E/DX2                !
 ! D108  D(20,25,33,32)         -0.0558         estimate D2E/DX2                !
 ! D109  D(26,25,33,29)         -0.0509         estimate D2E/DX2                !
 ! D110  D(26,25,33,32)        179.9637         estimate D2E/DX2                !
 ! D111  D(25,26,27,28)         -0.6082         estimate D2E/DX2                !
 ! D112  D(25,26,27,40)        179.3921         estimate D2E/DX2                !
 ! D113  D(39,26,27,28)        179.392          estimate D2E/DX2                !
 ! D114  D(39,26,27,40)         -0.6078         estimate D2E/DX2                !
 ! D115  D(26,27,28,29)          0.5469         estimate D2E/DX2                !
 ! D116  D(26,27,28,41)       -179.4533         estimate D2E/DX2                !
 ! D117  D(40,27,28,29)       -179.4534         estimate D2E/DX2                !
 ! D118  D(40,27,28,41)          0.5464         estimate D2E/DX2                !
 ! D119  D(27,28,29,30)        179.7132         estimate D2E/DX2                !
 ! D120  D(27,28,29,33)         -0.244          estimate D2E/DX2                !
 ! D121  D(41,28,29,30)         -0.2867         estimate D2E/DX2                !
 ! D122  D(41,28,29,33)        179.7562         estimate D2E/DX2                !
 ! D123  D(27,28,31,32)         -0.2327         estimate D2E/DX2                !
 ! D124  D(41,28,31,32)        179.7896         estimate D2E/DX2                !
 ! D125  D(28,29,33,25)          0.0021         estimate D2E/DX2                !
 ! D126  D(28,29,33,32)        179.9913         estimate D2E/DX2                !
 ! D127  D(30,29,33,25)       -179.9663         estimate D2E/DX2                !
 ! D128  D(30,29,33,32)          0.0229         estimate D2E/DX2                !
 --------------------------------------------------------------------------------
 Trust Radius=3.00D-01 FncErr=1.00D-07 GrdErr=1.00D-06
 Number of steps in this run=    246 maximum allowed number of steps=    246.
 GradGradGradGradGradGradGradGradGradGradGradGradGradGradGradGradGradGrad

                          Input orientation:                          
 ---------------------------------------------------------------------
 Center     Atomic      Atomic             Coordinates (Angstroms)
 Number     Number       Type             X           Y           Z
 ---------------------------------------------------------------------
      1         14           0        1.468000   -1.011440   -0.983460
      2          1           0        0.648430   -1.834640   -0.166730
      3          1           0        0.648430   -0.218120   -1.829240
      4          6           0        2.487350    0.079930    0.077710
      5          6           0        1.907360    0.925300    0.899700
      6          6           0        0.522060    1.131860    0.925350
      7          6           0       -0.435790    0.471240    0.257840
      8         16           0       -0.180780   -0.782300   -0.781090
      9          6           0        1.433750   -1.099350   -0.873590
     10          6           0       -2.780020    0.555030    0.070810
     11          6           0       -1.602280    0.976290    0.559570
     12         34           0       -1.434050    2.022290    1.469330
     13          6           0       -0.071540    2.151640    1.729170
     14          6           0        0.839560    2.978220    2.534500
     15          6           0        0.457840    4.017050    3.381790
     16          7           0       -0.799150    4.319350    3.505600
     17         16           0       -1.244580    5.513620    4.478960
     18          7           0        1.042620    5.702020    4.882570
     19          6           0        1.419390    4.736500    4.099910
     20          6           0        2.744720    4.440010    3.990940
     21          6           0        3.138260    3.444660    3.184700
     22          6           0        2.240180    2.706150    2.463870
     23          6           0        2.737500    1.690770    1.643990
     24          6           0        2.563390   -2.064250   -2.007150
     25          6           0        3.720860    5.194930    4.740860
     26          6           0        3.571720    6.527010    4.907530
     27          6           0        4.478680    7.263130    5.602220
     28          6           0        5.566910    6.697020    6.170070
     29          6           0        5.782210    5.323870    6.037470
     30          7           0        6.728840    4.467990    6.455160
     31         16           0        6.414790    3.261410    6.029490
     32          7           0        5.285070    3.292800    5.337970
     33          6           0        4.839720    4.547920    5.306070
     34          1           0        3.517070    0.030790    0.029940
     35          1           0        2.416110   -1.385160   -1.008840
     36          1           0       -3.807620    0.580350   -0.020980
     37          1           0        4.144520    3.229720    3.105520
     38          1           0        2.872150   -2.770250   -2.693620
     39          1           0        2.749480    6.997000    4.497590
     40          1           0        4.332840    8.280210    5.698660
     41          1           0        6.236010    7.277510    6.699560
 ---------------------------------------------------------------------
                    Distance matrix (angstroms):
                    1          2          3          4          5
     1  Si   0.000000
     2  H    1.420000   0.000000
     3  H    1.419998   2.318852   0.000000
     4  C    1.832006   2.665887   2.665881   0.000000
     5  C    2.736840   3.215501   3.215498   1.314042   0.000000
     6  C    3.021935   3.163658   3.070209   2.384830   1.400850
     7  C    2.713592   2.583191   2.450847   2.954711   2.471539
     8  S    1.676882   1.473922   1.450692   2.932558   3.178251
     9  C    0.144819   1.287257   1.518737   1.845466   2.732777
    10  C    4.648762   4.185835   3.995275   5.288757   4.774483
    11  C    3.969714   3.673491   3.492667   4.214347   3.526452
    12  Se   4.862262   4.678603   4.498525   4.592031   3.562708
    13  C    4.442254   4.472496   4.335482   3.683371   2.471432
    14  C    5.356152   5.522390   5.412518   4.141390   2.833240
    15  C    6.735098   6.846210   6.717725   5.526008   4.221469
    16  N    7.328639   7.311162   7.151548   6.365862   5.063150
    17  S    8.931547   8.897351   8.730963   7.926114   6.618044
    18  N    8.925346   9.080312   8.958339   7.535371   6.279179
    19  C    7.673450   7.872641   7.765144   6.245180   5.000470
    20  C    7.489524   7.813571   7.743843   5.864291   4.755010
    21  C    6.326148   6.730702   6.689903   4.625849   3.617114
    22  C    5.128433   5.483840   5.432846   3.556949   2.393496
    23  C    3.977067   4.480116   4.480112   2.260667   1.352422
    24  C    1.832001   2.665884   2.665881   2.991644   4.221085
    25  C    8.738549   9.107092   9.050257   7.030629   6.022710
    26  C    9.795797  10.208375   9.971282   8.128214   7.086039
    27  C   10.995630  11.433329  11.219025   9.278145   8.300209
    28  C   11.286913  11.710495  11.661885   9.507177   8.630287
    29  C   10.394326  10.774603  10.906625   8.594984   7.794778
    30  N   10.631729  10.979251  11.294348   8.827071   8.164586
    31  S    9.586941   9.879968  10.349767   7.808347   7.217277
    32  N    8.547338   8.836900   9.230054   6.769055   6.059061
    33  C    9.046169   9.394441   9.549592   7.268585   6.413907
    34  H    2.512352   3.427478   3.427477   1.031998   2.036614
    35  H    1.019423   2.008949   2.271504   1.825419   3.039667
    36  H    5.593955   5.070483   4.874807   6.315600   5.798934
    37  H    6.470777   6.969793   6.961473   4.672796   3.896265
    38  H    2.826605   3.493633   3.493630   3.993979   5.244031
    39  H    9.788729  10.206280   9.823500   8.212789   7.107708
    40  H   11.798000  12.259195  11.935902  10.111652   9.110855
    41  H   12.266597  12.704262  12.654878  10.474087   9.629442
                    6          7          8          9         10
     6  C    0.000000
     7  C    1.341441   0.000000
     8  S    2.658934   1.647959   0.000000
     9  C    3.007601   2.691109   1.647964   0.000000
    10  C    3.459292   2.353171   3.044706   4.624362   0.000000
    11  C    2.161207   1.306451   2.628815   3.947114   1.342914
    12  Se   2.217013   2.206805   3.807992   4.843365   2.433176
    13  C    1.427739   2.263014   3.862815   4.428227   3.554601
    14  C    2.469659   3.618653   5.116223   5.347403   5.004296
    15  C    3.789795   4.809408   6.385230   6.725935   5.782033
    16  N    4.308524   5.048557   6.692154   7.316109   5.467333
    17  S    5.911766   6.625526   8.272751   8.919339   6.810064
    18  N    6.067696   7.136868   8.695985   8.918800   8.016054
    19  C    4.886355   6.032880   7.539354   7.667663   7.166127
    20  C    5.028113   6.308947   7.655282   7.487777   7.809177
    21  C    4.159112   5.493776   6.679125   6.326381   7.285075
    22  C    2.792377   4.125798   5.344165   5.125505   5.962924
    23  C    2.395203   3.671299   4.529177   3.977781   5.848746
    24  C    4.793924   4.533649   3.267581   1.868710   6.303219
    25  C    6.426428   7.725830   9.024522   8.739044   9.251999
    26  C    7.366534   8.622767   9.993381   9.805796   9.970106
    27  C    8.667204   9.942041  11.277684  11.006307  11.326245
    28  C    9.161256  10.476030  11.717286  11.290684  12.024818
    29  C    8.448426   9.778326  10.924071  10.388918  11.474086
    30  N    8.957270  10.281669  11.299191  10.618090  12.103289
    31  S    8.081553   9.382294  10.307140   9.564492  11.286049
    32  N    6.843036   8.154579   9.161051   8.526847  10.014192
    33  C    7.035791   8.362712   9.522089   9.037726  10.070330
    34  H    3.314242   3.983847   3.872077   2.536495   6.319006
    35  H    3.696472   3.630982   2.675658   1.031994   5.650641
    36  H    4.466076   3.385097   3.948234   5.569587   1.032002
    37  H    4.719785   6.057865   7.064720   6.474754   8.019519
    38  H    5.817760   5.491889   4.114620   2.858918   7.116641
    39  H    7.219568   8.408744   9.847253   9.804673   9.574483
    40  H    9.402417  10.645298  12.020358  11.814201  11.914020
    41  H   10.186252  11.503651  12.731687  12.271352  13.054534
                   11         12         13         14         15
    11  C    0.000000
    12  Se   1.396453   0.000000
    13  C    2.256674   1.393084   0.000000
    14  C    3.724333   2.686576   1.470338   0.000000
    15  C    4.631980   3.349003   2.547774   1.393836   0.000000
    16  N    4.527710   3.134642   2.895529   2.329600   1.298745
    17  S    6.006407   4.613367   4.498920   3.814816   2.518281
    18  N    6.929383   5.596831   4.877549   3.601910   2.330972
    19  C    5.983617   4.735927   3.811139   2.424512   1.399244
    20  C    6.532080   5.446651   4.275928   2.808502   2.404117
    21  C    5.954568   5.086418   3.754102   2.433998   2.747931
    22  C    4.624205   3.867395   2.488235   1.428547   2.395365
    23  C    4.529916   4.188346   2.847870   2.460226   3.691663
    24  C    5.760707   6.690684   6.219057   7.001763   8.393821
    25  C    7.975959   6.880527   5.719632   4.252495   3.725825
    26  C    8.745600   7.561181   6.520673   5.068519   4.280658
    27  C   10.096076   8.916701   7.863355   6.404261   5.624455
    28  C   10.751825   9.641758   8.495539   7.028135   6.407756
    29  C   10.170523   9.156568   7.930377   6.496358   6.091743
    30  N   10.786914   9.872827   8.599164   7.230118   6.998171
    31  S    9.970718   9.161592   7.861095   6.586224   6.562512
    32  N    8.696834   7.856662   6.558884   5.265070   5.258643
    33  C    8.762715   7.775575   6.531221   5.113398   4.815137
    34  H    5.232803   5.527342   4.501501   4.704171   6.040203
    35  H    4.917704   5.707519   5.118013   5.837795   7.231620
    36  H    2.314591   3.151833   4.414779   5.820356   6.448558
    37  H    6.677239   5.937630   4.564182   3.363343   3.779924
    38  H    6.681342   7.670851   7.242333   8.031785   9.423743
    39  H    8.408018   7.170776   6.252985   4.863343   3.921317
    40  H   10.723019   9.502937   8.527296   7.094083   6.209512
    41  H   11.783193  10.667824   9.527041   8.059361   7.417914
                   16         17         18         19         20
    16  N    0.000000
    17  S    1.603783   0.000000
    18  N    2.683270   2.330167   0.000000
    19  C    2.334339   2.800773   1.298746   0.000000
    20  C    3.578984   4.159966   2.298873   1.362454   0.000000
    21  C    4.046141   5.016472   3.517122   2.336873   1.340007
    22  C    3.595155   4.907752   4.032307   2.733614   2.364905
    23  C    4.783609   6.205497   5.426891   4.128611   3.614768
    24  C    9.080057  10.676815  10.492661   9.211684   8.849597
    25  C    4.766865   4.982544   2.729504   2.432640   1.443999
    26  C    5.093493   4.940382   2.660372   2.913881   2.424796
    27  C    6.396651   6.089187   3.842066   4.242647   3.684135
    28  C    7.299276   7.117351   4.808002   5.033003   4.219888
    29  C    7.122761   7.200051   4.892904   4.809713   3.767737
    30  N    8.086571   8.280950   6.027352   5.814599   4.684696
    31  S    7.715581   8.132807   6.011008   5.554565   4.360527
    32  N    6.436545   6.950271   4.900011   4.308195   3.095797
    33  C    5.923748   6.215738   3.991149   3.631672   2.475931
    34  H    7.007262   8.516367   7.863445   6.565716   5.977229
    35  H    7.953584   9.545144   9.317902   8.035390   7.683644
    36  H    5.955483   7.152327   8.590759   7.847098   8.598002
    37  H    5.078113   6.012066   4.346488   3.268873   2.051392
    38  H   10.107977  11.705378  11.511959  10.228092   9.832977
    39  H    4.554847   4.260666   2.176822   2.652763   2.606706
    40  H    6.843628   6.344234   4.258945   4.858196   4.492835
    41  H    8.273184   8.000100   5.723192   6.034463   5.251394
                   21         22         23         24         25
    21  C    0.000000
    22  C    1.368043   0.000000
    23  C    2.368655   1.396613   0.000000
    24  C    7.591698   6.546083   5.240354   0.000000
    25  C    2.413400   3.683900   4.778780   9.978530   0.000000
    26  C    3.557655   4.726885   5.893711  11.074262   1.350725
    27  C    4.714005   5.968768   7.053403  12.188965   2.365097
    28  C    5.038712   6.382013   7.318026  12.355076   2.776115
    29  C    4.319745   5.671777   6.463153  11.386880   2.438644
    30  N    4.963404   6.259596   6.840402  11.473091   3.537684
    31  S    4.343047   5.518091   5.934811  10.381884   3.557573
    32  N    3.044409   4.227998   4.764672   9.489801   2.534047
    33  C    2.934682   4.269406   5.098379  10.118580   1.410649
    34  H    4.663745   3.835624   2.443035   3.073830   6.993042
    35  H    6.436959   5.369309   4.074573   1.216338   8.835101
    36  H    8.168593   6.875274   6.844250   7.178339  10.032322
    37  H    1.032002   2.076620   2.546398   7.527648   2.591501
    38  H    8.558655   7.549175   6.223640   1.031993  10.928673
    39  H    3.807092   4.775646   6.024886  11.155829   2.061605
    40  H    5.579387   6.775931   7.899758  13.019920   3.287986
    41  H    6.053184   7.403044   8.307227  13.287717   3.807837
                   26         27         28         29         30
    26  C    0.000000
    27  C    1.359060   0.000000
    28  C    2.367212   1.351732   0.000000
    29  C    2.758727   2.376839   1.396237   0.000000
    30  N    4.074571   3.688297   2.529809   1.342797   0.000000
    31  S    4.472805   4.465965   3.541480   2.157304   1.317444
    32  N    3.685236   4.060002   3.515756   2.204925   2.171096
    33  C    2.384000   2.755072   2.427742   1.423142   2.212594
    34  H    8.123715   9.180509   9.292021   8.320936   8.443202
    35  H    9.946924  11.079406  11.259926  10.295251  10.419707
    36  H   10.682118  12.039215  12.791582  12.295147  12.964225
    37  H    3.800982   4.755373   4.841160   3.957755   4.408187
    38  H   12.029377  13.117569  13.245978  12.256229  12.286837
    39  H    1.031998   2.069098   3.290150   3.790521   5.105221
    40  H    2.068550   1.031999   2.061952   3.309896   4.565756
    41  H    3.297433   2.071852   1.032000   2.112110   2.862868
                   31         32         33         34         35
    31  S    0.000000
    32  N    1.324935   0.000000
    33  C    2.158539   1.332171   0.000000
    34  H    7.404613   6.476242   7.070461   0.000000
    35  H    9.333710   8.390247   8.997411   2.072701   0.000000
    36  H   12.177600  10.897373  10.903924   7.345454   6.601054
    37  H    3.701990   2.507721   2.657701   4.481745   6.419694
    38  H   11.181407  10.348391  11.019164   3.959738   2.228212
    39  H    5.453059   4.566898   3.319749   8.311268  10.034566
    40  H    5.443557   5.090294   3.786957  10.042549  11.919890
    41  H    4.075539   4.316958   3.367804  10.217212  12.208723
                   36         37         38         39         40
    36  H    0.000000
    37  H    8.945988   0.000000
    38  H    7.936552   8.440888   0.000000
    39  H   10.226751   4.251634  12.129622   0.000000
    40  H   12.580509   5.680430  13.952657   2.365634   0.000000
    41  H   13.816371   5.803108  14.159974   4.133189   2.372607
                   41
    41  H    0.000000
 Small interatomic distances encountered:      9     1
 Problem with the distance matrix.
 Error termination via Lnk1e in /opt/gaussian/g09/l202.exe at Sun Dec 29 04:16:10 2013.
 Job cpu time:  0 days  0 hours  0 minutes 11.9 seconds.
 File lengths (MBytes):  RWF=      5 Int=      0 D2E=      0 Chk=      1 Scr=      1
