 Entering Gaussian System, Link 0=g09
 Initial command:
 /opt/gaussian/g09/l1.exe /panfs/panfs.cluster/home/shuo/Gau-30343.inp -scrdir=/panfs/panfs.cluster/home/shuo/
 Default is to use a total of  12 processors:
                               12 via shared-memory
                                1 via Linda
 Entering Link 1 = /opt/gaussian/g09/l1.exe PID=     30344.
  
 Copyright (c) 1988,1990,1992,1993,1995,1998,2003,2009,2011,
            Gaussian, Inc.  All Rights Reserved.
  
 This is part of the Gaussian(R) 09 program.  It is based on
 the Gaussian(R) 03 system (copyright 2003, Gaussian, Inc.),
 the Gaussian(R) 98 system (copyright 1998, Gaussian, Inc.),
 the Gaussian(R) 94 system (copyright 1995, Gaussian, Inc.),
 the Gaussian 92(TM) system (copyright 1992, Gaussian, Inc.),
 the Gaussian 90(TM) system (copyright 1990, Gaussian, Inc.),
 the Gaussian 88(TM) system (copyright 1988, Gaussian, Inc.),
 the Gaussian 86(TM) system (copyright 1986, Carnegie Mellon
 University), and the Gaussian 82(TM) system (copyright 1983,
 Carnegie Mellon University). Gaussian is a federally registered
 trademark of Gaussian, Inc.
  
 This software contains proprietary and confidential information,
 including trade secrets, belonging to Gaussian, Inc.
  
 This software is provided under written license and may be
 used, copied, transmitted, or stored only in accord with that
 written license.
  
 The following legend is applicable only to US Government
 contracts under FAR:
  
                    RESTRICTED RIGHTS LEGEND
  
 Use, reproduction and disclosure by the US Government is
 subject to restrictions as set forth in subparagraphs (a)
 and (c) of the Commercial Computer Software - Restricted
 Rights clause in FAR 52.227-19.
  
 Gaussian, Inc.
 340 Quinnipiac St., Bldg. 40, Wallingford CT 06492
  
  
 ---------------------------------------------------------------
 Warning -- This program may not be used in any manner that
 competes with the business of Gaussian, Inc. or will provide
 assistance to any competitor of Gaussian, Inc.  The licensee
 of this program is prohibited from giving any competitor of
 Gaussian, Inc. access to this program.  By using this program,
 the user acknowledges that Gaussian, Inc. is engaged in the
 business of creating and licensing software in the field of
 computational chemistry and represents and warrants to the
 licensee that it is not a competitor of Gaussian, Inc. and that
 it will not use this program in any manner prohibited above.
 ---------------------------------------------------------------
  

 Cite this work as:
 Gaussian 09, Revision C.01,
 M. J. Frisch, G. W. Trucks, H. B. Schlegel, G. E. Scuseria, 
 M. A. Robb, J. R. Cheeseman, G. Scalmani, V. Barone, B. Mennucci, 
 G. A. Petersson, H. Nakatsuji, M. Caricato, X. Li, H. P. Hratchian, 
 A. F. Izmaylov, J. Bloino, G. Zheng, J. L. Sonnenberg, M. Hada, 
 M. Ehara, K. Toyota, R. Fukuda, J. Hasegawa, M. Ishida, T. Nakajima, 
 Y. Honda, O. Kitao, H. Nakai, T. Vreven, J. A. Montgomery, Jr., 
 J. E. Peralta, F. Ogliaro, M. Bearpark, J. J. Heyd, E. Brothers, 
 K. N. Kudin, V. N. Staroverov, T. Keith, R. Kobayashi, J. Normand, 
 K. Raghavachari, A. Rendell, J. C. Burant, S. S. Iyengar, J. Tomasi, 
 M. Cossi, N. Rega, J. M. Millam, M. Klene, J. E. Knox, J. B. Cross, 
 V. Bakken, C. Adamo, J. Jaramillo, R. Gomperts, R. E. Stratmann, 
 O. Yazyev, A. J. Austin, R. Cammi, C. Pomelli, J. W. Ochterski, 
 R. L. Martin, K. Morokuma, V. G. Zakrzewski, G. A. Voth, 
 P. Salvador, J. J. Dannenberg, S. Dapprich, A. D. Daniels, 
 O. Farkas, J. B. Foresman, J. V. Ortiz, J. Cioslowski, 
 and D. J. Fox, Gaussian, Inc., Wallingford CT, 2010.
 
 ******************************************
 Gaussian 09:  EM64L-G09RevC.01 23-Sep-2011
                29-Dec-2013 
 ******************************************
 %chk=44_C18H9N7S3.chk
 %NProcShared=12
 Will use up to   12 processors via shared memory.
 %Mem=8000MB
 Default route:  MaxDisk=100GB
 --------------------------------------------
 #B3LYP/6-31++G(d,p) opt scf=direct freq test
 --------------------------------------------
 1/14=-1,18=20,19=15,26=3,38=1/1,3;
 2/9=110,12=2,17=6,18=5,40=1/2;
 3/5=1,6=6,7=1111,11=2,16=1,25=1,30=1,71=1,74=-5/1,2,3;
 4//1;
 5/5=2,38=5/2;
 6/7=2,8=2,9=2,10=2,28=1/1;
 7//1,2,3,16;
 1/14=-1,18=20,19=15/3(2);
 2/9=110/2;
 99//99;
 2/9=110/2;
 3/5=1,6=6,7=1111,11=2,16=1,25=1,30=1,71=1,74=-5/1,2,3;
 4/5=5,16=3/1;
 5/5=2,38=5/2;
 7//1,2,3,16;
 1/14=-1,18=20,19=15/3(-5);
 2/9=110/2;
 6/7=2,8=2,9=2,10=2,19=2,28=1/1;
 99/9=1/99;
 ----------------------------------------------------------------------
 Geom opt of No.44 candidate from the CEPDB database with SMILE code of
  c1nc(sc1-c1ccc(-c2cccc3cscc23)c2cocc12)-c1cncc2nsnc12, HPC, 20131227,
  Shuo Dai, Gaussian09
 ----------------------------------------------------------------------
 Charge =  0 Multiplicity = 1
 Symbolic Z-Matrix:
 C                    -1.18802   0.1054    0.01889 
 N                    -0.42017   1.25159   0.02958 
 C                     0.84694   0.90428  -0.02317 
 S                     1.13442  -0.68593  -0.26405 
 C                    -0.4479   -1.04957   0.00414 
 C                    -0.75315  -2.42265   0.02987 
 C                    -2.08551  -2.79533  -0.04061 
 C                    -2.423    -4.13161  -0.05436 
 C                    -1.4726   -5.20621  -0.05677 
 C                    -1.97814  -6.5454    0.00555 
 C                    -3.35343  -6.90503  -0.04942 
 C                    -3.80399  -8.25165  -0.02269 
 C                    -2.94788  -9.36793   0.03284 
 C                    -1.60811  -8.99879   0.07059 
 C                    -0.55925  -9.87151   0.16665 
 S                     0.92422  -9.00636   0.07559 
 C                     0.04977  -7.68328   0.73341 
 C                    -1.18247  -7.65882   0.1007 
 C                    -0.08647  -4.80647  -0.11183 
 C                     1.16182  -5.42391  -0.19947 
 O                     2.19103  -4.56423  -0.09994 
 C                     1.61248  -3.39131   0.14404 
 C                     0.23636  -3.44454  -0.00037 
 C                     2.06154   1.63407   0.01513 
 C                     3.37196   1.09203   0.02271 
 N                     4.53318   1.78544   0.02501 
 C                     4.48662   3.14209   0.02097 
 C                     3.23412   3.79712   0.01232 
 N                     3.00478   5.11752   0.00645 
 S                     1.35501   5.3244   -0.00679 
 N                     0.87003   3.75748  -0.0072 
 C                     1.98567   3.01343   0.00866 
 H                    -2.26891   0.17218   0.02871 
 H                    -2.88008  -2.0524   -0.09202 
 H                    -3.49992  -4.29633  -0.07317 
 H                    -4.13425  -6.14632  -0.09639 
 H                    -4.88013  -8.40887  -0.06052 
 H                    -3.282    -10.38428   0.07508 
 H                    -0.52895  -10.93683   0.28374 
 H                     0.48494  -6.92085   1.34964 
 H                     1.61672  -6.3996   -0.21172 
 H                     2.36374  -2.6606    0.38297 
 H                     3.55971   0.01112   0.01777 
 H                     5.43252   3.65402   0.02529 
 

 GradGradGradGradGradGradGradGradGradGradGradGradGradGradGradGradGradGrad
 Berny optimization.
 Initialization pass.
                           ----------------------------
                           !    Initial Parameters    !
                           ! (Angstroms and Degrees)  !
 --------------------------                            --------------------------
 ! Name  Definition              Value          Derivative Info.                !
 --------------------------------------------------------------------------------
 ! R1    R(1,2)                  1.3797         estimate D2E/DX2                !
 ! R2    R(1,5)                  1.3718         estimate D2E/DX2                !
 ! R3    R(1,33)                 1.083          estimate D2E/DX2                !
 ! R4    R(2,3)                  1.3149         estimate D2E/DX2                !
 ! R5    R(3,4)                  1.6338         estimate D2E/DX2                !
 ! R6    R(3,24)                 1.4175         estimate D2E/DX2                !
 ! R7    R(4,5)                  1.6456         estimate D2E/DX2                !
 ! R8    R(5,6)                  1.4068         estimate D2E/DX2                !
 ! R9    R(6,7)                  1.3853         estimate D2E/DX2                !
 ! R10   R(6,23)                 1.4228         estimate D2E/DX2                !
 ! R11   R(7,8)                  1.3783         estimate D2E/DX2                !
 ! R12   R(7,34)                 1.089          estimate D2E/DX2                !
 ! R13   R(8,9)                  1.4346         estimate D2E/DX2                !
 ! R14   R(8,35)                 1.0896         estimate D2E/DX2                !
 ! R15   R(9,10)                 1.4328         estimate D2E/DX2                !
 ! R16   R(9,19)                 1.4437         estimate D2E/DX2                !
 ! R17   R(10,11)                1.4226         estimate D2E/DX2                !
 ! R18   R(10,18)                1.3718         estimate D2E/DX2                !
 ! R19   R(11,12)                1.4202         estimate D2E/DX2                !
 ! R20   R(11,36)                1.0897         estimate D2E/DX2                !
 ! R21   R(12,13)                1.4079         estimate D2E/DX2                !
 ! R22   R(12,37)                1.0882         estimate D2E/DX2                !
 ! R23   R(13,14)                1.3902         estimate D2E/DX2                !
 ! R24   R(13,38)                1.0707         estimate D2E/DX2                !
 ! R25   R(14,15)                1.3678         estimate D2E/DX2                !
 ! R26   R(14,18)                1.4063         estimate D2E/DX2                !
 ! R27   R(15,16)                1.7197         estimate D2E/DX2                !
 ! R28   R(15,39)                1.0722         estimate D2E/DX2                !
 ! R29   R(16,17)                1.717          estimate D2E/DX2                !
 ! R30   R(17,18)                1.3854         estimate D2E/DX2                !
 ! R31   R(17,40)                1.0726         estimate D2E/DX2                !
 ! R32   R(19,20)                1.3954         estimate D2E/DX2                !
 ! R33   R(19,23)                1.4041         estimate D2E/DX2                !
 ! R34   R(20,21)                1.3447         estimate D2E/DX2                !
 ! R35   R(20,41)                1.0766         estimate D2E/DX2                !
 ! R36   R(21,22)                1.3304         estimate D2E/DX2                !
 ! R37   R(22,23)                1.3847         estimate D2E/DX2                !
 ! R38   R(22,42)                1.0749         estimate D2E/DX2                !
 ! R39   R(24,25)                1.4181         estimate D2E/DX2                !
 ! R40   R(24,32)                1.3815         estimate D2E/DX2                !
 ! R41   R(25,26)                1.3525         estimate D2E/DX2                !
 ! R42   R(25,43)                1.0971         estimate D2E/DX2                !
 ! R43   R(26,27)                1.3575         estimate D2E/DX2                !
 ! R44   R(27,28)                1.4135         estimate D2E/DX2                !
 ! R45   R(27,44)                1.0756         estimate D2E/DX2                !
 ! R46   R(28,29)                1.3402         estimate D2E/DX2                !
 ! R47   R(28,32)                1.474          estimate D2E/DX2                !
 ! R48   R(29,30)                1.6627         estimate D2E/DX2                !
 ! R49   R(30,31)                1.6403         estimate D2E/DX2                !
 ! R50   R(31,32)                1.3411         estimate D2E/DX2                !
 ! A1    A(2,1,5)              113.532          estimate D2E/DX2                !
 ! A2    A(2,1,33)             120.2763         estimate D2E/DX2                !
 ! A3    A(5,1,33)             126.1904         estimate D2E/DX2                !
 ! A4    A(1,2,3)              108.4559         estimate D2E/DX2                !
 ! A5    A(2,3,4)              115.6296         estimate D2E/DX2                !
 ! A6    A(2,3,24)             133.5228         estimate D2E/DX2                !
 ! A7    A(4,3,24)             110.7511         estimate D2E/DX2                !
 ! A8    A(3,4,5)               91.2527         estimate D2E/DX2                !
 ! A9    A(1,5,4)              109.5408         estimate D2E/DX2                !
 ! A10   A(1,5,6)              134.7854         estimate D2E/DX2                !
 ! A11   A(4,5,6)              115.2961         estimate D2E/DX2                !
 ! A12   A(5,6,7)              118.0554         estimate D2E/DX2                !
 ! A13   A(5,6,23)             123.3471         estimate D2E/DX2                !
 ! A14   A(7,6,23)             118.333          estimate D2E/DX2                !
 ! A15   A(6,7,8)              119.7906         estimate D2E/DX2                !
 ! A16   A(6,7,34)             121.3738         estimate D2E/DX2                !
 ! A17   A(8,7,34)             118.8345         estimate D2E/DX2                !
 ! A18   A(7,8,9)              124.3347         estimate D2E/DX2                !
 ! A19   A(7,8,35)             112.8763         estimate D2E/DX2                !
 ! A20   A(9,8,35)             122.7865         estimate D2E/DX2                !
 ! A21   A(8,9,10)             117.795          estimate D2E/DX2                !
 ! A22   A(8,9,19)             115.3877         estimate D2E/DX2                !
 ! A23   A(10,9,19)            126.8152         estimate D2E/DX2                !
 ! A24   A(9,10,11)            125.1491         estimate D2E/DX2                !
 ! A25   A(9,10,18)            123.8479         estimate D2E/DX2                !
 ! A26   A(11,10,18)           110.9913         estimate D2E/DX2                !
 ! A27   A(10,11,12)           123.0696         estimate D2E/DX2                !
 ! A28   A(10,11,36)           121.2219         estimate D2E/DX2                !
 ! A29   A(12,11,36)           115.6988         estimate D2E/DX2                !
 ! A30   A(11,12,13)           124.0291         estimate D2E/DX2                !
 ! A31   A(11,12,37)           116.7468         estimate D2E/DX2                !
 ! A32   A(13,12,37)           119.2196         estimate D2E/DX2                !
 ! A33   A(12,13,14)           112.1211         estimate D2E/DX2                !
 ! A34   A(12,13,38)           124.3634         estimate D2E/DX2                !
 ! A35   A(14,13,38)           123.485          estimate D2E/DX2                !
 ! A36   A(13,14,15)           124.8531         estimate D2E/DX2                !
 ! A37   A(13,14,18)           123.0441         estimate D2E/DX2                !
 ! A38   A(15,14,18)           111.9845         estimate D2E/DX2                !
 ! A39   A(14,15,16)           109.6798         estimate D2E/DX2                !
 ! A40   A(14,15,39)           131.5518         estimate D2E/DX2                !
 ! A41   A(16,15,39)           118.7682         estimate D2E/DX2                !
 ! A42   A(15,16,17)            85.8738         estimate D2E/DX2                !
 ! A43   A(16,17,18)           106.9554         estimate D2E/DX2                !
 ! A44   A(16,17,40)           124.1429         estimate D2E/DX2                !
 ! A45   A(18,17,40)           127.6408         estimate D2E/DX2                !
 ! A46   A(10,18,14)           126.6082         estimate D2E/DX2                !
 ! A47   A(10,18,17)           124.1874         estimate D2E/DX2                !
 ! A48   A(14,18,17)           105.1987         estimate D2E/DX2                !
 ! A49   A(9,19,20)            137.629          estimate D2E/DX2                !
 ! A50   A(9,19,23)            119.098          estimate D2E/DX2                !
 ! A51   A(20,19,23)           103.2087         estimate D2E/DX2                !
 ! A52   A(19,20,21)           113.4007         estimate D2E/DX2                !
 ! A53   A(19,20,41)           141.2345         estimate D2E/DX2                !
 ! A54   A(21,20,41)           104.882          estimate D2E/DX2                !
 ! A55   A(20,21,22)           104.1443         estimate D2E/DX2                !
 ! A56   A(21,22,23)           112.2814         estimate D2E/DX2                !
 ! A57   A(21,22,42)           109.6426         estimate D2E/DX2                !
 ! A58   A(23,22,42)           138.0641         estimate D2E/DX2                !
 ! A59   A(6,23,19)            122.578          estimate D2E/DX2                !
 ! A60   A(6,23,22)            131.4022         estimate D2E/DX2                !
 ! A61   A(19,23,22)           105.906          estimate D2E/DX2                !
 ! A62   A(3,24,25)            126.5229         estimate D2E/DX2                !
 ! A63   A(3,24,32)            117.8316         estimate D2E/DX2                !
 ! A64   A(25,24,32)           115.6211         estimate D2E/DX2                !
 ! A65   A(24,25,26)           126.685          estimate D2E/DX2                !
 ! A66   A(24,25,43)           122.3231         estimate D2E/DX2                !
 ! A67   A(26,25,43)           110.9895         estimate D2E/DX2                !
 ! A68   A(25,26,27)           118.877          estimate D2E/DX2                !
 ! A69   A(26,27,28)           119.5746         estimate D2E/DX2                !
 ! A70   A(26,27,44)           116.4559         estimate D2E/DX2                !
 ! A71   A(28,27,44)           123.9694         estimate D2E/DX2                !
 ! A72   A(27,28,29)           127.4627         estimate D2E/DX2                !
 ! A73   A(27,28,32)           120.274          estimate D2E/DX2                !
 ! A74   A(29,28,32)           112.2634         estimate D2E/DX2                !
 ! A75   A(28,29,30)           107.0023         estimate D2E/DX2                !
 ! A76   A(29,30,31)           100.0502         estimate D2E/DX2                !
 ! A77   A(30,31,32)           106.5011         estimate D2E/DX2                !
 ! A78   A(24,32,28)           118.9682         estimate D2E/DX2                !
 ! A79   A(24,32,31)           126.8492         estimate D2E/DX2                !
 ! A80   A(28,32,31)           114.1818         estimate D2E/DX2                !
 ! D1    D(5,1,2,3)              2.0937         estimate D2E/DX2                !
 ! D2    D(33,1,2,3)          -178.2885         estimate D2E/DX2                !
 ! D3    D(2,1,5,4)             -9.9533         estimate D2E/DX2                !
 ! D4    D(2,1,5,6)            177.6956         estimate D2E/DX2                !
 ! D5    D(33,1,5,4)           170.4557         estimate D2E/DX2                !
 ! D6    D(33,1,5,6)            -1.8954         estimate D2E/DX2                !
 ! D7    D(1,2,3,4)              7.0658         estimate D2E/DX2                !
 ! D8    D(1,2,3,24)          -176.9107         estimate D2E/DX2                !
 ! D9    D(2,3,4,5)            -11.196          estimate D2E/DX2                !
 ! D10   D(24,3,4,5)           171.8863         estimate D2E/DX2                !
 ! D11   D(2,3,24,25)          176.1187         estimate D2E/DX2                !
 ! D12   D(2,3,24,32)           -5.7682         estimate D2E/DX2                !
 ! D13   D(4,3,24,25)           -7.715          estimate D2E/DX2                !
 ! D14   D(4,3,24,32)          170.3981         estimate D2E/DX2                !
 ! D15   D(3,4,5,1)             11.5029         estimate D2E/DX2                !
 ! D16   D(3,4,5,6)           -174.4948         estimate D2E/DX2                !
 ! D17   D(1,5,6,7)              5.774          estimate D2E/DX2                !
 ! D18   D(1,5,6,23)           179.7605         estimate D2E/DX2                !
 ! D19   D(4,5,6,7)           -166.2511         estimate D2E/DX2                !
 ! D20   D(4,5,6,23)             7.7354         estimate D2E/DX2                !
 ! D21   D(5,6,7,8)            178.266          estimate D2E/DX2                !
 ! D22   D(5,6,7,34)            -1.3532         estimate D2E/DX2                !
 ! D23   D(23,6,7,8)             3.972          estimate D2E/DX2                !
 ! D24   D(23,6,7,34)         -175.6471         estimate D2E/DX2                !
 ! D25   D(5,6,23,19)         -173.3179         estimate D2E/DX2                !
 ! D26   D(5,6,23,22)           11.1366         estimate D2E/DX2                !
 ! D27   D(7,6,23,19)            0.6529         estimate D2E/DX2                !
 ! D28   D(7,6,23,22)         -174.8925         estimate D2E/DX2                !
 ! D29   D(6,7,8,9)             -2.7594         estimate D2E/DX2                !
 ! D30   D(6,7,8,35)           177.7992         estimate D2E/DX2                !
 ! D31   D(34,7,8,9)           176.8694         estimate D2E/DX2                !
 ! D32   D(34,7,8,35)           -2.5721         estimate D2E/DX2                !
 ! D33   D(7,8,9,10)           176.5044         estimate D2E/DX2                !
 ! D34   D(7,8,9,19)            -3.0003         estimate D2E/DX2                !
 ! D35   D(35,8,9,10)           -4.1077         estimate D2E/DX2                !
 ! D36   D(35,8,9,19)          176.3876         estimate D2E/DX2                !
 ! D37   D(8,9,10,11)            5.8951         estimate D2E/DX2                !
 ! D38   D(8,9,10,18)         -175.4578         estimate D2E/DX2                !
 ! D39   D(19,9,10,11)        -174.6639         estimate D2E/DX2                !
 ! D40   D(19,9,10,18)           3.9833         estimate D2E/DX2                !
 ! D41   D(8,9,19,20)         -176.1212         estimate D2E/DX2                !
 ! D42   D(8,9,19,23)            7.3708         estimate D2E/DX2                !
 ! D43   D(10,9,19,20)           4.4261         estimate D2E/DX2                !
 ! D44   D(10,9,19,23)        -172.0819         estimate D2E/DX2                !
 ! D45   D(9,10,11,12)         178.1163         estimate D2E/DX2                !
 ! D46   D(9,10,11,36)          -3.0679         estimate D2E/DX2                !
 ! D47   D(18,10,11,12)         -0.6802         estimate D2E/DX2                !
 ! D48   D(18,10,11,36)        178.1355         estimate D2E/DX2                !
 ! D49   D(9,10,18,14)        -175.1678         estimate D2E/DX2                !
 ! D50   D(9,10,18,17)          30.7474         estimate D2E/DX2                !
 ! D51   D(11,10,18,14)          3.6474         estimate D2E/DX2                !
 ! D52   D(11,10,18,17)       -150.4374         estimate D2E/DX2                !
 ! D53   D(10,11,12,13)         -1.3471         estimate D2E/DX2                !
 ! D54   D(10,11,12,37)        179.4289         estimate D2E/DX2                !
 ! D55   D(36,11,12,13)        179.7768         estimate D2E/DX2                !
 ! D56   D(36,11,12,37)          0.5528         estimate D2E/DX2                !
 ! D57   D(11,12,13,14)          0.5364         estimate D2E/DX2                !
 ! D58   D(11,12,13,38)        178.581          estimate D2E/DX2                !
 ! D59   D(37,12,13,14)        179.7425         estimate D2E/DX2                !
 ! D60   D(37,12,13,38)         -2.213          estimate D2E/DX2                !
 ! D61   D(12,13,14,15)        177.9839         estimate D2E/DX2                !
 ! D62   D(12,13,14,18)          2.2596         estimate D2E/DX2                !
 ! D63   D(38,13,14,15)         -0.0807         estimate D2E/DX2                !
 ! D64   D(38,13,14,18)       -175.805          estimate D2E/DX2                !
 ! D65   D(13,14,15,16)        176.2306         estimate D2E/DX2                !
 ! D66   D(13,14,15,39)         -3.9039         estimate D2E/DX2                !
 ! D67   D(18,14,15,16)         -7.6339         estimate D2E/DX2                !
 ! D68   D(18,14,15,39)        172.2316         estimate D2E/DX2                !
 ! D69   D(13,14,18,10)         -4.8154         estimate D2E/DX2                !
 ! D70   D(13,14,18,17)        153.1835         estimate D2E/DX2                !
 ! D71   D(15,14,18,10)        178.9677         estimate D2E/DX2                !
 ! D72   D(15,14,18,17)        -23.0334         estimate D2E/DX2                !
 ! D73   D(14,15,16,17)         27.7597         estimate D2E/DX2                !
 ! D74   D(39,15,16,17)       -152.1255         estimate D2E/DX2                !
 ! D75   D(15,16,17,18)        -41.6211         estimate D2E/DX2                !
 ! D76   D(15,16,17,40)        150.3708         estimate D2E/DX2                !
 ! D77   D(16,17,18,10)       -157.3866         estimate D2E/DX2                !
 ! D78   D(16,17,18,14)         43.9313         estimate D2E/DX2                !
 ! D79   D(40,17,18,10)         10.071          estimate D2E/DX2                !
 ! D80   D(40,17,18,14)       -148.6112         estimate D2E/DX2                !
 ! D81   D(9,19,20,21)        -174.5013         estimate D2E/DX2                !
 ! D82   D(9,19,20,41)          -4.1527         estimate D2E/DX2                !
 ! D83   D(23,19,20,21)          2.3648         estimate D2E/DX2                !
 ! D84   D(23,19,20,41)        172.7134         estimate D2E/DX2                !
 ! D85   D(9,19,23,6)           -6.5205         estimate D2E/DX2                !
 ! D86   D(9,19,23,22)         170.0066         estimate D2E/DX2                !
 ! D87   D(20,19,23,6)         175.896          estimate D2E/DX2                !
 ! D88   D(20,19,23,22)         -7.5769         estimate D2E/DX2                !
 ! D89   D(19,20,21,22)          4.0604         estimate D2E/DX2                !
 ! D90   D(41,20,21,22)       -169.704          estimate D2E/DX2                !
 ! D91   D(20,21,22,23)         -9.2608         estimate D2E/DX2                !
 ! D92   D(20,21,22,42)        171.764          estimate D2E/DX2                !
 ! D93   D(21,22,23,6)        -172.928          estimate D2E/DX2                !
 ! D94   D(21,22,23,19)         10.9742         estimate D2E/DX2                !
 ! D95   D(42,22,23,6)           5.6277         estimate D2E/DX2                !
 ! D96   D(42,22,23,19)       -170.4701         estimate D2E/DX2                !
 ! D97   D(3,24,25,26)         178.1935         estimate D2E/DX2                !
 ! D98   D(3,24,25,43)          -1.2008         estimate D2E/DX2                !
 ! D99   D(32,24,25,26)          0.0441         estimate D2E/DX2                !
 ! D100  D(32,24,25,43)       -179.3502         estimate D2E/DX2                !
 ! D101  D(3,24,32,28)        -178.4185         estimate D2E/DX2                !
 ! D102  D(3,24,32,31)           1.247          estimate D2E/DX2                !
 ! D103  D(25,24,32,28)         -0.1002         estimate D2E/DX2                !
 ! D104  D(25,24,32,31)        179.5653         estimate D2E/DX2                !
 ! D105  D(24,25,26,27)          0.0608         estimate D2E/DX2                !
 ! D106  D(43,25,26,27)        179.5126         estimate D2E/DX2                !
 ! D107  D(25,26,27,28)         -0.1011         estimate D2E/DX2                !
 ! D108  D(25,26,27,44)        179.8634         estimate D2E/DX2                !
 ! D109  D(26,27,28,29)       -179.9496         estimate D2E/DX2                !
 ! D110  D(26,27,28,32)          0.0429         estimate D2E/DX2                !
 ! D111  D(44,27,28,29)          0.0887         estimate D2E/DX2                !
 ! D112  D(44,27,28,32)       -179.9188         estimate D2E/DX2                !
 ! D113  D(27,28,29,30)        179.8491         estimate D2E/DX2                !
 ! D114  D(32,28,29,30)         -0.1439         estimate D2E/DX2                !
 ! D115  D(27,28,32,24)          0.0625         estimate D2E/DX2                !
 ! D116  D(27,28,32,31)       -179.6441         estimate D2E/DX2                !
 ! D117  D(29,28,32,24)       -179.9439         estimate D2E/DX2                !
 ! D118  D(29,28,32,31)          0.3495         estimate D2E/DX2                !
 ! D119  D(28,29,30,31)         -0.0566         estimate D2E/DX2                !
 ! D120  D(29,30,31,32)          0.2502         estimate D2E/DX2                !
 ! D121  D(30,31,32,24)        179.9568         estimate D2E/DX2                !
 ! D122  D(30,31,32,28)         -0.364          estimate D2E/DX2                !
 --------------------------------------------------------------------------------
 Trust Radius=3.00D-01 FncErr=1.00D-07 GrdErr=1.00D-06
 Number of steps in this run=    262 maximum allowed number of steps=    264.
 GradGradGradGradGradGradGradGradGradGradGradGradGradGradGradGradGradGrad

                          Input orientation:                          
 ---------------------------------------------------------------------
 Center     Atomic      Atomic             Coordinates (Angstroms)
 Number     Number       Type             X           Y           Z
 ---------------------------------------------------------------------
      1          6           0       -1.188020    0.105400    0.018890
      2          7           0       -0.420170    1.251590    0.029580
      3          6           0        0.846940    0.904280   -0.023170
      4         16           0        1.134420   -0.685930   -0.264050
      5          6           0       -0.447900   -1.049570    0.004140
      6          6           0       -0.753150   -2.422650    0.029870
      7          6           0       -2.085510   -2.795330   -0.040610
      8          6           0       -2.423000   -4.131610   -0.054360
      9          6           0       -1.472600   -5.206210   -0.056770
     10          6           0       -1.978140   -6.545400    0.005550
     11          6           0       -3.353430   -6.905030   -0.049420
     12          6           0       -3.803990   -8.251650   -0.022690
     13          6           0       -2.947880   -9.367930    0.032840
     14          6           0       -1.608110   -8.998790    0.070590
     15          6           0       -0.559250   -9.871510    0.166650
     16         16           0        0.924220   -9.006360    0.075590
     17          6           0        0.049770   -7.683280    0.733410
     18          6           0       -1.182470   -7.658820    0.100700
     19          6           0       -0.086470   -4.806470   -0.111830
     20          6           0        1.161820   -5.423910   -0.199470
     21          8           0        2.191030   -4.564230   -0.099940
     22          6           0        1.612480   -3.391310    0.144040
     23          6           0        0.236360   -3.444540   -0.000370
     24          6           0        2.061540    1.634070    0.015130
     25          6           0        3.371960    1.092030    0.022710
     26          7           0        4.533180    1.785440    0.025010
     27          6           0        4.486620    3.142090    0.020970
     28          6           0        3.234120    3.797120    0.012320
     29          7           0        3.004780    5.117520    0.006450
     30         16           0        1.355010    5.324400   -0.006790
     31          7           0        0.870030    3.757480   -0.007200
     32          6           0        1.985670    3.013430    0.008660
     33          1           0       -2.268910    0.172180    0.028710
     34          1           0       -2.880080   -2.052400   -0.092020
     35          1           0       -3.499920   -4.296330   -0.073170
     36          1           0       -4.134250   -6.146320   -0.096390
     37          1           0       -4.880130   -8.408870   -0.060520
     38          1           0       -3.282000  -10.384280    0.075080
     39          1           0       -0.528950  -10.936830    0.283740
     40          1           0        0.484940   -6.920850    1.349640
     41          1           0        1.616720   -6.399600   -0.211720
     42          1           0        2.363740   -2.660600    0.382970
     43          1           0        3.559710    0.011120    0.017770
     44          1           0        5.432520    3.654020    0.025290
 ---------------------------------------------------------------------
                    Distance matrix (angstroms):
                    1          2          3          4          5
     1  C    0.000000
     2  N    1.379659   0.000000
     3  C    2.186559   1.314905   0.000000
     4  S    2.469815   2.501390   1.633841   0.000000
     5  C    1.371842   2.301468   2.344117   1.645569   0.000000
     6  C    2.565204   3.689297   3.692095   2.581764   1.406836
     7  C    3.036983   4.376739   4.720877   3.855832   2.394044
     8  C    4.413932   5.744320   6.004471   4.957007   3.661067
     9  C    5.319766   6.543565   6.536014   5.222303   4.281516
    10  C    6.697582   7.951157   7.967411   6.640339   5.704891
    11  C    7.337561   8.668374   8.867306   7.672292   6.536925
    12  C    8.757015  10.087841  10.269479   9.038046   7.945692
    13  C    9.635418  10.916205  10.950895   9.598460   8.685956
    14  C    9.114023  10.319068  10.203277   8.759971   8.033717
    15  C    9.997796  11.124814  10.868811   9.350342   8.824139
    16  S    9.353552  10.345774   9.911433   8.330012   8.074548
    17  C    7.918725   8.974861   8.657602   7.150825   6.692206
    18  C    7.764653   8.943241   8.801166   7.356780   6.650647
    19  C    5.035570   6.068891   5.787208   4.300302   3.776027
    20  C    6.011880   6.864216   6.338471   4.738499   4.665566
    21  O    5.765201   6.376433   5.631791   4.023005   4.396319
    22  C    4.481679   5.069644   4.366475   2.777438   3.122256
    23  C    3.825089   4.741895   4.391533   2.913068   2.490806
    24  C    3.591168   2.511052   1.417503   2.513940   3.674144
    25  C    4.665498   3.795492   2.532406   2.872274   4.379284
    26  N    5.962776   4.982037   3.790400   4.212220   5.731394
    27  C    6.436073   5.258389   4.272823   5.096295   6.474549
    28  C    5.760570   4.453522   3.750788   4.958110   6.086686
    29  N    6.534606   5.164904   4.733766   6.103396   7.067815
    30  S    5.805654   4.443013   4.449254   6.019876   6.624054
    31  N    4.192128   2.818768   2.853338   4.458673   4.984456
    32  C    4.304538   2.982044   2.397130   3.805819   4.736059
    33  H    1.082995   2.140786   3.201122   3.522033   2.193024
    34  H    2.744352   4.120958   4.757875   4.244178   2.632568
    35  H    4.972784   6.346246   6.778203   5.877800   4.456709
    36  H    6.912132   8.278848   8.632993   7.589654   6.290957
    37  H    9.280667  10.640670  10.933229   9.790814   8.591166
    38  H   10.696789  11.982721  12.020374  10.661978   9.755715
    39  H   11.065051  12.191555  11.924729  10.399415   9.891545
    40  H    7.344241   8.327698   7.952881   6.473025   6.095284
    41  H    7.087649   7.921354   7.346753   5.734229   5.738647
    42  H    4.516449   4.814589   3.895382   2.414370   3.262553
    43  H    4.748666   4.168735   2.856314   2.539160   4.145623
    44  H    7.511611   6.326584   5.347052   6.114945   7.530176
                    6          7          8          9         10
     6  C    0.000000
     7  C    1.385295   0.000000
     8  C    2.390824   1.378308   0.000000
     9  C    2.876338   2.487622   1.434584   0.000000
    10  C    4.300960   3.751891   2.455172   1.432789   0.000000
    11  C    5.182613   4.300853   2.925335   2.534475   1.422596
    12  C    6.579333   5.720570   4.345442   3.835524   2.499163
    13  C    7.283801   6.629340   5.263283   4.416378   2.984596
    14  C    6.631609   6.222796   4.936507   3.797137   2.481990
    15  C    7.452639   7.241875   6.038945   4.759112   3.619697
    16  S    6.794181   6.902816   5.914724   4.494820   3.805906
    17  C    5.367856   5.389859   4.398810   3.012950   2.436590
    18  C    5.254218   4.948635   3.742214   2.474726   1.371805
    19  C    2.479342   2.836533   2.432717   1.443669   2.572172
    20  C    3.567530   4.180888   3.813401   2.647249   3.340527
    21  O    3.642995   4.628317   4.634491   3.719703   4.617157
    22  C    2.558817   3.750256   4.107616   3.584955   4.781215
    23  C    1.422780   2.411260   2.747212   2.455037   3.810430
    24  C    4.937578   6.068007   7.304724   7.699659   9.122655
    25  C    5.419369   6.700713   7.802174   7.946314   9.324924
    26  N    6.756725   8.049523   9.132701   9.217334  10.573578
    27  C    7.643402   8.857180  10.032708  10.257312  11.646494
    28  C    7.388110   8.471226   9.740237  10.159623  11.581685
    29  N    8.424770   9.408850  10.724313  11.253014  12.682791
    30  S    8.028852   8.818636  10.182914  10.903744  12.328917
    31  N    6.389843   7.188578   8.548919   9.264886  10.689320
    32  C    6.087081   7.093562   8.395948   8.917757  10.348093
    33  H    3.005108   2.973980   4.307349   5.437692   6.723910
    34  H    2.162354   1.089004   2.129191   3.453804   4.583674
    35  H    3.326566   2.062672   1.089607   2.222201   2.716676
    36  H    5.031252   3.928051   2.643709   2.823076   2.195101
    37  H    7.271517   6.270736   4.932796   4.676356   3.449410
    38  H    8.353722   7.683563   6.312727   5.486686   4.054859
    39  H    8.520914   8.295306   7.071970   5.817768   4.632731
    40  H    4.848553   5.055682   4.266988   2.958030   2.830955
    41  H    4.635815   5.169773   4.635502   3.315432   3.604370
    42  H    3.145839   4.471398   5.026729   4.625041   5.838325
    43  H    4.952186   6.304608   7.277378   7.249154   8.582301
    44  H    8.671128   9.905515  11.060360  11.233481  12.607396
                   11         12         13         14         15
    11  C    0.000000
    12  C    1.420248   0.000000
    13  C    2.497421   1.407867   0.000000
    14  C    2.728438   2.321381   1.390206   0.000000
    15  C    4.080947   3.631547   2.444801   1.367836   0.000000
    16  S    4.767547   4.789073   3.889180   2.532346   1.719727
    17  C    3.577746   3.968148   3.509238   2.217761   2.341041
    18  C    2.302999   2.690546   2.458116   1.406270   2.299728
    19  C    3.883410   5.069237   5.386605   4.463655   5.094674
    20  C    4.754336   5.717223   5.700780   4.530476   4.783019
    21  O    6.018549   7.038700   7.035735   5.841906   5.983505
    22  C    6.086371   7.279344   7.518593   6.466949   6.834465
    23  C    4.986380   6.279589   6.725105   5.852931   6.478181
    24  C   10.111493  11.494926  12.088780  11.248427  11.801266
    25  C   10.449356  11.781370  12.220935  11.252912  11.647933
    26  N   11.735775  13.048136  13.429966  12.410364  12.721532
    27  C   12.744252  14.090899  14.552406  13.584887  13.958360
    28  C   12.567245  13.953819  14.544280  13.681590  14.186082
    29  N   13.600429  15.003163  15.660879  14.851029  15.407758
    30  S   13.104586  14.523246  15.309507  14.626682  15.316989
    31  N   11.468588  12.886656  13.669471  12.994986  13.704832
    32  C   11.264334  12.665827  13.328112  12.538442  13.134811
    33  H    7.160251   8.562711   9.564242   9.194841  10.189096
    34  H    4.875848   6.268103   7.316910   7.063758   8.160370
    35  H    2.612918   3.967312   5.102657   5.070773   6.307748
    36  H    1.089737   2.132350   3.435541   3.813902   5.169802
    37  H    2.143005   1.088222   2.159190   3.327358   4.567376
    38  H    3.482210   2.197759   1.070695   2.172904   2.772127
    39  H    4.933973   4.246172   2.894066   2.228456   1.072164
    40  H    4.085426   4.695662   4.416607   3.214757   3.346071
    41  H    4.998419   5.731485   5.450355   4.151508   4.114872
    42  H    7.133595   8.334584   8.562954   7.486376   7.783822
    43  H    9.779016  11.067930  11.415583  10.386897  10.707678
    44  H   13.736522  15.068523  15.485553  14.479852  14.793960
                   16         17         18         19         20
    16  S    0.000000
    17  C    1.716954   0.000000
    18  C    2.500927   1.385401   0.000000
    19  C    4.323852   3.001504   3.063052   0.000000
    20  C    3.600842   2.685456   3.252787   1.395400   0.000000
    21  O    4.622568   3.874008   4.582275   2.290377   1.344704
    22  C    5.657488   4.605478   5.101496   2.225888   2.110108
    23  C    5.604709   4.305829   4.447859   1.404100   2.194088
    24  C   10.701210   9.559088   9.843207   6.790480   7.118331
    25  C   10.390944   9.410000   9.865409   6.838943   6.884153
    26  N   11.379372  10.500450  11.039404   8.050663   7.961858
    27  C   12.660115  11.721000  12.198549   9.171172   9.191259
    28  C   13.010332  11.935646  12.278137   9.222987   9.453395
    29  N   14.276467  13.157547  13.445327  10.394970  10.703301
    30  S   14.337470  13.093941  13.229299  10.233446  10.751773
    31  N   12.764224  11.494012  11.599841   8.617835   9.188037
    32  C   12.066752  10.894612  11.132947   8.090681   8.480021
    33  H    9.718224   8.220774   7.906333   5.437808   6.567968
    34  H    7.928326   6.400950   5.860970   3.922952   5.264559
    35  H    6.463708   4.972153   4.087437   3.451576   4.797834
    36  H    5.813564   4.533965   3.322575   4.263796   5.346107
    37  H    5.836609   5.045862   3.776408   5.996590   6.740508
    38  H    4.426167   4.339296   3.440467   6.431043   6.665447
    39  H    2.425231   3.335072   3.347528   6.159024   5.786578
    40  H    2.483047   1.072573   2.210137   2.633060   2.258038
    41  H    2.712435   2.235271   3.085240   2.334287   1.076594
    42  H    6.514244   5.541171   6.134940   3.294406   3.069158
    43  H    9.394897   8.487379   9.017934   6.043227   5.944461
    44  H   13.439216  12.570195  13.105118  10.102373  10.034850
                   21         22         23         24         25
    21  O    0.000000
    22  C    1.330409   0.000000
    23  C    2.254851   1.384700   0.000000
    24  C    6.200720   5.047050   5.396647   0.000000
    25  C    5.779526   4.817762   5.514797   1.418120   0.000000
    26  N    6.769017   5.945031   6.768752   2.476291   1.352499
    27  C    8.041873   7.138707   7.838932   2.855726   2.333499
    28  C    8.426910   7.370250   7.837625   2.460434   2.708620
    29  N    9.716470   8.623086   8.998504   3.608906   4.042234
    30  S    9.924344   8.720817   8.840007   3.757419   4.688487
    31  N    8.426417   7.188832   7.229846   2.434967   3.655841
    32  C    7.581220   6.417031   6.690706   1.381460   2.369341
    33  H    6.507011   5.270384   4.399760   4.570569   5.715381
    34  H    5.659109   4.693772   3.414477   6.166129   6.999186
    35  H    5.697315   5.196429   3.832836   8.130638   8.733061
    36  H    6.520137   6.377522   5.139170   9.946593  10.428379
    37  H    8.048858   8.208029   7.129282  12.208732  12.584555
    38  H    7.991100   8.535943   7.781037  13.152861  13.265882
    39  H    6.939419   7.844751   7.536632  12.837847  12.648269
    40  H    3.250490   3.896469   3.737519   8.800752   8.619853
    41  H    1.926372   3.029256   3.268401   8.049173   7.698074
    42  H    1.971507   1.074903   2.299404   4.320975   3.902375
    43  H    4.777130   3.922267   4.794431   2.208730   1.097106
    44  H    8.835303   8.015203   8.797175   3.929861   3.287812
                   26         27         28         29         30
    26  N    0.000000
    27  C    1.357455   0.000000
    28  C    2.394697   1.413469   0.000000
    29  N    3.665939   2.469491   1.340182   0.000000
    30  S    4.756681   3.817097   2.421571   1.662743   0.000000
    31  N    4.160366   3.668681   2.364503   2.531216   1.640257
    32  C    2.828080   2.504287   1.474046   2.337902   2.395528
    33  H    6.990783   7.379540   6.589674   7.229709   6.299161
    34  H    8.348601   9.014642   8.462341   9.276261   8.506493
    35  H   10.076123  10.914384  10.528938  11.442816  10.776511
    36  H   11.749549  12.673111  12.376457  13.336057  12.716816
    37  H   13.875939  14.871695  14.657167  15.656932  15.082525
    38  H   14.463113  15.598624  15.606917  16.728243  16.378986
    39  H   13.694826  14.947942  15.209328  16.440994  16.372578
    40  H    9.692388  10.910617  11.145461  12.372393  12.350833
    41  H    8.692333   9.966660  10.326629  11.602515  11.728711
    42  H    4.960028   6.189416   6.526645   7.813568   8.057895
    43  H    2.023835   3.265294   3.799978   5.136477   5.752586
    44  H    2.073741   1.075555   2.203091   2.834803   4.406505
                   31         32         33         34         35
    31  N    0.000000
    32  C    1.341087   0.000000
    33  H    4.765355   5.116107   0.000000
    34  H    6.915578   7.024834   2.310165   0.000000
    35  H    9.163224   9.139529   4.636092   2.328042   0.000000
    36  H   11.096667  11.016600   6.589278   4.281722   1.955857
    37  H   13.456866  13.327150   8.969997   6.663775   4.337986
    38  H   14.738911  14.396228  10.605062   8.343242   6.093653
    39  H   14.763622  14.177755  11.247338   9.197940   7.283563
    40  H   10.771074  10.136091   7.722669   6.091268   4.979117
    41  H   10.186543   9.422835   7.638339   6.255692   5.533800
    42  H    6.601148   5.698918   5.441653   5.300299   6.104604
    43  H    4.611964   3.389919   5.830855   6.763214   8.270476
    44  H    4.563779   3.505910   8.451937  10.083467  11.958522
                   36         37         38         39         40
    36  H    0.000000
    37  H    2.382594   0.000000
    38  H    4.326204   2.544534   0.000000
    39  H    6.007635   5.043993   2.815694   0.000000
    40  H    4.901818   5.743408   5.273489   4.276939   0.000000
    41  H    5.757700   6.802138   6.321186   5.043395   1.997617
    42  H    7.389445   9.258129   9.572064   8.767753   4.755425
    43  H    9.855157  11.921965  12.444944  11.689546   7.699370
    44  H   13.696151  15.870458  16.523293  15.763845  11.749908
                   41         42         43         44
    41  H    0.000000
    42  H    3.858992   0.000000
    43  H    6.702627   2.949882   0.000000
    44  H   10.756011   7.029920   4.096119   0.000000
 Stoichiometry    C24H12N4OS3
 Framework group  C1[X(C24H12N4OS3)]
 Deg. of freedom   126
 Full point group                 C1      NOp   1
 Largest Abelian subgroup         C1      NOp   1
 Largest concise Abelian subgroup C1      NOp   1
                         Standard orientation:                         
 ---------------------------------------------------------------------
 Center     Atomic      Atomic             Coordinates (Angstroms)
 Number     Number       Type             X           Y           Z
 ---------------------------------------------------------------------
      1          6           0       -1.976790   -2.228820    0.064785
      2          7           0       -3.295228   -1.822602    0.077726
      3          6           0       -3.327294   -0.510408   -0.000324
      4         16           0       -1.888777    0.217094   -0.266494
      5          6           0       -1.083517   -1.188502    0.022906
      6          6           0        0.319507   -1.085819    0.035838
      7          6           0        1.058953   -2.256036   -0.017580
      8          6           0        2.435697   -2.195568   -0.043113
      9          6           0        3.191635   -0.976730   -0.075065
     10          6           0        4.620067   -1.074877   -0.021823
     11          6           0        5.359476   -2.289653   -0.058860
     12          6           0        6.778943   -2.333707   -0.042200
     13          6           0        7.602354   -1.192062   -0.015217
     14          6           0        6.863916   -0.014369    0.005311
     15          6           0        7.398955    1.242672    0.072808
     16         16           0        6.143157    2.412963   -0.031374
     17          6           0        5.132449    1.208217    0.657819
     18          6           0        5.458421    0.008838    0.045801
     19          6           0        2.409847    0.234762   -0.147692
     20          6           0        2.641640    1.605867   -0.263819
     21          8           0        1.523149    2.346419   -0.170064
     22          6           0        0.567998    1.460130    0.098573
     23          6           0        1.013503    0.154787   -0.023897
     24          6           0       -4.375154    0.443809    0.027485
     25          6           0       -4.232704    1.854601    0.006515
     26          7           0       -5.230651    2.767452   -0.001263
     27          6           0       -6.516627    2.333004    0.013055
     28          6           0       -6.783953    0.945194    0.033470
     29          7           0       -7.982675    0.346089    0.048490
     30         16           0       -7.706606   -1.293493    0.065028
     31          7           0       -6.066460   -1.307742    0.052263
     32          6           0       -5.674472   -0.025279    0.040150
     33          1           0       -1.729916   -3.282918    0.093219
     34          1           0        0.575456   -3.231400   -0.046296
     35          1           0        2.902929   -3.179909   -0.046370
     36          1           0        4.856947   -3.256297   -0.083159
     37          1           0        7.238620   -3.319826   -0.064388
     38          1           0        8.672148   -1.219197    0.019321
     39          1           0        8.411455    1.580046    0.175560
     40          1           0        4.281866    1.417888    1.276655
     41          1           0        3.445228    2.321586   -0.296189
     42          1           0       -0.345987    1.974274    0.334590
     43          1           0       -3.251480    2.344860   -0.015524
     44          1           0       -7.278842    3.091836    0.008480
 ---------------------------------------------------------------------
 Rotational constants (GHZ):      0.4209687      0.0430245      0.0391059
 Standard basis: 6-31++G(d,p) (6D, 7F)
 There are   692 symmetry adapted basis functions of A   symmetry.
 Integral buffers will be    131072 words long.
 Raffenetti 2 integral format.
 Two-electron integral symmetry is turned on.
   692 basis functions,  1192 primitive gaussians,   692 cartesian basis functions
   120 alpha electrons      120 beta electrons
       nuclear repulsion energy      3303.9239420835 Hartrees.
 NAtoms=   44 NActive=   44 NUniq=   44 SFac= 1.00D+00 NAtFMM=   60 NAOKFM=F Big=F
 One-electron integrals computed using PRISM.
 NBasis=   692 RedAO= T  NBF=   692
 NBsUse=   680 1.00D-06 NBFU=   680
 Harris functional with IExCor=  402 diagonalized for initial guess.
 ExpMin= 3.60D-02 ExpMax= 2.19D+04 ExpMxC= 3.30D+03 IAcc=3 IRadAn=         5 AccDes= 0.00D+00
 HarFok:  IExCor=  402 AccDes= 0.00D+00 IRadAn=         5 IDoV= 1
 ScaDFX=  1.000000  1.000000  1.000000  1.000000
 FoFCou: FMM=F IPFlag=           0 FMFlag=      100000 FMFlg1=           0
         NFxFlg=           0 DoJE=T BraDBF=F KetDBF=T FulRan=T
         Omega=  0.000000  0.000000  1.000000  0.000000  0.000000 ICntrl=     500 IOpCl=  0
         NMat0=    1 NMatS0=    1 NMatT0=    0 NMatD0=    1 NMtDS0=    0 NMtDT0=    0
         I1Cent=           4 NGrid=           0.
 Petite list used in FoFCou.
 Initial guess orbital symmetries:
       Occupied  (A) (A) (A) (A) (A) (A) (A) (A) (A) (A) (A) (A)
                 (A) (A) (A) (A) (A) (A) (A) (A) (A) (A) (A) (A)
                 (A) (A) (A) (A) (A) (A) (A) (A) (A) (A) (A) (A)
                 (A) (A) (A) (A) (A) (A) (A) (A) (A) (A) (A) (A)
                 (A) (A) (A) (A) (A) (A) (A) (A) (A) (A) (A) (A)
                 (A) (A) (A) (A) (A) (A) (A) (A) (A) (A) (A) (A)
                 (A) (A) (A) (A) (A) (A) (A) (A) (A) (A) (A) (A)
                 (A) (A) (A) (A) (A) (A) (A) (A) (A) (A) (A) (A)
                 (A) (A) (A) (A) (A) (A) (A) (A) (A) (A) (A) (A)
                 (A) (A) (A) (A) (A) (A) (A) (A) (A) (A) (A) (A)
       Virtual   (A) (A) (A) (A) (A) (A) (A) (A) (A) (A) (A) (A)
                 (A) (A) (A) (A) (A) (A) (A) (A) (A) (A) (A) (A)
                 (A) (A) (A) (A) (A) (A) (A) (A) (A) (A) (A) (A)
                 (A) (A) (A) (A) (A) (A) (A) (A) (A) (A) (A) (A)
                 (A) (A) (A) (A) (A) (A) (A) (A) (A) (A) (A) (A)
                 (A) (A) (A) (A) (A) (A) (A) (A) (A) (A) (A) (A)
                 (A) (A) (A) (A) (A) (A) (A) (A) (A) (A) (A) (A)
                 (A) (A) (A) (A) (A) (A) (A) (A) (A) (A) (A) (A)
                 (A) (A) (A) (A) (A) (A) (A) (A) (A) (A) (A) (A)
                 (A) (A) (A) (A) (A) (A) (A) (A) (A) (A) (A) (A)
                 (A) (A) (A) (A) (A) (A) (A) (A) (A) (A) (A) (A)
                 (A) (A) (A) (A) (A) (A) (A) (A) (A) (A) (A) (A)
                 (A) (A) (A) (A) (A) (A) (A) (A) (A) (A) (A) (A)
                 (A) (A) (A) (A) (A) (A) (A) (A) (A) (A) (A) (A)
                 (A) (A) (A) (A) (A) (A) (A) (A) (A) (A) (A) (A)
                 (A) (A) (A) (A) (A) (A) (A) (A) (A) (A) (A) (A)
                 (A) (A) (A) (A) (A) (A) (A) (A) (A) (A) (A) (A)
                 (A) (A) (A) (A) (A) (A) (A) (A) (A) (A) (A) (A)
                 (A) (A) (A) (A) (A) (A) (A) (A) (A) (A) (A) (A)
                 (A) (A) (A) (A) (A) (A) (A) (A) (A) (A) (A) (A)
                 (A) (A) (A) (A) (A) (A) (A) (A) (A) (A) (A) (A)
                 (A) (A) (A) (A) (A) (A) (A) (A) (A) (A) (A) (A)
                 (A) (A) (A) (A) (A) (A) (A) (A) (A) (A) (A) (A)
                 (A) (A) (A) (A) (A) (A) (A) (A) (A) (A) (A) (A)
                 (A) (A) (A) (A) (A) (A) (A) (A) (A) (A) (A) (A)
                 (A) (A) (A) (A) (A) (A) (A) (A) (A) (A) (A) (A)
                 (A) (A) (A) (A) (A) (A) (A) (A) (A) (A) (A) (A)
                 (A) (A) (A) (A) (A) (A) (A) (A) (A) (A) (A) (A)
                 (A) (A) (A) (A) (A) (A) (A) (A) (A) (A) (A) (A)
                 (A) (A) (A) (A) (A) (A) (A) (A) (A) (A) (A) (A)
                 (A) (A) (A) (A) (A) (A) (A) (A) (A) (A) (A) (A)
                 (A) (A) (A) (A) (A) (A) (A) (A) (A) (A) (A) (A)
                 (A) (A) (A) (A) (A) (A) (A) (A) (A) (A) (A) (A)
                 (A) (A) (A) (A) (A) (A) (A) (A) (A) (A) (A) (A)
                 (A) (A) (A) (A) (A) (A) (A) (A) (A) (A) (A) (A)
                 (A) (A) (A) (A) (A) (A) (A) (A) (A) (A) (A) (A)
                 (A) (A) (A) (A) (A) (A) (A) (A) (A) (A) (A) (A)
                 (A) (A) (A) (A) (A) (A) (A) (A) (A) (A) (A) (A)
                 (A) (A) (A) (A) (A) (A) (A) (A) (A) (A) (A) (A)
                 (A) (A) (A) (A) (A) (A) (A) (A) (A) (A) (A) (A)
                 (A) (A) (A) (A) (A) (A) (A) (A) (A) (A) (A) (A)
                 (A) (A) (A) (A) (A) (A) (A) (A) (A) (A) (A) (A)
                 (A) (A) (A) (A) (A) (A) (A) (A) (A) (A) (A) (A)
                 (A) (A) (A) (A) (A) (A) (A) (A) (A) (A) (A) (A)
                 (A) (A) (A) (A) (A) (A) (A) (A) (A) (A) (A) (A)
                 (A) (A) (A) (A) (A) (A) (A) (A) (A) (A) (A) (A)
                 (A) (A) (A) (A) (A) (A) (A) (A)
 The electronic state of the initial guess is 1-A.
 Requested convergence on RMS density matrix=1.00D-08 within 128 cycles.
 Requested convergence on MAX density matrix=1.00D-06.
 Requested convergence on             energy=1.00D-06.
 No special actions if energy rises.
 EnCoef did     6 forward-backward iterations
 Restarting incremental Fock formation.
 SCF Done:  E(RB3LYP) =  -2410.38421513     A.U. after   28 cycles
             Convg  =    0.8760D-08             -V/T =  2.0056

 **********************************************************************

            Population analysis using the SCF density.

 **********************************************************************

 Orbital symmetries:
       Occupied  (A) (A) (A) (A) (A) (A) (A) (A) (A) (A) (A) (A)
                 (A) (A) (A) (A) (A) (A) (A) (A) (A) (A) (A) (A)
                 (A) (A) (A) (A) (A) (A) (A) (A) (A) (A) (A) (A)
                 (A) (A) (A) (A) (A) (A) (A) (A) (A) (A) (A) (A)
                 (A) (A) (A) (A) (A) (A) (A) (A) (A) (A) (A) (A)
                 (A) (A) (A) (A) (A) (A) (A) (A) (A) (A) (A) (A)
                 (A) (A) (A) (A) (A) (A) (A) (A) (A) (A) (A) (A)
                 (A) (A) (A) (A) (A) (A) (A) (A) (A) (A) (A) (A)
                 (A) (A) (A) (A) (A) (A) (A) (A) (A) (A) (A) (A)
                 (A) (A) (A) (A) (A) (A) (A) (A) (A) (A) (A) (A)
       Virtual   (A) (A) (A) (A) (A) (A) (A) (A) (A) (A) (A) (A)
                 (A) (A) (A) (A) (A) (A) (A) (A) (A) (A) (A) (A)
                 (A) (A) (A) (A) (A) (A) (A) (A) (A) (A) (A) (A)
                 (A) (A) (A) (A) (A) (A) (A) (A) (A) (A) (A) (A)
                 (A) (A) (A) (A) (A) (A) (A) (A) (A) (A) (A) (A)
                 (A) (A) (A) (A) (A) (A) (A) (A) (A) (A) (A) (A)
                 (A) (A) (A) (A) (A) (A) (A) (A) (A) (A) (A) (A)
                 (A) (A) (A) (A) (A) (A) (A) (A) (A) (A) (A) (A)
                 (A) (A) (A) (A) (A) (A) (A) (A) (A) (A) (A) (A)
                 (A) (A) (A) (A) (A) (A) (A) (A) (A) (A) (A) (A)
                 (A) (A) (A) (A) (A) (A) (A) (A) (A) (A) (A) (A)
                 (A) (A) (A) (A) (A) (A) (A) (A) (A) (A) (A) (A)
                 (A) (A) (A) (A) (A) (A) (A) (A) (A) (A) (A) (A)
                 (A) (A) (A) (A) (A) (A) (A) (A) (A) (A) (A) (A)
                 (A) (A) (A) (A) (A) (A) (A) (A) (A) (A) (A) (A)
                 (A) (A) (A) (A) (A) (A) (A) (A) (A) (A) (A) (A)
                 (A) (A) (A) (A) (A) (A) (A) (A) (A) (A) (A) (A)
                 (A) (A) (A) (A) (A) (A) (A) (A) (A) (A) (A) (A)
                 (A) (A) (A) (A) (A) (A) (A) (A) (A) (A) (A) (A)
                 (A) (A) (A) (A) (A) (A) (A) (A) (A) (A) (A) (A)
                 (A) (A) (A) (A) (A) (A) (A) (A) (A) (A) (A) (A)
                 (A) (A) (A) (A) (A) (A) (A) (A) (A) (A) (A) (A)
                 (A) (A) (A) (A) (A) (A) (A) (A) (A) (A) (A) (A)
                 (A) (A) (A) (A) (A) (A) (A) (A) (A) (A) (A) (A)
                 (A) (A) (A) (A) (A) (A) (A) (A) (A) (A) (A) (A)
                 (A) (A) (A) (A) (A) (A) (A) (A) (A) (A) (A) (A)
                 (A) (A) (A) (A) (A) (A) (A) (A) (A) (A) (A) (A)
                 (A) (A) (A) (A) (A) (A) (A) (A) (A) (A) (A) (A)
                 (A) (A) (A) (A) (A) (A) (A) (A) (A) (A) (A) (A)
                 (A) (A) (A) (A) (A) (A) (A) (A) (A) (A) (A) (A)
                 (A) (A) (A) (A) (A) (A) (A) (A) (A) (A) (A) (A)
                 (A) (A) (A) (A) (A) (A) (A) (A) (A) (A) (A) (A)
                 (A) (A) (A) (A) (A) (A) (A) (A) (A) (A) (A) (A)
                 (A) (A) (A) (A) (A) (A) (A) (A) (A) (A) (A) (A)
                 (A) (A) (A) (A) (A) (A) (A) (A) (A) (A) (A) (A)
                 (A) (A) (A) (A) (A) (A) (A) (A) (A) (A) (A) (A)
                 (A) (A) (A) (A) (A) (A) (A) (A) (A) (A) (A) (A)
                 (A) (A) (A) (A) (A) (A) (A) (A) (A) (A) (A) (A)
                 (A) (A) (A) (A) (A) (A) (A) (A) (A) (A) (A) (A)
                 (A) (A) (A) (A) (A) (A) (A) (A) (A) (A) (A) (A)
                 (A) (A) (A) (A) (A) (A) (A) (A) (A) (A) (A) (A)
                 (A) (A) (A) (A) (A) (A) (A) (A) (A) (A) (A) (A)
                 (A) (A) (A) (A) (A) (A) (A) (A) (A) (A) (A) (A)
                 (A) (A) (A) (A) (A) (A) (A) (A) (A) (A) (A) (A)
                 (A) (A) (A) (A) (A) (A) (A) (A) (A) (A) (A) (A)
                 (A) (A) (A) (A) (A) (A) (A) (A) (A) (A) (A) (A)
                 (A) (A) (A) (A) (A) (A) (A) (A)
 The electronic state is 1-A.
 Alpha  occ. eigenvalues --  -88.99422 -88.92452 -88.91844 -19.25722 -14.39109
 Alpha  occ. eigenvalues --  -14.38594 -14.36522 -14.35178 -10.26150 -10.26026
 Alpha  occ. eigenvalues --  -10.25713 -10.25552 -10.25541 -10.25417 -10.25206
 Alpha  occ. eigenvalues --  -10.23651 -10.23633 -10.23562 -10.23393 -10.22829
 Alpha  occ. eigenvalues --  -10.22476 -10.22020 -10.21826 -10.21757 -10.21418
 Alpha  occ. eigenvalues --  -10.21407 -10.21402 -10.21270 -10.21165 -10.21065
 Alpha  occ. eigenvalues --  -10.20810 -10.20444  -8.04698  -7.98546  -7.98461
 Alpha  occ. eigenvalues --   -6.01247  -6.00657  -6.00486  -5.94894  -5.94832
 Alpha  occ. eigenvalues --   -5.94553  -5.94495  -5.94255  -5.94174  -1.16044
 Alpha  occ. eigenvalues --   -1.03302  -0.99723  -0.95710  -0.92669  -0.91011
 Alpha  occ. eigenvalues --   -0.90147  -0.85942  -0.84580  -0.84240  -0.81358
 Alpha  occ. eigenvalues --   -0.81271  -0.79400  -0.77397  -0.76360  -0.74945
 Alpha  occ. eigenvalues --   -0.73853  -0.70696  -0.69027  -0.68359  -0.65146
 Alpha  occ. eigenvalues --   -0.64895  -0.63909  -0.62882  -0.61745  -0.59781
 Alpha  occ. eigenvalues --   -0.58912  -0.58075  -0.56706  -0.55510  -0.53572
 Alpha  occ. eigenvalues --   -0.53205  -0.52666  -0.51547  -0.51148  -0.49413
 Alpha  occ. eigenvalues --   -0.49046  -0.48608  -0.48046  -0.47411  -0.47036
 Alpha  occ. eigenvalues --   -0.46021  -0.45109  -0.45007  -0.44383  -0.43850
 Alpha  occ. eigenvalues --   -0.43159  -0.42685  -0.42160  -0.41431  -0.41020
 Alpha  occ. eigenvalues --   -0.40319  -0.40029  -0.39852  -0.39128  -0.38735
 Alpha  occ. eigenvalues --   -0.37697  -0.37284  -0.36610  -0.35820  -0.35502
 Alpha  occ. eigenvalues --   -0.34435  -0.33953  -0.32210  -0.31820  -0.30294
 Alpha  occ. eigenvalues --   -0.29768  -0.29698  -0.28590  -0.28516  -0.27669
 Alpha  occ. eigenvalues --   -0.26838  -0.25078  -0.24025  -0.20572  -0.18457
 Alpha virt. eigenvalues --   -0.12251  -0.10541  -0.08454  -0.04796  -0.02718
 Alpha virt. eigenvalues --   -0.02068  -0.01839  -0.01534  -0.01407  -0.01085
 Alpha virt. eigenvalues --   -0.00383  -0.00041   0.00066   0.00709   0.01040
 Alpha virt. eigenvalues --    0.01233   0.01542   0.01968   0.02153   0.02351
 Alpha virt. eigenvalues --    0.02572   0.02979   0.03183   0.03755   0.03853
 Alpha virt. eigenvalues --    0.04206   0.04590   0.04870   0.05220   0.05394
 Alpha virt. eigenvalues --    0.05717   0.05982   0.06290   0.06862   0.07135
 Alpha virt. eigenvalues --    0.07197   0.07564   0.07848   0.08029   0.08408
 Alpha virt. eigenvalues --    0.08870   0.09117   0.09317   0.09595   0.09833
 Alpha virt. eigenvalues --    0.10125   0.10210   0.10340   0.10557   0.10691
 Alpha virt. eigenvalues --    0.11167   0.11181   0.11447   0.11618   0.11958
 Alpha virt. eigenvalues --    0.12083   0.12179   0.12323   0.12551   0.12960
 Alpha virt. eigenvalues --    0.13092   0.13280   0.13451   0.13709   0.13752
 Alpha virt. eigenvalues --    0.13956   0.14280   0.14379   0.14986   0.15059
 Alpha virt. eigenvalues --    0.15391   0.15449   0.15715   0.15933   0.16121
 Alpha virt. eigenvalues --    0.16664   0.16812   0.16877   0.17057   0.17453
 Alpha virt. eigenvalues --    0.17531   0.17553   0.17823   0.17848   0.18277
 Alpha virt. eigenvalues --    0.18564   0.18724   0.19114   0.19417   0.19565
 Alpha virt. eigenvalues --    0.19932   0.20016   0.20062   0.20382   0.20659
 Alpha virt. eigenvalues --    0.20949   0.21122   0.21398   0.21609   0.22009
 Alpha virt. eigenvalues --    0.22131   0.22329   0.22598   0.22724   0.22738
 Alpha virt. eigenvalues --    0.23294   0.23408   0.23630   0.23813   0.24018
 Alpha virt. eigenvalues --    0.24180   0.24355   0.24542   0.24743   0.24863
 Alpha virt. eigenvalues --    0.25151   0.25418   0.25749   0.25889   0.26226
 Alpha virt. eigenvalues --    0.26375   0.26700   0.26724   0.26951   0.27208
 Alpha virt. eigenvalues --    0.27674   0.27842   0.28180   0.28384   0.28667
 Alpha virt. eigenvalues --    0.28695   0.29008   0.29275   0.29477   0.29641
 Alpha virt. eigenvalues --    0.30028   0.30212   0.30414   0.30966   0.31266
 Alpha virt. eigenvalues --    0.31516   0.31954   0.32079   0.32331   0.32871
 Alpha virt. eigenvalues --    0.33043   0.33431   0.33775   0.33813   0.34072
 Alpha virt. eigenvalues --    0.34409   0.34782   0.34918   0.35201   0.35675
 Alpha virt. eigenvalues --    0.35970   0.36157   0.36515   0.37013   0.37221
 Alpha virt. eigenvalues --    0.37669   0.37721   0.38366   0.38958   0.39358
 Alpha virt. eigenvalues --    0.40060   0.40366   0.40639   0.41086   0.41478
 Alpha virt. eigenvalues --    0.42204   0.42480   0.42584   0.42872   0.43705
 Alpha virt. eigenvalues --    0.44268   0.44819   0.45361   0.46143   0.46652
 Alpha virt. eigenvalues --    0.47478   0.48040   0.49317   0.49905   0.50858
 Alpha virt. eigenvalues --    0.51239   0.52181   0.52905   0.53143   0.54290
 Alpha virt. eigenvalues --    0.54374   0.55815   0.56366   0.57466   0.58850
 Alpha virt. eigenvalues --    0.59731   0.61040   0.62027   0.62746   0.63821
 Alpha virt. eigenvalues --    0.64660   0.64815   0.65421   0.65665   0.65888
 Alpha virt. eigenvalues --    0.66309   0.67069   0.67191   0.67709   0.67901
 Alpha virt. eigenvalues --    0.68178   0.68737   0.68907   0.69232   0.69903
 Alpha virt. eigenvalues --    0.70337   0.70573   0.71388   0.72124   0.72424
 Alpha virt. eigenvalues --    0.72610   0.72989   0.73561   0.73947   0.74798
 Alpha virt. eigenvalues --    0.75034   0.75539   0.76169   0.76424   0.76660
 Alpha virt. eigenvalues --    0.77317   0.77595   0.77986   0.78317   0.78539
 Alpha virt. eigenvalues --    0.79146   0.79375   0.80109   0.80686   0.81771
 Alpha virt. eigenvalues --    0.82098   0.82249   0.82665   0.84173   0.84730
 Alpha virt. eigenvalues --    0.85625   0.86056   0.86569   0.87137   0.88029
 Alpha virt. eigenvalues --    0.88795   0.90791   0.91342   0.91939   0.92300
 Alpha virt. eigenvalues --    0.92776   0.93629   0.94590   0.94670   0.94983
 Alpha virt. eigenvalues --    0.95586   0.95862   0.96808   0.97575   0.98635
 Alpha virt. eigenvalues --    0.98946   0.99721   1.00158   1.00526   1.01029
 Alpha virt. eigenvalues --    1.01350   1.02700   1.02989   1.03502   1.03746
 Alpha virt. eigenvalues --    1.04456   1.04970   1.05213   1.05702   1.05802
 Alpha virt. eigenvalues --    1.06932   1.07334   1.07895   1.08427   1.09311
 Alpha virt. eigenvalues --    1.10026   1.10230   1.11619   1.11882   1.12502
 Alpha virt. eigenvalues --    1.13327   1.13445   1.13733   1.14972   1.15576
 Alpha virt. eigenvalues --    1.16104   1.16265   1.17324   1.17681   1.18183
 Alpha virt. eigenvalues --    1.18632   1.19874   1.20019   1.20848   1.21036
 Alpha virt. eigenvalues --    1.21433   1.21997   1.22418   1.22627   1.23194
 Alpha virt. eigenvalues --    1.23923   1.24537   1.25350   1.25822   1.25870
 Alpha virt. eigenvalues --    1.26514   1.27416   1.27701   1.28387   1.28917
 Alpha virt. eigenvalues --    1.30539   1.30748   1.31247   1.31657   1.32515
 Alpha virt. eigenvalues --    1.33323   1.33594   1.33931   1.35263   1.35689
 Alpha virt. eigenvalues --    1.35991   1.36663   1.37054   1.37733   1.37920
 Alpha virt. eigenvalues --    1.38294   1.38713   1.39334   1.40336   1.40662
 Alpha virt. eigenvalues --    1.41112   1.41814   1.44358   1.44523   1.45132
 Alpha virt. eigenvalues --    1.45776   1.46404   1.47555   1.48728   1.49288
 Alpha virt. eigenvalues --    1.49969   1.52372   1.52693   1.54132   1.56393
 Alpha virt. eigenvalues --    1.57826   1.61550   1.63000   1.64429   1.65023
 Alpha virt. eigenvalues --    1.65689   1.67587   1.67806   1.70065   1.70275
 Alpha virt. eigenvalues --    1.70672   1.72385   1.74639   1.74970   1.76008
 Alpha virt. eigenvalues --    1.76217   1.76816   1.77485   1.79169   1.79670
 Alpha virt. eigenvalues --    1.80051   1.80907   1.81555   1.82858   1.82910
 Alpha virt. eigenvalues --    1.83292   1.83907   1.85160   1.85298   1.86740
 Alpha virt. eigenvalues --    1.87239   1.88579   1.89471   1.90102   1.90986
 Alpha virt. eigenvalues --    1.91629   1.93280   1.95003   1.95610   1.96114
 Alpha virt. eigenvalues --    1.96859   1.97625   1.98531   1.99217   1.99861
 Alpha virt. eigenvalues --    2.00369   2.00608   2.01931   2.03131   2.03841
 Alpha virt. eigenvalues --    2.04811   2.06044   2.06707   2.07541   2.08723
 Alpha virt. eigenvalues --    2.09614   2.11558   2.13760   2.14428   2.14725
 Alpha virt. eigenvalues --    2.16084   2.16852   2.18921   2.19057   2.21406
 Alpha virt. eigenvalues --    2.22589   2.23521   2.24138   2.24764   2.25646
 Alpha virt. eigenvalues --    2.26455   2.27846   2.28298   2.28907   2.29979
 Alpha virt. eigenvalues --    2.31427   2.31813   2.32929   2.33879   2.34187
 Alpha virt. eigenvalues --    2.35414   2.36377   2.37072   2.37674   2.38149
 Alpha virt. eigenvalues --    2.38437   2.39452   2.39900   2.40308   2.40748
 Alpha virt. eigenvalues --    2.42039   2.42513   2.43248   2.44926   2.45263
 Alpha virt. eigenvalues --    2.45496   2.45932   2.46206   2.47537   2.49030
 Alpha virt. eigenvalues --    2.49711   2.50367   2.51661   2.53090   2.54384
 Alpha virt. eigenvalues --    2.55056   2.55586   2.56882   2.58019   2.58331
 Alpha virt. eigenvalues --    2.59226   2.59340   2.60057   2.61784   2.63012
 Alpha virt. eigenvalues --    2.64231   2.64647   2.65050   2.65811   2.66279
 Alpha virt. eigenvalues --    2.66817   2.67208   2.68557   2.69452   2.70449
 Alpha virt. eigenvalues --    2.71009   2.71550   2.72039   2.73147   2.74577
 Alpha virt. eigenvalues --    2.75659   2.75863   2.78259   2.78900   2.79782
 Alpha virt. eigenvalues --    2.84321   2.84564   2.88196   2.89347   2.89716
 Alpha virt. eigenvalues --    2.92118   2.93314   2.94614   2.95905   2.98594
 Alpha virt. eigenvalues --    3.00190   3.02090   3.03110   3.05048   3.06596
 Alpha virt. eigenvalues --    3.07114   3.11447   3.13198   3.15781   3.19502
 Alpha virt. eigenvalues --    3.23687   3.25408   3.26507   3.27290   3.31541
 Alpha virt. eigenvalues --    3.32644   3.35475   3.38698   3.44931   3.45381
 Alpha virt. eigenvalues --    3.49766   3.54556   3.57170   3.60513   3.65261
 Alpha virt. eigenvalues --    3.70791   3.74511   3.81394   3.94686   4.00559
 Alpha virt. eigenvalues --    4.02254   4.11810   4.20211   4.28958   4.29921
 Alpha virt. eigenvalues --    4.32093   4.34297   4.34363   4.35216   4.35703
 Alpha virt. eigenvalues --    4.36802   4.38235   4.39288   4.40269   4.40924
 Alpha virt. eigenvalues --    4.43843   4.44518   4.47217   4.51457   4.54386
 Alpha virt. eigenvalues --    4.55295   4.56635   4.58488   4.62977   4.66269
 Alpha virt. eigenvalues --    4.67768   4.74873   4.79900   4.86653   5.00469
          Condensed to atoms (all electrons):
              1          2          3          4          5          6
     1  C   18.974932  -1.072944  -0.531809  -3.916306  -7.901894  -0.512995
     2  N   -1.072944   7.181484   0.191770   0.403900   1.060981   0.073857
     3  C   -0.531809   0.191770  19.213404  -1.157537  -6.549751   0.062572
     4  S   -3.916306   0.403900  -1.157537  22.522494   2.895986   0.198224
     5  C   -7.901894   1.060981  -6.549751   2.895986  26.972912  -0.194327
     6  C   -0.512995   0.073857   0.062572   0.198224  -0.194327  10.697271
     7  C   -0.397553   0.092403  -2.099054  -0.259984  -0.399769  -1.819317
     8  C   -0.774925   0.010245   0.265651   0.114162  -0.824909  -3.036390
     9  C    0.472452   0.006632  -0.371774  -0.262106  -0.032192   1.633461
    10  C    0.018645  -0.001812   0.019852  -0.026000  -0.097905   0.280861
    11  C   -0.006658  -0.000482   0.044126   0.018964   0.201429  -0.357778
    12  C   -0.007090  -0.000050   0.001707   0.002857   0.026724   0.075890
    13  C   -0.001959  -0.000000   0.001619   0.001311   0.018606  -0.078063
    14  C    0.007513  -0.000010  -0.000637   0.000883  -0.023728  -0.047617
    15  C    0.003120   0.000002  -0.001198   0.000317  -0.001559   0.000040
    16  S   -0.001384  -0.000007   0.000443  -0.000911  -0.002259   0.000171
    17  C   -0.025445  -0.000163   0.010584   0.033695  -0.009980   0.127970
    18  C    0.064771  -0.000004  -0.011642  -0.032293   0.131499   0.133505
    19  C    0.259386   0.008172   0.121837  -0.079504  -0.316300  -0.404644
    20  C   -0.166911   0.002273   0.167335  -0.330539  -0.609191  -1.785970
    21  O    0.003614  -0.000238  -0.020325   0.032627   0.040755   0.000446
    22  C    0.151544  -0.010433   0.997587  -0.525574  -1.827123  -0.019996
    23  C   -2.673383   0.018566  -0.976766   0.997879   2.731457   0.164064
    24  C    0.692800  -0.384067   3.934912   0.410052  -0.289762   0.192520
    25  C    1.502572  -0.345389  -1.538146  -2.539142  -1.209455  -0.112474
    26  N   -0.001264   0.002778   0.115617   0.082937   0.036594  -0.002969
    27  C   -0.052455   0.090483  -0.819920  -0.074803  -0.151104  -0.005374
    28  C   -0.022642   0.323129  -4.215678  -0.374178  -0.631244  -0.019000
    29  N    0.002376  -0.010780  -0.055679  -0.015931  -0.025975   0.000407
    30  S    0.001666  -0.051378   0.098086  -0.011136  -0.061596   0.003448
    31  N   -0.031391   0.051736  -0.256287  -0.044509  -0.067018   0.019591
    32  C    0.426615  -0.402946  -0.231371  -1.455240  -5.401790   0.071753
    33  H    1.180987  -0.170503   0.080280  -0.088146  -0.787493  -0.087215
    34  H   -0.258667   0.019397  -0.073000   0.010765   0.024056  -0.298106
    35  H    0.007666  -0.002225   0.012394   0.006137   0.030358   0.028464
    36  H    0.004568   0.000145   0.000183  -0.000803  -0.000942  -0.015015
    37  H   -0.000239  -0.000002  -0.000013   0.000016  -0.000040   0.003894
    38  H    0.000033   0.000000   0.000011  -0.000004   0.000250  -0.001516
    39  H    0.000004  -0.000000  -0.000013   0.000018  -0.000093   0.001197
    40  H    0.002073   0.000040  -0.000370  -0.003657   0.005950  -0.028042
    41  H   -0.011942   0.000085   0.017142  -0.006931  -0.033097  -0.084309
    42  H    0.002018   0.001924   0.056083  -0.229004  -0.082824   0.062979
    43  H    0.092270  -0.024732  -0.141540  -0.203066  -0.167595  -0.016800
    44  H    0.001349   0.000694  -0.024843  -0.008505  -0.004020  -0.000060
              7          8          9         10         11         12
     1  C   -0.397553  -0.774925   0.472452   0.018645  -0.006658  -0.007090
     2  N    0.092403   0.010245   0.006632  -0.001812  -0.000482  -0.000050
     3  C   -2.099054   0.265651  -0.371774   0.019852   0.044126   0.001707
     4  S   -0.259984   0.114162  -0.262106  -0.026000   0.018964   0.002857
     5  C   -0.399769  -0.824909  -0.032192  -0.097905   0.201429   0.026724
     6  C   -1.819317  -3.036390   1.633461   0.280861  -0.357778   0.075890
     7  C   10.711694   2.630069  -2.700579  -0.997292   0.568222   0.433285
     8  C    2.630069  10.539466  -2.915971  -1.303079  -0.059872   0.512315
     9  C   -2.700579  -2.915971  12.309340   2.680997  -1.789915  -1.569563
    10  C   -0.997292  -1.303079   2.680997  10.278823  -0.700932  -2.835846
    11  C    0.568222  -0.059872  -1.789915  -0.700932   9.863410  -0.767747
    12  C    0.433285   0.512315  -1.569563  -2.835846  -0.767747  10.020250
    13  C    0.093881   0.195718  -0.337284   0.202611  -2.373864   2.575552
    14  C   -0.129017  -0.629947   0.305368   0.067246   2.500589  -2.823164
    15  C   -0.031632  -0.387577   0.021630  -0.968587   0.745214  -0.828920
    16  S    0.013308   0.099954  -0.043754   0.094738  -0.010136   0.194985
    17  C    0.062177   0.495881  -0.545209  -0.293853   0.246002   0.721271
    18  C   -0.070112  -0.918999  -0.004519  -0.645848  -0.889375   1.161851
    19  C   -0.173946   0.019207   2.085772   0.401426  -1.238046  -0.496628
    20  C    0.479480   0.178552  -0.518107   0.456016   0.327437   0.010305
    21  O    0.020777  -0.005145   0.064262  -0.020674   0.001175  -0.002019
    22  C    0.648895   1.580955  -2.999421  -0.476336  -0.075481   0.032318
    23  C    0.006529   0.602524  -0.009764  -0.704576  -0.444514  -0.080523
    24  C    0.082453   0.025857  -0.043744   0.000525   0.001401   0.000056
    25  C    0.037989  -0.020345   0.015987  -0.001477  -0.000073  -0.000034
    26  N    0.000280  -0.000089   0.000082  -0.000009  -0.000000  -0.000000
    27  C   -0.005768  -0.000014   0.000580   0.000005   0.000006   0.000000
    28  C   -0.052418   0.002026  -0.002917   0.000156   0.000027   0.000001
    29  N   -0.000257  -0.000001   0.000001  -0.000000   0.000000  -0.000000
    30  S   -0.000573   0.000050  -0.000019  -0.000002   0.000001   0.000000
    31  N    0.014913   0.000344   0.000339  -0.000038  -0.000006  -0.000000
    32  C   -0.536542   0.022549  -0.032740   0.002055   0.001223   0.000042
    33  H   -0.011095  -0.035527  -0.015492  -0.003960   0.001999  -0.000007
    34  H    0.445808   0.157614   0.158523   0.044891  -0.034013  -0.015851
    35  H    0.196912   0.601041  -0.459274  -0.263928  -0.016383   0.126493
    36  H   -0.038044  -0.121267  -0.079086  -0.133500   0.576605  -0.036892
    37  H    0.008492   0.020248  -0.010167  -0.049516  -0.141523   0.444653
    38  H   -0.001761  -0.010080   0.006620   0.130561   0.005580  -0.138403
    39  H    0.000274   0.003174  -0.004323  -0.019082  -0.015327   0.029308
    40  H   -0.013966  -0.088976   0.076829   0.025636   0.048131  -0.055880
    41  H   -0.014894   0.000360  -0.117114   0.057226   0.030034   0.013880
    42  H    0.063725   0.039356  -0.157511   0.012835  -0.000675   0.001440
    43  H   -0.006580  -0.002365   0.008870  -0.001416   0.000132  -0.000033
    44  H   -0.000022  -0.000003   0.000004  -0.000001   0.000000   0.000000
             13         14         15         16         17         18
     1  C   -0.001959   0.007513   0.003120  -0.001384  -0.025445   0.064771
     2  N   -0.000000  -0.000010   0.000002  -0.000007  -0.000163  -0.000004
     3  C    0.001619  -0.000637  -0.001198   0.000443   0.010584  -0.011642
     4  S    0.001311   0.000883   0.000317  -0.000911   0.033695  -0.032293
     5  C    0.018606  -0.023728  -0.001559  -0.002259  -0.009980   0.131499
     6  C   -0.078063  -0.047617   0.000040   0.000171   0.127970   0.133505
     7  C    0.093881  -0.129017  -0.031632   0.013308   0.062177  -0.070112
     8  C    0.195718  -0.629947  -0.387577   0.099954   0.495881  -0.918999
     9  C   -0.337284   0.305368   0.021630  -0.043754  -0.545209  -0.004519
    10  C    0.202611   0.067246  -0.968587   0.094738  -0.293853  -0.645848
    11  C   -2.373864   2.500589   0.745214  -0.010136   0.246002  -0.889375
    12  C    2.575552  -2.823164  -0.828920   0.194985   0.721271   1.161851
    13  C   10.441029  -4.039524  -1.458369   0.143622  -0.424457   0.778893
    14  C   -4.039524  12.911334  -1.162677   0.197436  -0.547635  -0.608042
    15  C   -1.458369  -1.162677  15.521397  -0.882544  -3.247815  -1.383214
    16  S    0.143622   0.197436  -0.882544  16.027700   0.576991  -0.382067
    17  C   -0.424457  -0.547635  -3.247815   0.576991  11.831164  -2.136607
    18  C    0.778893  -0.608042  -1.383214  -0.382067  -2.136607  11.481359
    19  C    0.130498  -0.289314  -0.182654  -0.015046  -0.172203   0.148458
    20  C    0.133114   0.080750  -0.062147   0.041967  -0.428003  -0.182276
    21  O    0.000657   0.003821   0.005273   0.001861  -0.008940   0.033529
    22  C    0.029585  -0.000030  -0.028934   0.009649  -0.075555  -0.507958
    23  C   -0.017401  -0.035285   0.082847  -0.040599  -0.428018   0.308305
    24  C    0.000031   0.000037  -0.000063   0.000066   0.000261  -0.001877
    25  C   -0.000005  -0.000098   0.000040  -0.000072  -0.000425   0.001374
    26  N   -0.000000  -0.000000   0.000000  -0.000001   0.000004   0.000004
    27  C    0.000000  -0.000000  -0.000000  -0.000000   0.000003  -0.000001
    28  C    0.000000   0.000001  -0.000001   0.000001   0.000017  -0.000024
    29  N    0.000000  -0.000000  -0.000000  -0.000000   0.000000  -0.000000
    30  S    0.000000  -0.000000  -0.000000  -0.000000   0.000000  -0.000000
    31  N   -0.000000  -0.000000   0.000000  -0.000000  -0.000002  -0.000001
    32  C    0.000020   0.000023  -0.000025   0.000016   0.000377  -0.000529
    33  H   -0.000034   0.000068   0.000069  -0.000025  -0.000072   0.001119
    34  H   -0.000107   0.006294   0.001235  -0.000441  -0.010160   0.001692
    35  H    0.019697  -0.081001  -0.026813   0.007620   0.033017  -0.027268
    36  H   -0.042012   0.210769   0.086039  -0.012899  -0.034973  -0.013704
[...]
 0,0.00008226,0.00013046,-0.00001262,0.00002414,-0.00000620,-0.00047576
 ,0.00004879,-0.00007545,-0.00067527,0.00053015,0.00216067,0.07919122,0
 .07895766,0.07352896,0.00007145,0.00007580,-0.00006492,0.00004739,0.00
 004087,-0.00002275,0.00004071,0.00009193,0.00007124,-0.00004294,-0.000
 07131,-0.00000561,-0.00041657,0.00016873,0.00025178,0.00114572,0.00100
 803,0.00009440,0.00016616,0.00000369,-0.00009163,-0.00012842,-0.000160
 77,-0.00004448,0.00083708,-0.00013364,-0.00034520,-0.00014690,0.000177
 84,-0.00001878,-0.00005261,-0.00026480,-0.00018736,-0.00005649,0.00003
 747,-0.00002474,0.00000019,-0.00003410,0.00001933,-0.00012036,-0.00011
 743,-0.00002599,0.00005357,0.00004169,0.00008551,-0.00006073,0.0000221
 6,-0.00004894,0.00022433,-0.00015723,0.00030474,-0.00040274,-0.0002399
 4,-0.00001134,0.00910959,0.01809480,0.00157590,-0.05753583,0.04220543,
 0.01430483,0.00032765,-0.03657782,-0.00769023,-0.00587004,-0.00014485,
 0.00149199,-0.00385540,0.00198317,0.00180695,-0.00000816,-0.00002334,0
 .00000666,0.00000345,0.00001021,-0.00000220,-0.00000192,-0.00000023,-0
 .00000101,0.00000404,0.00000196,-0.00000217,0.00000112,0.00000158,0.,0
 .00000428,0.00000296,-0.00000201,-0.00000320,-0.00000127,0.00000164,-0
 .00000247,-0.00000038,0.00000005,0.00000255,0.00000114,-0.00000218,-0.
 00000260,-0.00000515,-0.00000641,-0.00002571,0.00000428,0.00001239,-0.
 00008583,0.00004848,0.00001784,0.00000409,0.00001144,0.00003531,-0.000
 00282,-0.00000684,0.00000947,0.00000960,0.00000524,0.00000544,0.000008
 41,-0.00000573,-0.00001554,-0.00003082,0.00000423,0.00002150,0.0560840
 1,-0.00000934,-0.00001316,0.00006160,-0.00002384,-0.00001100,-0.000026
 93,0.00000181,-0.00000192,0.00000633,0.00005006,-0.00000759,-0.0000278
 1,0.00009182,-0.00009146,-0.00010260,-0.00064442,0.00001924,-0.0000283
 2,0.00029765,0.00014522,0.00002892,-0.00002137,-0.00043010,-0.00004314
 ,-0.00025211,-0.00009253,0.00016046,0.00008297,-0.00008230,0.00006922,
 0.00006573,0.00006053,0.00003286,0.00003110,-0.00000991,0.00003247,-0.
 00005277,-0.00003161,-0.00002810,-0.00004463,0.00007719,0.00002816,-0.
 00000806,-0.00014877,-0.00003459,-0.00003431,0.00001940,0.00011478,-0.
 00035558,-0.00005350,0.00018382,-0.00030038,0.00002665,0.00025965,-0.0
 0296375,-0.00335614,-0.00013142,0.03059822,-0.35292040,-0.06377162,-0.
 00127561,-0.01551893,-0.00144949,-0.00245649,0.00298933,0.00046006,0.0
 0172617,-0.00009366,-0.00098189,-0.00000484,-0.00000412,0.00000215,0.0
 0000540,-0.00000080,-0.00000215,-0.00000091,-0.00000191,0.00000303,0.0
 0000001,0.00000165,0.00000016,0.00000169,0.00000076,-0.00000198,0.0000
 0195,0.00000173,0.00000008,-0.00000243,0.00000062,0.00000020,-0.000000
 11,-0.00000037,0.00000088,0.00000136,-0.00000065,0.00000059,0.00000613
 ,-0.00000131,0.00000376,0.00001360,0.00000974,-0.00001176,0.00003509,-
 0.00003493,-0.00001128,0.00001581,-0.00000975,0.00000445,-0.00000077,0
 .00000017,0.00000285,-0.00000385,-0.00000212,0.00000147,0.00000773,-0.
 00000690,-0.00001052,0.00001248,-0.00008516,-0.00013385,-0.02477257,0.
 36998212,0.00001717,0.00007606,-0.00000612,-0.00005377,-0.00007407,-0.
 00003162,0.00005608,0.00001042,-0.00003449,-0.00006845,-0.00000464,-0.
 00001480,0.00012057,-0.00017006,0.00038922,-0.00015264,-0.00024710,0.0
 0074093,-0.00010733,-0.00001569,-0.00041923,0.00001762,0.00015891,-0.0
 0002318,-0.00025878,0.00021975,-0.00151797,0.00033664,-0.00019862,0.00
 000153,-0.00010357,0.00015540,-0.00015510,-0.00006354,-0.00003530,-0.0
 0007631,0.00005120,0.00002071,0.00004855,0.00003601,-0.00000717,0.0000
 5983,-0.00008310,-0.00029375,-0.00009524,-0.00005480,0.00047751,-0.000
 20730,-0.00046355,0.00006738,0.00024998,0.00039202,-0.00021412,0.00046
 444,-0.00205897,-0.00387775,0.00081157,0.01202472,-0.06519351,-0.03310
 809,-0.00143510,0.00473661,-0.00547998,0.00105081,0.00027364,0.0024246
 5,0.00181460,-0.00117000,0.00379655,0.00002564,0.00000358,0.00000164,-
 0.00000712,0.00000095,0.00000240,-0.00000088,-0.00000275,-0.00000874,-
 0.00000312,-0.00000266,0.00000183,0.00000017,-0.00000292,0.00000072,-0
 .00000582,-0.00000419,0.00000025,0.00000465,-0.00000108,0.00000037,0.0
 0000089,0.00000062,-0.00000222,-0.00000511,-0.00000123,0.00000179,-0.0
 0000261,-0.00000346,-0.00000569,0.00001010,-0.00000192,0.00004276,0.00
 003523,-0.00002288,0.00001898,-0.00004267,0.00000251,-0.00002763,-0.00
 002167,0.00001339,-0.00000775,-0.00002528,-0.00001070,-0.00000851,-0.0
 0002546,0.00000747,-0.00001842,0.00028496,-0.00027970,-0.00045629,-0.0
 1150569,0.06575700,0.03075562,0.00007951,-0.00008843,0.00007619,0.0002
 0486,-0.00015345,-0.00071539,0.00038770,0.00073516,0.00077875,-0.00027
 374,-0.00014430,-0.00032759,-0.00065864,0.00003475,0.00033843,0.000582
 34,-0.00045167,-0.00055326,-0.00024782,-0.00006408,0.00005352,-0.00000
 742,0.00022546,-0.00006503,0.00039836,-0.00150007,-0.00016306,-0.00034
 772,0.00013746,0.00012471,-0.00001856,-0.00006998,0.00003406,0.0000239
 0,-0.00001868,-0.00003303,-0.00002293,-0.00001151,-0.00001682,0.000012
 80,-0.00000473,-0.00000034,-0.00000197,0.00000404,-0.00000318,0.000010
 48,-0.00001363,0.00001936,0.00002928,0.00000222,-0.00000910,-0.0000418
 5,-0.00001315,-0.00003360,-0.00403427,0.00167761,0.00181114,-0.0000495
 1,0.00318503,0.00094701,0.01134449,0.00958894,-0.00149973,-0.25431391,
 -0.15863791,0.01281426,-0.00485657,-0.01650341,-0.00199792,0.00007242,
 0.00000164,-0.00007505,0.00000336,-0.00002523,-0.00002424,-0.00001583,
 -0.00001369,0.00001542,-0.00000829,-0.00001610,0.00000517,0.00000168,-
 0.00001045,0.00000815,-0.00002967,-0.00003383,0.00000526,0.00001168,0.
 00002448,-0.00000208,0.00002222,-0.00001785,-0.00000365,-0.00006098,0.
 00000160,0.00002254,0.00001913,-0.00002830,-0.00001926,-0.00011743,0.0
 0000770,0.00002554,-0.00001808,0.00002147,0.00000892,-0.00001420,0.000
 01140,0.00001123,-0.00000474,-0.00001019,-0.00000356,-0.00000312,-0.00
 000040,0.00000515,0.00000122,-0.00000099,0.00000129,-0.00001691,-0.000
 00113,0.00001900,0.00070806,0.00018351,0.00026440,0.25121775,-0.000074
 06,0.00023266,0.00009692,-0.00033195,-0.00006404,0.00040775,0.00001568
 ,-0.00075879,-0.00034008,0.00073999,-0.00169273,0.00017098,0.00052911,
 0.00033632,-0.00028693,-0.00032053,-0.00004882,0.00039392,-0.00021410,
 -0.00039869,-0.00003648,-0.00013695,0.00027665,0.00011535,0.00024317,0
 .00077448,-0.00007959,0.00015574,-0.00010867,-0.00002997,0.00002466,0.
 00006245,0.00001259,-0.00000445,-0.00000724,0.00001750,0.00000894,0.00
 000822,-0.00000241,-0.00001072,0.00001534,0.00001039,0.00000615,0.0000
 0172,-0.00000204,-0.00000319,0.00000083,-0.00000426,-0.00001411,-0.000
 00646,-0.00001556,-0.00000393,0.00003385,0.00002209,0.00176526,0.00005
 269,-0.00123658,0.00541276,-0.00259349,-0.00188927,-0.02576544,-0.0265
 1151,0.00082741,-0.14670434,-0.16611795,-0.00033156,0.00393715,0.00985
 332,0.00079454,0.00000940,0.00004074,-0.00001692,0.00000700,-0.0001159
 2,0.00000521,0.00000900,0.00008279,-0.00001234,0.00000470,-0.00000825,
 -0.00000294,0.00000587,0.00001555,0.00000164,0.00002182,0.00002454,-0.
 00000555,-0.00001436,-0.00000273,0.00000546,-0.00002346,0.00001704,0.0
 0000630,0.00001491,-0.00004241,-0.00001979,-0.00000472,0.00002885,0.00
 004520,0.00003695,-0.00001063,-0.00001379,0.00000894,0.00000279,-0.000
 00413,0.00000249,-0.00000529,-0.00000480,0.00000392,0.00000592,0.00000
 216,0.00000037,0.00000139,-0.00000100,0.00000083,0.00000069,0.00000028
 ,-0.00000079,-0.00000119,-0.00000408,-0.00132636,-0.00032399,-0.000143
 32,0.16202620,0.18698281,0.00002451,0.00009278,-0.00002249,0.00009662,
 -0.00036825,-0.00028626,0.00026958,0.00051053,0.00013898,-0.00067093,0
 .00009466,0.00047578,-0.00022525,-0.00005349,-0.00027994,-0.00026656,0
 .00045718,-0.00132926,0.00001470,-0.00005048,-0.00002649,-0.00016176,0
 .00013064,-0.00036717,0.00017592,0.00025580,0.00069429,0.00024164,-0.0
 0012773,0.00041510,0.00004476,0.00010372,-0.00005460,-0.00001037,0.000
 00663,0.00003820,0.00000007,-0.00000653,0.00001111,0.00003864,0.000018
 69,-0.00003569,0.00000016,-0.00001654,0.00000949,-0.00002308,0.0000242
 0,-0.00001602,-0.00006547,-0.00000507,0.00000909,-0.00001118,-0.000106
 62,0.00008133,0.00189974,-0.00111568,0.00387003,0.00145054,-0.00139588
 ,0.00185299,-0.00783432,-0.00518709,-0.00608326,0.01451027,0.00093378,
 -0.02089712,0.00228790,0.00487483,0.00105087,-0.00000731,-0.00013158,-
 0.00000214,0.00002085,0.00005135,-0.00004393,-0.00002074,-0.00004779,-
 0.00001822,0.00000227,0.00002487,0.00000262,0.00001446,-0.00000853,0.0
 0000592,-0.00000382,-0.00000818,-0.00000559,-0.00000470,0.00000285,0.0
 0000759,0.00001313,-0.00000854,-0.00001160,-0.00002384,0.00001332,0.00
 002209,0.00000120,-0.00003261,-0.00001194,0.00002017,-0.00000808,0.000
 02376,0.00001648,-0.00000925,0.00003506,-0.00000366,0.00000809,-0.0000
 0939,0.00000278,0.00000921,0.00000010,-0.00000191,0.00000057,-0.000003
 60,-0.00000327,0.00000076,-0.00000080,0.00000558,-0.00002926,0.0000146
 3,0.00000151,-0.00041529,0.00188281,-0.01182824,0.00152089,0.01881460,
 0.00013080,-0.00020365,-0.00030578,0.00050481,-0.00009969,-0.00041252,
 -0.00028703,0.00201445,-0.00071681,-0.00126849,-0.00132421,-0.00075614
 ,-0.00042184,-0.00051588,0.00081491,0.00014946,-0.00005953,-0.00012684
 ,-0.00003209,0.00004634,-0.00001405,-0.00002713,0.00004061,0.00003311,
 0.00003888,-0.00001972,-0.00002201,-0.00001367,-0.00003293,0.00000517,
 -0.00000613,0.00001536,0.00000134,-0.00000361,0.00000278,-0.00001591,0
 .00001185,0.00000993,0.00000964,-0.00000784,0.00000564,-0.00000799,0.0
 0001206,0.00001370,0.00000812,-0.00000936,-0.00000307,-0.00000905,0.00
 000120,-0.00000963,0.00000218,0.00002214,0.00001464,0.00000852,-0.0000
 1423,0.00002198,0.00001683,0.00005720,0.00003517,-0.00000670,-0.000079
 84,-0.00000448,-0.00000228,-0.00001004,0.00000022,-0.00000612,0.000054
 92,-0.00000032,-0.00001280,-0.00599288,0.02629650,0.00553770,-0.098216
 51,0.10403373,0.02408555,0.00732948,-0.02617770,-0.00348512,-0.0004564
 3,-0.00448996,0.00239365,-0.00062194,-0.00043081,0.00005075,0.00033719
 ,0.00005291,-0.00022665,-0.00048744,0.00032492,-0.00036070,-0.00011091
 ,0.00141797,0.00052475,-0.00333861,-0.00159235,0.00429376,0.00001614,-
 0.00004394,-0.00006016,-0.00001410,-0.00000278,-0.00001128,0.00001232,
 0.00001047,0.00000181,-0.00000676,-0.00000179,-0.00000394,0.00000475,0
 .00000308,0.00000250,0.00000012,0.00000357,-0.00000034,0.00000012,0.00
 000060,0.00000031,0.00000183,-0.00000413,0.00000752,-0.00000076,-0.000
 00182,0.00000490,0.00003282,-0.00003649,0.00001263,0.10241529,-0.00018
 477,-0.00020635,0.00012446,0.00009958,0.00025513,-0.00033456,-0.000559
 64,0.00010815,0.00049910,-0.00087043,-0.00062000,-0.00004097,-0.000127
 14,0.00051314,-0.00008443,0.00002184,0.00003824,0.00003159,-0.00000228
 ,-0.00001316,-0.00000159,0.00000615,-0.00000084,-0.00001101,0.00000018
 ,0.00000394,0.00000326,0.00000126,0.00001005,0.00000248,0.00000129,-0.
 00000365,-0.00000082,-0.00000021,0.00000054,0.00000465,-0.00000139,-0.
 00000305,-0.00000238,-0.00000014,-0.00000072,0.00000301,-0.00000270,-0
 .00000329,-0.00000173,0.00000250,0.00000161,0.00000196,-0.00000087,0.0
 0000249,0.00000006,-0.00000271,-0.00000498,-0.00000428,0.00000569,-0.0
 0000355,0.00000024,-0.00000664,-0.00000912,-0.00000004,0.00001678,0.00
 000717,0.00000943,-0.00000753,-0.00001963,-0.00000016,-0.00001076,0.00
 000355,-0.00000657,0.00008951,-0.00054684,-0.00027643,0.10308590,-0.28
 114002,-0.04326500,-0.00068266,-0.02911510,-0.00080459,-0.00243430,-0.
 00098530,0.00092254,-0.00025212,0.00012445,0.00021587,0.00010785,-0.00
 000092,-0.00002184,0.00019643,0.00005611,-0.00006927,0.00006492,0.0000
 2961,-0.00007454,-0.00019016,0.00094615,-0.00004367,0.00004980,0.00002
 005,0.00008071,0.00000589,0.00000050,0.00000499,-0.00000303,-0.0000025
 3,0.00000048,0.00000180,0.00000028,0.00000076,-0.00000092,-0.00000067,
 -0.00000121,0.,-0.00000093,0.00000005,0.00000005,-0.00000017,-0.000000
 34,0.00000006,0.00000071,-0.00000185,0.00000051,0.00000047,-0.00000289
 ,-0.00003179,-0.00003916,-0.00000154,-0.09869956,0.31124591,-0.0003320
 7,-0.00070241,-0.00021939,0.00088494,0.00060557,-0.00058577,-0.0019638
 5,-0.00093931,-0.00247650,-0.00006072,-0.00057224,0.00051485,-0.000568
 93,0.00036504,0.00013112,0.00003136,0.00005163,-0.00001454,-0.00000684
 ,-0.00001905,-0.00001632,-0.00001801,0.00001660,0.00001247,0.00002266,
 -0.00000773,-0.00001141,-0.00000127,-0.00000196,0.00000040,-0.00000274
 ,0.00000078,0.00000035,0.00000227,0.00000123,-0.00000415,0.00000191,0.
 00000080,0.00000240,-0.00000318,-0.00000059,-0.00000052,0.00000184,-0.
 00000081,-0.00000014,-0.00000112,0.00000441,-0.00000256,-0.00000053,-0
 .00000101,0.00000160,0.00000341,0.00000038,0.00000205,0.00000470,0.000
 00419,0.00000220,0.00000002,-0.00001740,-0.00000287,-0.00002453,-0.000
 03359,-0.00001265,-0.00000184,0.00003379,-0.00002400,0.00003192,-0.000
 00818,0.00000143,0.00570266,-0.00991597,0.00415762,0.02360154,-0.04285
 693,-0.05104337,-0.00306511,0.00905036,0.00081388,0.00213756,0.0018615
 4,0.00539492,0.00039005,0.00015443,-0.00071765,-0.00041786,0.00015857,
 -0.00006058,-0.00017090,-0.00003358,-0.00126753,0.00031047,-0.00064438
 ,0.00086922,0.00454621,-0.00007201,0.00587777,0.00013385,-0.00001654,0
 .00007721,0.00001010,0.00000192,0.00000026,-0.00000084,-0.00000171,0.0
 0000188,-0.00000126,0.00000102,0.00000106,-0.00000079,-0.00000005,0.00
 000002,-0.00000061,-0.00000034,0.00000018,-0.00000067,0.00000010,0.000
 00006,0.00000162,0.00000013,0.00000094,-0.00000018,-0.00000214,0.00000
 726,-0.00001179,0.00002439,0.00004525,-0.03125308,0.04330910,0.0380466
 5,0.00008954,0.00005527,0.00004796,-0.00000422,0.00006557,-0.00005032,
 -0.00016067,-0.00009981,-0.00074431,0.00001234,-0.00011669,0.00000284,
 -0.00000860,-0.00005233,-0.00003667,0.00000924,0.00001920,-0.00000499,
 -0.00001390,-0.00000712,0.00000413,-0.00000601,0.00001477,0.00000047,0
 .00000748,-0.00000653,-0.00000292,0.00000048,-0.00000138,0.00000078,-0
 .00000181,0.00000116,-0.00000042,-0.00000018,0.00000095,-0.00000141,0.
 00000135,0.00000065,0.00000115,-0.00000053,0.00000030,-0.00000114,0.00
 000098,0.00000113,0.00000083,-0.00000103,0.00000022,-0.00000091,-0.000
 00007,-0.00000134,0.00000026,0.00000227,0.00000077,0.00000120,-0.00000
 176,0.00000243,0.00000090,0.00000589,0.00000054,-0.00000067,-0.0000085
 4,-0.00000149,0.00000089,-0.00000246,-0.00000039,-0.00000056,0.0000107
 0,-0.00000068,-0.00000571,-0.00055624,0.00073921,0.00004202,0.00341234
 ,0.00327522,0.00378691,0.01221527,0.00815899,-0.00702743,-0.18051006,-
 0.13305861,0.05205306,-0.01254331,-0.02137195,0.00734182,0.00197773,-0
 .00025476,-0.00139166,-0.00087434,-0.00042975,0.00002959,-0.00164357,-
 0.00025346,0.00061122,-0.00133314,0.00330225,0.00248558,0.00001904,0.0
 0000566,0.00001064,-0.00000143,-0.00000064,0.00000161,0.00000085,0.000
 00080,0.00000013,-0.00000059,0.00000004,-0.00000018,0.00000033,0.00000
 019,0.00000013,-0.00000007,0.00000016,0.,-0.00000007,-0.00000009,0.000
 00003,0.00000022,-0.00000032,0.00000059,-0.00000015,-0.00000034,0.0000
 0063,0.00000012,-0.00000107,0.00000034,0.00029426,0.00031376,0.0000896
 2,0.17961229,-0.00002903,0.00000390,0.00004083,-0.00013425,-0.00008741
 ,0.00004001,-0.00011514,0.00018851,0.00016310,0.00004051,0.00000534,0.
 00003368,0.00002079,0.00003868,-0.00004689,-0.00000874,0.00002202,0.00
 000710,-0.00000231,-0.00000841,-0.00000085,0.00000677,-0.00000538,-0.0
 0000016,-0.00000488,0.00000185,0.00000164,0.00000238,0.00000877,-0.000
 00099,0.00000103,-0.00000376,-0.00000023,0.00000173,-0.00000075,0.0000
 0307,-0.00000335,-0.00000205,-0.00000166,0.00000234,-0.00000145,0.0000
 0114,-0.00000312,-0.00000357,-0.00000197,0.00000228,0.00000163,0.00000
 204,-0.00000069,0.00000216,-0.00000011,-0.00000487,-0.00000367,-0.0000
 0211,0.00000181,-0.00000662,-0.00000050,-0.00001298,-0.00000754,0.0000
 0054,0.00001276,0.00000210,-0.00000008,0.00000514,0.00000362,0.0000016
 1,-0.00001005,-0.00000642,0.00000010,-0.00018029,-0.00064689,0.0000419
 8,0.00120355,-0.00205879,-0.00113167,-0.01515582,-0.03310923,0.0050236
 7,-0.13177161,-0.19225882,0.04741586,0.00588648,0.00843747,-0.00239637
 ,-0.00087465,0.00108904,0.00043749,-0.00055058,0.00023355,0.00024138,0
 .00098535,0.00049918,-0.00033046,0.00160395,-0.00101070,-0.00086643,-0
 .00000097,-0.00000893,0.00001241,0.00000344,0.00000085,0.00000034,-0.0
 0000270,-0.00000180,0.00000009,0.00000158,0.00000058,0.00000096,-0.000
 00131,-0.00000085,-0.00000062,-0.00000014,-0.00000116,0.00000003,-0.00
 000008,-0.00000033,-0.00000012,-0.00000019,0.00000100,-0.00000193,0.00
 000015,0.00000017,-0.00000046,-0.00000369,0.00000635,-0.00000134,-0.00
 061013,-0.00064825,0.00020193,0.13969952,0.21933600,0.00012563,-0.0003
 0730,-0.00001634,0.00018516,0.00037896,-0.00024743,-0.00087820,-0.0001
 4968,-0.00153628,0.00004440,-0.00007554,-0.00004193,-0.00017062,0.0000
 3326,0.00019214,0.00000317,0.00001987,0.00000324,0.00000205,-0.0000081
 9,-0.00001344,0.00001673,-0.00000910,0.00000015,-0.00001192,0.00000024
 ,0.00000810,0.00000344,0.00000968,-0.00000416,0.00000170,-0.00000635,-
 0.00000039,0.00000017,-0.00000010,0.00000422,-0.00000255,-0.00000332,-
 0.00000252,0.00000072,-0.00000080,0.00000230,-0.00000225,-0.00000309,-
 0.00000203,0.00000221,0.00000157,0.00000176,0.00000004,0.00000181,-0.0
 0000028,-0.00000610,-0.00000381,-0.00000285,-0.00000139,-0.00000349,-0
 .00000367,-0.00001317,-0.00000204,0.00000220,0.00002041,0.00000069,-0.
 00000702,0.00000410,0.00000361,-0.00000044,-0.00001848,-0.00000633,0.0
 0000694,-0.00000161,-0.00008757,-0.00059428,0.00394444,-0.00184808,0.0
 1079156,-0.00834760,-0.00436073,-0.00272260,0.05225839,0.04775668,-0.0
 5838262,0.00830428,0.00876080,0.00443225,-0.00141957,0.00013518,-0.000
 98483,0.00011172,0.00013028,-0.00072107,0.00064857,0.00027897,-0.00016
 629,0.00240779,-0.00158740,0.00339845,0.00003751,-0.00000098,0.0000244
 8,0.00000185,0.00000178,-0.00000225,-0.00000264,-0.00000224,0.00000117
 ,0.00000175,0.00000092,0.00000090,-0.00000166,-0.00000112,-0.00000082,
 -0.00000006,-0.00000095,0.00000013,0.,-0.00000024,-0.00000004,-0.00000
 030,0.00000092,-0.00000137,0.00000088,-0.00000010,0.00000101,-0.000003
 57,0.00000241,0.00000384,0.00000062,-0.00016306,0.00049690,-0.05724603
 ,-0.04888604,0.04608317\\-0.00000909,0.00000040,0.00000192,0.00000807,
 0.00000048,-0.00001158,-0.00000392,0.00003328,0.00002804,-0.00001003,-
 0.00002830,-0.00001504,0.00001563,-0.00000023,-0.00001002,0.00000890,0
 .00000647,0.00000494,-0.00000935,-0.00000198,0.00000464,0.00000039,-0.
 00001070,0.00000082,0.00002507,0.00000683,-0.00002317,-0.00000687,-0.0
 0001112,0.00003133,0.00000299,0.00000437,0.00000302,-0.00000263,0.0000
 0561,0.00000207,0.00000704,-0.00000716,0.00000575,-0.00000918,-0.00000
 268,-0.00000127,0.00001114,-0.00000435,-0.00000512,-0.00000480,0.00000
 869,-0.00000011,0.00000967,-0.00001902,-0.00000709,-0.00001833,0.00001
 637,0.00001016,-0.00001180,-0.00000337,-0.00000305,0.00000548,0.000004
 62,-0.00000630,-0.00000630,-0.00000977,-0.00000534,-0.00000163,0.00001
 167,-0.00000603,0.00000525,-0.00000292,0.00001054,-0.00000420,-0.00000
 936,-0.00000142,0.00000550,0.00000457,0.00000098,-0.00000251,-0.000006
 59,-0.00000555,-0.00000382,0.00000522,-0.00001019,-0.00000146,0.000002
 88,-0.00000893,0.00000496,-0.00000127,0.00000379,0.,0.00000267,0.00000
 050,0.00000093,-0.00000325,-0.00000482,0.00000247,-0.00000054,0.000007
 58,0.00000416,-0.00000404,0.00000147,0.00000297,0.00000328,-0.00000157
 ,-0.00000284,-0.00000022,0.00000806,-0.00000149,0.00000276,0.00000056,
 -0.00000512,0.00000109,0.00000751,-0.00000154,0.00000183,0.00000216,0.
 00000035,-0.00000037,0.00000292,-0.00000390,0.00000111,0.00000298,0.00
 000180,0.00000313,-0.00000367,-0.00000099,0.00000041,-0.00000351,-0.00
 000054,-0.00000003,-0.00000655,-0.00000045,-0.00000047,-0.00000139\\\@


 ROSE IS A RED
 TY COBB IS BLUE
 'CAUSE PETE JUST HIT
 NO. 4592.
 Job cpu time:  1 days  3 hours  1 minutes 41.9 seconds.
 File lengths (MBytes):  RWF=   2200 Int=      0 D2E=      0 Chk=     35 Scr=      1
 Normal termination of Gaussian 09 at Sun Dec 29 13:27:07 2013.
