 Entering Gaussian System, Link 0=g09
 Initial command:
 /opt/gaussian/g09/l1.exe /panfs/panfs.cluster/home/shuo/Gau-19914.inp -scrdir=/panfs/panfs.cluster/home/shuo/
 Default is to use a total of  12 processors:
                               12 via shared-memory
                                1 via Linda
 Entering Link 1 = /opt/gaussian/g09/l1.exe PID=     19915.
  
 Copyright (c) 1988,1990,1992,1993,1995,1998,2003,2009,2011,
            Gaussian, Inc.  All Rights Reserved.
  
 This is part of the Gaussian(R) 09 program.  It is based on
 the Gaussian(R) 03 system (copyright 2003, Gaussian, Inc.),
 the Gaussian(R) 98 system (copyright 1998, Gaussian, Inc.),
 the Gaussian(R) 94 system (copyright 1995, Gaussian, Inc.),
 the Gaussian 92(TM) system (copyright 1992, Gaussian, Inc.),
 the Gaussian 90(TM) system (copyright 1990, Gaussian, Inc.),
 the Gaussian 88(TM) system (copyright 1988, Gaussian, Inc.),
 the Gaussian 86(TM) system (copyright 1986, Carnegie Mellon
 University), and the Gaussian 82(TM) system (copyright 1983,
 Carnegie Mellon University). Gaussian is a federally registered
 trademark of Gaussian, Inc.
  
 This software contains proprietary and confidential information,
 including trade secrets, belonging to Gaussian, Inc.
  
 This software is provided under written license and may be
 used, copied, transmitted, or stored only in accord with that
 written license.
  
 The following legend is applicable only to US Government
 contracts under FAR:
  
                    RESTRICTED RIGHTS LEGEND
  
 Use, reproduction and disclosure by the US Government is
 subject to restrictions as set forth in subparagraphs (a)
 and (c) of the Commercial Computer Software - Restricted
 Rights clause in FAR 52.227-19.
  
 Gaussian, Inc.
 340 Quinnipiac St., Bldg. 40, Wallingford CT 06492
  
  
 ---------------------------------------------------------------
 Warning -- This program may not be used in any manner that
 competes with the business of Gaussian, Inc. or will provide
 assistance to any competitor of Gaussian, Inc.  The licensee
 of this program is prohibited from giving any competitor of
 Gaussian, Inc. access to this program.  By using this program,
 the user acknowledges that Gaussian, Inc. is engaged in the
 business of creating and licensing software in the field of
 computational chemistry and represents and warrants to the
 licensee that it is not a competitor of Gaussian, Inc. and that
 it will not use this program in any manner prohibited above.
 ---------------------------------------------------------------
  

 Cite this work as:
 Gaussian 09, Revision C.01,
 M. J. Frisch, G. W. Trucks, H. B. Schlegel, G. E. Scuseria, 
 M. A. Robb, J. R. Cheeseman, G. Scalmani, V. Barone, B. Mennucci, 
 G. A. Petersson, H. Nakatsuji, M. Caricato, X. Li, H. P. Hratchian, 
 A. F. Izmaylov, J. Bloino, G. Zheng, J. L. Sonnenberg, M. Hada, 
 M. Ehara, K. Toyota, R. Fukuda, J. Hasegawa, M. Ishida, T. Nakajima, 
 Y. Honda, O. Kitao, H. Nakai, T. Vreven, J. A. Montgomery, Jr., 
 J. E. Peralta, F. Ogliaro, M. Bearpark, J. J. Heyd, E. Brothers, 
 K. N. Kudin, V. N. Staroverov, T. Keith, R. Kobayashi, J. Normand, 
 K. Raghavachari, A. Rendell, J. C. Burant, S. S. Iyengar, J. Tomasi, 
 M. Cossi, N. Rega, J. M. Millam, M. Klene, J. E. Knox, J. B. Cross, 
 V. Bakken, C. Adamo, J. Jaramillo, R. Gomperts, R. E. Stratmann, 
 O. Yazyev, A. J. Austin, R. Cammi, C. Pomelli, J. W. Ochterski, 
 R. L. Martin, K. Morokuma, V. G. Zakrzewski, G. A. Voth, 
 P. Salvador, J. J. Dannenberg, S. Dapprich, A. D. Daniels, 
 O. Farkas, J. B. Foresman, J. V. Ortiz, J. Cioslowski, 
 and D. J. Fox, Gaussian, Inc., Wallingford CT, 2010.
 
 ******************************************
 Gaussian 09:  EM64L-G09RevC.01 23-Sep-2011
                29-Dec-2013 
 ******************************************
 %chk=77_C21H13N5S3Si2.chk
 %NProcShared=12
 Will use up to   12 processors via shared memory.
 %Mem=8000MB
 Default route:  MaxDisk=100GB
 --------------------------------------------
 #B3LYP/6-31++G(d,p) opt scf=direct freq test
 --------------------------------------------
 1/14=-1,18=20,19=15,26=3,38=1/1,3;
 2/9=110,12=2,17=6,18=5,40=1/2;
 3/5=1,6=6,7=1111,11=2,16=1,25=1,30=1,71=1,74=-5/1,2,3;
 4//1;
 5/5=2,38=5/2;
 6/7=2,8=2,9=2,10=2,28=1/1;
 7//1,2,3,16;
 1/14=-1,18=20,19=15/3(2);
 2/9=110/2;
 99//99;
 2/9=110/2;
 3/5=1,6=6,7=1111,11=2,16=1,25=1,30=1,71=1,74=-5/1,2,3;
 4/5=5,16=3/1;
 5/5=2,38=5/2;
 7//1,2,3,16;
 1/14=-1,18=20,19=15/3(-5);
 2/9=110/2;
 6/7=2,8=2,9=2,10=2,19=2,28=1/1;
 99/9=1/99;
 ----------------------------------------------------------------------
 Geom opt of No.77 candidate from the CEPDB database with SMILE code of
  [SiH2]1ccc2c1c(sc2-c1ccc(cc1)-c1scc2[Se]ccc12)-c1cncc2nsnc12, HPC, 20
 131227, Shuo Dai, Gaussian09
 ----------------------------------------------------------------------
 Charge =  0 Multiplicity = 1
 Symbolic Z-Matrix:
 Si                   -1.249     1.158    -0.004 
 H                    -1.51127   1.97517  -1.13531 
 H                    -1.50254   1.94626   1.14959 
 C                    -2.094    -0.044     0.002 
 C                    -1.292    -1.075     0. 
 C                    -0.015    -0.662     0. 
 C                     0.021     0.714     0.002 
 C                     1.349     1.058     0.001 
 S                     2.041    -0.071     0. 
 C                     1.242    -1.078    -0.001 
 C                     1.65524  -2.46161  -0.00293 
 C                     2.99306  -2.79337  -0.35556 
 C                     3.31948  -4.12944  -0.64003 
 C                     2.49349  -5.08276  -0.32305 
 C                     1.28175  -4.77994   0.31212 
 C                     0.81405  -3.44334   0.32637 
 C                     2.82557  -6.455    -0.62608 
 S                     2.20088  -7.44907  -0.10261 
 C                     2.66557  -8.58744  -0.59422 
 C                     3.6541   -8.26377  -1.48863 
 Se                    4.56476  -8.72619  -2.36438 
 C                     5.23551  -7.53827  -2.91009 
 C                     4.68562  -6.49611  -2.34645 
 C                     3.73252  -6.88953  -1.48731 
 C                     1.88961   2.39699   0.00103 
 C                     3.22766   2.58841   0.01174 
 N                     3.77031   3.83439   0.02259 
 C                     2.99776   4.94231   0.01098 
 C                     1.59375   4.80662  -0.00554 
 N                     0.56588   5.65396  -0.01905 
 S                    -0.55954   4.95486  -0.03103 
 N                    -0.30035   3.66318  -0.02739 
 C                     1.03226   3.49894  -0.01058 
 H                    -3.12569  -0.06895   0.00687 
 H                    -1.59544  -2.06138  -0.00138 
 H                     3.71682  -2.05917  -0.40188 
 H                     4.21502  -4.3548   -1.10072 
 H                     0.73335  -5.52659   0.76687 
 H                    -0.16182  -3.23212   0.5873 
 H                     2.34496  -9.53768  -0.35073 
 H                     5.99685  -7.52904  -3.60673 
 H                     4.94561  -5.51517  -2.53403 
 H                     3.8531    1.76752   0.01168 
 H                     3.43054   5.87918   0.01415 
 

 GradGradGradGradGradGradGradGradGradGradGradGradGradGradGradGradGradGrad
 Berny optimization.
 Initialization pass.
                           ----------------------------
                           !    Initial Parameters    !
                           ! (Angstroms and Degrees)  !
 --------------------------                            --------------------------
 ! Name  Definition              Value          Derivative Info.                !
 --------------------------------------------------------------------------------
 ! R1    R(1,2)                  1.42           estimate D2E/DX2                !
 ! R2    R(1,3)                  1.42           estimate D2E/DX2                !
 ! R3    R(1,4)                  1.4693         estimate D2E/DX2                !
 ! R4    R(1,5)                  2.2334         estimate D2E/DX2                !
 ! R5    R(1,6)                  2.1989         estimate D2E/DX2                !
 ! R6    R(1,7)                  1.3454         estimate D2E/DX2                !
 ! R7    R(4,5)                  1.3062         estimate D2E/DX2                !
 ! R8    R(4,34)                 1.032          estimate D2E/DX2                !
 ! R9    R(5,6)                  1.3421         estimate D2E/DX2                !
 ! R10   R(5,35)                 1.032          estimate D2E/DX2                !
 ! R11   R(6,7)                  1.3765         estimate D2E/DX2                !
 ! R12   R(6,9)                  2.1393         estimate D2E/DX2                !
 ! R13   R(6,10)                 1.324          estimate D2E/DX2                !
 ! R14   R(7,8)                  1.3718         estimate D2E/DX2                !
 ! R15   R(7,9)                  2.1672         estimate D2E/DX2                !
 ! R16   R(8,9)                  1.3242         estimate D2E/DX2                !
 ! R17   R(8,25)                 1.444          estimate D2E/DX2                !
 ! R18   R(9,10)                 1.2855         estimate D2E/DX2                !
 ! R19   R(10,11)                1.444          estimate D2E/DX2                !
 ! R20   R(11,12)                1.4227         estimate D2E/DX2                !
 ! R21   R(11,16)                1.3341         estimate D2E/DX2                !
 ! R22   R(12,13)                1.4045         estimate D2E/DX2                !
 ! R23   R(12,36)                1.032          estimate D2E/DX2                !
 ! R24   R(13,14)                1.3006         estimate D2E/DX2                !
 ! R25   R(13,37)                1.032          estimate D2E/DX2                !
 ! R26   R(14,15)                1.4012         estimate D2E/DX2                !
 ! R27   R(14,17)                1.444          estimate D2E/DX2                !
 ! R28   R(15,16)                1.4161         estimate D2E/DX2                !
 ! R29   R(15,38)                1.032          estimate D2E/DX2                !
 ! R30   R(16,39)                1.032          estimate D2E/DX2                !
 ! R31   R(17,18)                1.2855         estimate D2E/DX2                !
 ! R32   R(17,24)                1.324          estimate D2E/DX2                !
 ! R33   R(18,19)                1.3242         estimate D2E/DX2                !
 ! R34   R(18,20)                2.1672         estimate D2E/DX2                !
 ! R35   R(18,24)                2.1393         estimate D2E/DX2                !
 ! R36   R(19,20)                1.3718         estimate D2E/DX2                !
 ! R37   R(19,40)                1.032          estimate D2E/DX2                !
 ! R38   R(20,21)                1.3454         estimate D2E/DX2                !
 ! R39   R(20,24)                1.3765         estimate D2E/DX2                !
 ! R40   R(21,22)                1.4693         estimate D2E/DX2                !
 ! R41   R(21,23)                2.2334         estimate D2E/DX2                !
 ! R42   R(21,24)                2.1989         estimate D2E/DX2                !
 ! R43   R(22,23)                1.3062         estimate D2E/DX2                !
 ! R44   R(22,41)                1.032          estimate D2E/DX2                !
 ! R45   R(23,24)                1.3421         estimate D2E/DX2                !
 ! R46   R(23,42)                1.032          estimate D2E/DX2                !
 ! R47   R(25,26)                1.3517         estimate D2E/DX2                !
 ! R48   R(25,33)                1.3962         estimate D2E/DX2                !
 ! R49   R(26,27)                1.3591         estimate D2E/DX2                !
 ! R50   R(26,43)                1.032          estimate D2E/DX2                !
 ! R51   R(27,28)                1.3507         estimate D2E/DX2                !
 ! R52   R(28,29)                1.4106         estimate D2E/DX2                !
 ! R53   R(28,44)                1.032          estimate D2E/DX2                !
 ! R54   R(29,30)                1.3322         estimate D2E/DX2                !
 ! R55   R(29,31)                2.1585         estimate D2E/DX2                !
 ! R56   R(29,33)                1.4231         estimate D2E/DX2                !
 ! R57   R(30,31)                1.3249         estimate D2E/DX2                !
 ! R58   R(31,32)                1.3174         estimate D2E/DX2                !
 ! R59   R(31,33)                2.1573         estimate D2E/DX2                !
 ! R60   R(32,33)                1.3428         estimate D2E/DX2                !
 ! A1    A(2,1,3)              107.1453         estimate D2E/DX2                !
 ! A2    A(2,1,4)              111.5806         estimate D2E/DX2                !
 ! A3    A(2,1,5)              124.976          estimate D2E/DX2                !
 ! A4    A(2,1,6)              125.5496         estimate D2E/DX2                !
 ! A5    A(2,1,7)              111.5809         estimate D2E/DX2                !
 ! A6    A(3,1,4)              110.3724         estimate D2E/DX2                !
 ! A7    A(3,1,5)              123.3749         estimate D2E/DX2                !
 ! A8    A(3,1,6)              123.93           estimate D2E/DX2                !
 ! A9    A(3,1,7)              110.3722         estimate D2E/DX2                !
 ! A10   A(4,1,6)               69.2449         estimate D2E/DX2                !
 ! A11   A(4,1,7)              105.8357         estimate D2E/DX2                !
 ! A12   A(5,1,7)               71.833          estimate D2E/DX2                !
 ! A13   A(1,4,34)             126.4929         estimate D2E/DX2                !
 ! A14   A(5,4,34)             126.4935         estimate D2E/DX2                !
 ! A15   A(1,5,35)             164.0027         estimate D2E/DX2                !
 ! A16   A(4,5,6)              109.9569         estimate D2E/DX2                !
 ! A17   A(4,5,35)             125.0218         estimate D2E/DX2                !
 ! A18   A(6,5,35)             125.0214         estimate D2E/DX2                !
 ! A19   A(1,6,9)              108.1007         estimate D2E/DX2                !
 ! A20   A(1,6,10)             142.4497         estimate D2E/DX2                !
 ! A21   A(5,6,7)              109.4206         estimate D2E/DX2                !
 ! A22   A(5,6,10)             143.7662         estimate D2E/DX2                !
 ! A23   A(7,6,10)             106.8132         estimate D2E/DX2                !
 ! A24   A(1,7,8)              146.2064         estimate D2E/DX2                !
 ! A25   A(6,7,8)              106.0211         estimate D2E/DX2                !
 ! A26   A(7,8,25)             126.5086         estimate D2E/DX2                !
 ! A27   A(9,8,25)             126.5084         estimate D2E/DX2                !
 ! A28   A(6,9,8)               74.5319         estimate D2E/DX2                !
 ! A29   A(7,9,10)              72.8068         estimate D2E/DX2                !
 ! A30   A(8,9,10)             110.0645         estimate D2E/DX2                !
 ! A31   A(6,10,11)            124.941          estimate D2E/DX2                !
 ! A32   A(9,10,11)            124.9407         estimate D2E/DX2                !
 ! A33   A(10,11,12)           119.5287         estimate D2E/DX2                !
 ! A34   A(10,11,16)           121.6227         estimate D2E/DX2                !
 ! A35   A(12,11,16)           118.8475         estimate D2E/DX2                !
 ! A36   A(11,12,13)           119.3781         estimate D2E/DX2                !
 ! A37   A(11,12,36)           120.3107         estimate D2E/DX2                !
 ! A38   A(13,12,36)           120.3112         estimate D2E/DX2                !
 ! A39   A(12,13,14)           120.0211         estimate D2E/DX2                !
 ! A40   A(12,13,37)           119.9892         estimate D2E/DX2                !
 ! A41   A(14,13,37)           119.9897         estimate D2E/DX2                !
 ! A42   A(13,14,15)           120.0841         estimate D2E/DX2                !
 ! A43   A(13,14,17)           119.9578         estimate D2E/DX2                !
 ! A44   A(15,14,17)           119.9581         estimate D2E/DX2                !
 ! A45   A(14,15,16)           119.6127         estimate D2E/DX2                !
 ! A46   A(14,15,38)           120.1934         estimate D2E/DX2                !
 ! A47   A(16,15,38)           120.1938         estimate D2E/DX2                !
 ! A48   A(11,16,15)           118.935          estimate D2E/DX2                !
 ! A49   A(11,16,39)           120.5329         estimate D2E/DX2                !
 ! A50   A(15,16,39)           120.5322         estimate D2E/DX2                !
 ! A51   A(14,17,18)           122.5249         estimate D2E/DX2                !
 ! A52   A(14,17,24)           127.2938         estimate D2E/DX2                !
 ! A53   A(17,18,19)           110.0644         estimate D2E/DX2                !
 ! A54   A(17,18,20)            72.8067         estimate D2E/DX2                !
 ! A55   A(19,18,24)            74.532          estimate D2E/DX2                !
 ! A56   A(18,19,40)           126.5086         estimate D2E/DX2                !
 ! A57   A(20,19,40)           126.5082         estimate D2E/DX2                !
 ! A58   A(19,20,21)           146.2066         estimate D2E/DX2                !
 ! A59   A(19,20,24)           106.0207         estimate D2E/DX2                !
 ! A60   A(20,21,22)           105.8353         estimate D2E/DX2                !
 ! A61   A(20,21,23)            71.8329         estimate D2E/DX2                !
 ! A62   A(22,21,24)            69.2446         estimate D2E/DX2                !
 ! A63   A(21,22,41)           126.493          estimate D2E/DX2                !
 ! A64   A(23,22,41)           126.4928         estimate D2E/DX2                !
 ! A65   A(21,23,42)           164.0024         estimate D2E/DX2                !
 ! A66   A(22,23,24)           109.9565         estimate D2E/DX2                !
 ! A67   A(22,23,42)           125.0218         estimate D2E/DX2                !
 ! A68   A(24,23,42)           125.0217         estimate D2E/DX2                !
 ! A69   A(17,24,20)           106.8131         estimate D2E/DX2                !
 ! A70   A(17,24,21)           142.4494         estimate D2E/DX2                !
 ! A71   A(17,24,23)           143.7664         estimate D2E/DX2                !
 ! A72   A(18,24,21)           108.1008         estimate D2E/DX2                !
 ! A73   A(20,24,23)           109.4206         estimate D2E/DX2                !
 ! A74   A(8,25,26)            120.1265         estimate D2E/DX2                !
 ! A75   A(8,25,33)            120.1287         estimate D2E/DX2                !
 ! A76   A(26,25,33)           119.7447         estimate D2E/DX2                !
 ! A77   A(25,26,27)           121.6776         estimate D2E/DX2                !
 ! A78   A(25,26,43)           119.1615         estimate D2E/DX2                !
 ! A79   A(27,26,43)           119.1609         estimate D2E/DX2                !
 ! A80   A(26,27,28)           121.5709         estimate D2E/DX2                !
 ! A81   A(27,28,29)           119.371          estimate D2E/DX2                !
 ! A82   A(27,28,44)           120.3147         estimate D2E/DX2                !
 ! A83   A(29,28,44)           120.3143         estimate D2E/DX2                !
 ! A84   A(28,29,30)           134.9816         estimate D2E/DX2                !
 ! A85   A(28,29,33)           118.7582         estimate D2E/DX2                !
 ! A86   A(30,29,33)           106.2602         estimate D2E/DX2                !
 ! A87   A(29,31,32)            74.7146         estimate D2E/DX2                !
 ! A88   A(30,31,32)           110.4993         estimate D2E/DX2                !
 ! A89   A(30,31,33)            74.2916         estimate D2E/DX2                !
 ! A90   A(25,33,29)           118.8751         estimate D2E/DX2                !
 ! A91   A(25,33,32)           134.912          estimate D2E/DX2                !
 ! A92   A(29,33,32)           106.2128         estimate D2E/DX2                !
 ! A93   L(5,6,9,1,-1)         181.8846         estimate D2E/DX2                !
 ! A94   L(1,7,9,5,-1)         178.033          estimate D2E/DX2                !
 ! A95   L(18,20,21,23,-1)     178.0329         estimate D2E/DX2                !
 ! A96   L(18,24,23,1,-1)      178.1915         estimate D2E/DX2                !
 ! A97   L(28,29,31,6,-1)      189.4577         estimate D2E/DX2                !
 ! A98   L(25,33,31,1,-1)      170.3317         estimate D2E/DX2                !
 ! A99   L(5,6,9,1,-2)         180.0038         estimate D2E/DX2                !
 ! A100  L(1,7,9,5,-2)         179.68           estimate D2E/DX2                !
 ! A101  L(18,20,21,23,-2)     180.3199         estimate D2E/DX2                !
 ! A102  L(18,24,23,1,-2)      179.4537         estimate D2E/DX2                !
 ! A103  L(28,29,31,6,-2)      179.9596         estimate D2E/DX2                !
 ! A104  L(25,33,31,1,-2)      180.082          estimate D2E/DX2                !
 ! D1    D(2,1,4,34)           -58.9389         estimate D2E/DX2                !
 ! D2    D(3,1,4,34)            60.0771         estimate D2E/DX2                !
 ! D3    D(6,1,4,34)           179.814          estimate D2E/DX2                !
 ! D4    D(7,1,4,34)           179.5048         estimate D2E/DX2                !
 ! D5    D(2,1,5,35)           -75.5432         estimate D2E/DX2                !
 ! D6    D(3,1,5,35)            77.5409         estimate D2E/DX2                !
 ! D7    D(7,1,5,35)          -179.5993         estimate D2E/DX2                !
 ! D8    D(2,1,6,9)             77.8999         estimate D2E/DX2                !
 ! D9    D(2,1,6,10)            77.7274         estimate D2E/DX2                !
 ! D10   D(3,1,6,9)            -78.6524         estimate D2E/DX2                !
 ! D11   D(3,1,6,10)           -78.8249         estimate D2E/DX2                !
 ! D12   D(4,1,6,9)           -179.8234         estimate D2E/DX2                !
 ! D13   D(4,1,6,10)          -179.9959         estimate D2E/DX2                !
 ! D14   D(2,1,7,8)             58.3026         estimate D2E/DX2                !
 ! D15   D(3,1,7,8)            -60.7134         estimate D2E/DX2                !
 ! D16   D(4,1,7,8)            179.8588         estimate D2E/DX2                !
 ! D17   D(5,1,7,8)            179.5673         estimate D2E/DX2                !
 ! D18   D(2,1,9,10)          -120.7627         estimate D2E/DX2                !
 ! D19   D(3,1,9,10)           119.4014         estimate D2E/DX2                !
 ! D20   D(4,1,9,10)             0.2845         estimate D2E/DX2                !
 ! D21   D(5,1,9,10)             0.1115         estimate D2E/DX2                !
 ! D22   D(34,4,5,6)          -179.6967         estimate D2E/DX2                !
 ! D23   D(34,4,5,35)            0.3035         estimate D2E/DX2                !
 ! D24   D(4,5,6,7)             -0.0051         estimate D2E/DX2                !
 ! D25   D(4,5,6,10)           179.9799         estimate D2E/DX2                !
 ! D26   D(35,5,6,7)           179.9947         estimate D2E/DX2                !
 ! D27   D(35,5,6,10)           -0.0203         estimate D2E/DX2                !
 ! D28   D(4,5,9,8)             -0.0493         estimate D2E/DX2                !
 ! D29   D(35,5,9,8)           179.9525         estimate D2E/DX2                !
 ! D30   D(5,6,7,8)           -179.962          estimate D2E/DX2                !
 ! D31   D(10,6,7,8)             0.0473         estimate D2E/DX2                !
 ! D32   D(1,6,9,8)              0.1545         estimate D2E/DX2                !
 ! D33   D(1,6,10,11)         -179.7095         estimate D2E/DX2                !
 ! D34   D(5,6,10,11)            0.0041         estimate D2E/DX2                !
 ! D35   D(7,6,10,11)          179.9893         estimate D2E/DX2                !
 ! D36   D(1,7,8,25)             0.5542         estimate D2E/DX2                !
 ! D37   D(6,7,8,25)           179.9338         estimate D2E/DX2                !
 ! D38   D(25,8,9,6)          -179.9575         estimate D2E/DX2                !
 ! D39   D(25,8,9,10)         -179.9378         estimate D2E/DX2                !
 ! D40   D(7,8,25,26)          179.423          estimate D2E/DX2                !
 ! D41   D(7,8,25,33)           -0.6044         estimate D2E/DX2                !
 ! D42   D(9,8,25,26)           -0.5771         estimate D2E/DX2                !
 ! D43   D(9,8,25,33)          179.3955         estimate D2E/DX2                !
 ! D44   D(7,9,10,11)         -179.9931         estimate D2E/DX2                !
 ! D45   D(8,9,10,11)          179.9675         estimate D2E/DX2                !
 ! D46   D(6,10,11,12)         163.4944         estimate D2E/DX2                !
 ! D47   D(6,10,11,16)         -16.9003         estimate D2E/DX2                !
 ! D48   D(9,10,11,12)         -16.5057         estimate D2E/DX2                !
 ! D49   D(9,10,11,16)         163.0995         estimate D2E/DX2                !
 ! D50   D(10,11,12,13)       -166.2567         estimate D2E/DX2                !
 ! D51   D(10,11,12,36)         13.7435         estimate D2E/DX2                !
 ! D52   D(16,11,12,13)         14.1271         estimate D2E/DX2                !
 ! D53   D(16,11,12,36)       -165.8727         estimate D2E/DX2                !
 ! D54   D(10,11,16,15)       -179.6646         estimate D2E/DX2                !
 ! D55   D(10,11,16,39)          0.3352         estimate D2E/DX2                !
 ! D56   D(12,11,16,15)         -0.0568         estimate D2E/DX2                !
 ! D57   D(12,11,16,39)        179.943          estimate D2E/DX2                !
 ! D58   D(11,12,13,14)        -13.9926         estimate D2E/DX2                !
 ! D59   D(11,12,13,37)        166.0073         estimate D2E/DX2                !
 ! D60   D(36,12,13,14)        166.0072         estimate D2E/DX2                !
 ! D61   D(36,12,13,37)        -13.9929         estimate D2E/DX2                !
 ! D62   D(12,13,14,15)         -0.5079         estimate D2E/DX2                !
 ! D63   D(12,13,14,17)        179.4912         estimate D2E/DX2                !
 ! D64   D(37,13,14,15)        179.4921         estimate D2E/DX2                !
 ! D65   D(37,13,14,17)         -0.5087         estimate D2E/DX2                !
 ! D66   D(13,14,15,16)         14.7994         estimate D2E/DX2                !
 ! D67   D(13,14,15,38)       -165.2009         estimate D2E/DX2                !
 ! D68   D(17,14,15,16)       -165.1997         estimate D2E/DX2                !
 ! D69   D(17,14,15,38)         14.7999         estimate D2E/DX2                !
 ! D70   D(13,14,17,18)        165.1819         estimate D2E/DX2                !
 ! D71   D(13,14,17,24)        -17.988          estimate D2E/DX2                !
 ! D72   D(15,14,17,18)        -14.8189         estimate D2E/DX2                !
 ! D73   D(15,14,17,24)        162.0112         estimate D2E/DX2                !
 ! D74   D(14,15,16,11)        -14.3291         estimate D2E/DX2                !
 ! D75   D(14,15,16,39)        165.6711         estimate D2E/DX2                !
 ! D76   D(38,15,16,11)        165.6713         estimate D2E/DX2                !
 ! D77   D(38,15,16,39)        -14.3285         estimate D2E/DX2                !
 ! D78   D(14,17,18,19)        177.2818         estimate D2E/DX2                !
 ! D79   D(14,17,18,20)        177.3214         estimate D2E/DX2                !
 ! D80   D(14,17,24,20)       -177.1644         estimate D2E/DX2                !
 ! D81   D(14,17,24,21)       -176.8633         estimate D2E/DX2                !
 ! D82   D(14,17,24,23)          2.8506         estimate D2E/DX2                !
 ! D83   D(17,18,19,40)       -179.9383         estimate D2E/DX2                !
 ! D84   D(24,18,19,40)       -179.9582         estimate D2E/DX2                !
 ! D85   D(17,18,21,22)          0.2846         estimate D2E/DX2                !
 ! D86   D(17,18,21,23)          0.1116         estimate D2E/DX2                !
 ! D87   D(19,18,24,21)          0.1542         estimate D2E/DX2                !
 ! D88   D(40,19,20,21)          0.5549         estimate D2E/DX2                !
 ! D89   D(40,19,20,24)        179.9344         estimate D2E/DX2                !
 ! D90   D(19,20,21,22)        179.8586         estimate D2E/DX2                !
 ! D91   D(19,20,21,23)        179.5671         estimate D2E/DX2                !
 ! D92   D(19,20,24,17)          0.0475         estimate D2E/DX2                !
 ! D93   D(19,20,24,23)       -179.9619         estimate D2E/DX2                !
 ! D94   D(20,21,22,41)        179.505          estimate D2E/DX2                !
 ! D95   D(24,21,22,41)        179.8141         estimate D2E/DX2                !
 ! D96   D(20,21,23,42)       -179.6            estimate D2E/DX2                !
 ! D97   D(22,21,24,17)       -179.9958         estimate D2E/DX2                !
 ! D98   D(22,21,24,18)       -179.8233         estimate D2E/DX2                !
 ! D99   D(41,22,23,24)       -179.6969         estimate D2E/DX2                !
 ! D100  D(41,22,23,42)          0.3031         estimate D2E/DX2                !
 ! D101  D(22,23,24,17)        179.9798         estimate D2E/DX2                !
 ! D102  D(22,23,24,20)         -0.005          estimate D2E/DX2                !
 ! D103  D(42,23,24,17)         -0.0202         estimate D2E/DX2                !
 ! D104  D(42,23,24,20)        179.9949         estimate D2E/DX2                !
 ! D105  D(8,25,26,27)        -179.4806         estimate D2E/DX2                !
 ! D106  D(8,25,26,43)           0.5192         estimate D2E/DX2                !
 ! D107  D(33,25,26,27)          0.5467         estimate D2E/DX2                !
 ! D108  D(33,25,26,43)       -179.4535         estimate D2E/DX2                !
 ! D109  D(8,25,31,30)         179.815          estimate D2E/DX2                !
 ! D110  D(26,25,31,30)         -0.2332         estimate D2E/DX2                !
 ! D111  D(8,25,33,29)         179.7834         estimate D2E/DX2                !
 ! D112  D(8,25,33,32)          -0.26           estimate D2E/DX2                !
 ! D113  D(26,25,33,29)         -0.2438         estimate D2E/DX2                !
 ! D114  D(26,25,33,32)        179.7128         estimate D2E/DX2                !
 ! D115  D(25,26,27,28)         -0.608          estimate D2E/DX2                !
 ! D116  D(43,26,27,28)        179.3923         estimate D2E/DX2                !
 ! D117  D(26,27,28,29)          0.3468         estimate D2E/DX2                !
 ! D118  D(26,27,28,44)       -179.6523         estimate D2E/DX2                !
 ! D119  D(27,28,29,30)        179.9634         estimate D2E/DX2                !
 ! D120  D(27,28,29,33)         -0.0507         estimate D2E/DX2                !
 ! D121  D(44,28,29,30)         -0.0375         estimate D2E/DX2                !
 ! D122  D(44,28,29,33)        179.9483         estimate D2E/DX2                !
 ! D123  D(27,28,31,32)         -0.1032         estimate D2E/DX2                !
 ! D124  D(44,28,31,32)        179.9072         estimate D2E/DX2                !
 ! D125  D(28,29,33,25)          0.0019         estimate D2E/DX2                !
 ! D126  D(28,29,33,32)       -179.9661         estimate D2E/DX2                !
 ! D127  D(30,29,33,25)        179.9915         estimate D2E/DX2                !
 ! D128  D(30,29,33,32)          0.0235         estimate D2E/DX2                !
 --------------------------------------------------------------------------------
 Trust Radius=3.00D-01 FncErr=1.00D-07 GrdErr=1.00D-06
 Number of steps in this run=    264 maximum allowed number of steps=    264.
 GradGradGradGradGradGradGradGradGradGradGradGradGradGradGradGradGradGrad

                          Input orientation:                          
 ---------------------------------------------------------------------
 Center     Atomic      Atomic             Coordinates (Angstroms)
 Number     Number       Type             X           Y           Z
 ---------------------------------------------------------------------
      1         14           0       -1.249000    1.158000   -0.004000
      2          1           0       -1.511270    1.975170   -1.135310
      3          1           0       -1.502540    1.946260    1.149590
      4          6           0       -2.094000   -0.044000    0.002000
      5          6           0       -1.292000   -1.075000    0.000000
      6          6           0       -0.015000   -0.662000    0.000000
      7          6           0        0.021000    0.714000    0.002000
      8          6           0        1.349000    1.058000    0.001000
      9         16           0        2.041000   -0.071000    0.000000
     10          6           0        1.242000   -1.078000   -0.001000
     11          6           0        1.655240   -2.461610   -0.002930
     12          6           0        2.993060   -2.793370   -0.355560
     13          6           0        3.319480   -4.129440   -0.640030
     14          6           0        2.493490   -5.082760   -0.323050
     15          6           0        1.281750   -4.779940    0.312120
     16          6           0        0.814050   -3.443340    0.326370
     17          6           0        2.825570   -6.455000   -0.626080
     18         16           0        2.200880   -7.449070   -0.102610
     19          6           0        2.665570   -8.587440   -0.594220
     20          6           0        3.654100   -8.263770   -1.488630
     21         34           0        4.564760   -8.726190   -2.364380
     22          6           0        5.235510   -7.538270   -2.910090
     23          6           0        4.685620   -6.496110   -2.346450
     24          6           0        3.732520   -6.889530   -1.487310
     25          6           0        1.889610    2.396990    0.001030
     26          6           0        3.227660    2.588410    0.011740
     27          7           0        3.770310    3.834390    0.022590
     28          6           0        2.997760    4.942310    0.010980
     29          6           0        1.593750    4.806620   -0.005540
     30          7           0        0.565880    5.653960   -0.019050
     31         16           0       -0.559540    4.954860   -0.031030
     32          7           0       -0.300350    3.663180   -0.027390
     33          6           0        1.032260    3.498940   -0.010580
     34          1           0       -3.125690   -0.068950    0.006870
     35          1           0       -1.595440   -2.061380   -0.001380
     36          1           0        3.716820   -2.059170   -0.401880
     37          1           0        4.215020   -4.354800   -1.100720
     38          1           0        0.733350   -5.526590    0.766870
     39          1           0       -0.161820   -3.232120    0.587300
     40          1           0        2.344960   -9.537680   -0.350730
     41          1           0        5.996850   -7.529040   -3.606730
     42          1           0        4.945610   -5.515170   -2.534030
     43          1           0        3.853100    1.767520    0.011680
     44          1           0        3.430540    5.879180    0.014150
 ---------------------------------------------------------------------
                    Distance matrix (angstroms):
                    1          2          3          4          5
     1  Si   0.000000
     2  H    1.420005   0.000000
     3  H    1.420002   2.285100   0.000000
     4  C    1.469308   2.389581   2.372324   0.000000
     5  C    2.233418   3.261985   3.239428   1.306204   0.000000
     6  C    2.198902   3.237656   3.215175   2.168910   1.342124
     7  C    1.345389   2.287329   2.270815   2.246729   2.219120
     8  C    2.599929   3.211471   3.199929   3.615059   3.394786
     9  S    3.512059   4.253747   4.236457   4.135089   3.480935
    10  C    3.347355   4.264857   4.242936   3.492572   2.534002
    11  C    4.640710   5.567233   5.543392   4.461128   3.257134
    12  C    5.807925   6.605753   6.703729   5.793536   4.630438
    13  C    7.016592   7.800494   7.960449   6.812400   5.568212
    14  C    7.283894   8.155504   8.218519   6.822010   5.522358
    15  C    6.462489   7.451679   7.327714   5.824173   4.521967
    16  C    5.053479   6.074856   5.923856   4.485252   3.186063
    17  C    8.657186   9.493959   9.615961   8.105404   6.803731
    18  S    9.273244  10.181494  10.176225   8.561075   7.269079
    19  C   10.518832  11.371346  11.461800   9.797926   8.511887
    20  C   10.724470  11.473525  11.738648  10.140377   8.852025
    21  Se  11.707622  12.367209  12.769546  11.194609   9.921322
    22  C   11.230287  11.797221  12.322282  10.879617   9.635916
    23  C    9.964546  10.565552  11.035816   9.649258   8.403940
    24  C    9.580109  10.305539  10.603315   9.111952   7.827302
    25  C    3.374314   3.610427   3.609575   4.672000   4.709284
    26  C    4.699660   4.914188   4.907326   5.937149   5.817907
    27  N    5.688343   5.717737   5.712977   7.030822   7.051922
    28  C    5.688251   5.518084   5.524984   7.126667   7.389870
    29  C    4.625328   4.351395   4.370697   6.093281   6.551415
    30  N    4.848471   4.369678   4.403535   6.288255   6.980758
    31  S    3.859045   3.317194   3.366717   5.229174   6.074263
    32  N    2.678882   2.354398   2.403821   4.118401   4.840916
    33  C    3.268668   3.171189   3.190928   4.725049   5.130616
    34  H    2.242206   2.844179   2.828692   1.032003   2.091555
    35  H    3.237968   4.193640   4.170676   2.078075   1.032000
    36  H    5.930250   6.644302   6.759604   6.163575   5.120388
    37  H    7.838959   8.535814   8.801008   7.720280   6.503533
    38  H    7.014820   8.058102   7.809556   6.215925   4.950433
    39  H    4.561222   5.648386   5.378598   3.773593   2.505074
    40  H   11.288682  12.166832  12.203897  10.486122   9.217779
    41  H   11.872096  12.361626  12.986329  11.597871  10.382219
    42  H    9.450156   9.987638  10.527138   9.269372   8.064998
    43  H    5.138403   5.489551   5.478108   6.216888   5.878104
    44  H    6.647403   6.401878   6.410332   8.099676   8.406141
                    6          7          8          9         10
     6  C    0.000000
     7  C    1.376472   0.000000
     8  C    2.195199   1.371831   0.000000
     9  S    2.139256   2.167171   1.324200   0.000000
    10  C    1.324049   2.168436   2.138679   1.285477   0.000000
    11  C    2.455261   3.571451   3.532910   2.421536   1.444004
    12  C    3.703726   4.611142   4.202751   2.905880   2.476776
    13  C    4.852992   5.895005   5.585986   4.302916   3.746407
    14  C    5.093133   6.310411   6.254902   5.042504   4.208093
    15  C    4.328557   5.645267   5.846611   4.779958   3.715371
    16  C    2.920564   4.244717   4.544678   3.603415   2.425932
    17  C    6.482258   7.723643   7.682360   6.462429   5.640084
    18  S    7.140376   8.449765   8.550244   7.380515   6.443625
    19  C    8.387559   9.688447   9.753059   8.559961   7.666169
    20  C    8.571186   9.799069   9.717401   8.481721   7.724413
    21  Se   9.570562  10.740703  10.567238   9.320513   8.667243
    22  C    9.127955  10.186822   9.872956   8.627493   8.133020
    23  C    7.851019   8.902785   8.585344   7.333613   6.834879
    24  C    7.418769   8.591105   8.429678   7.180925   6.495051
    25  C    3.603465   2.514788   1.444006   2.472629   3.534821
    26  C    4.591312   3.714320   2.423145   2.912175   4.169601
    27  N    5.877636   4.877969   3.683958   4.271194   5.524897
    28  C    6.362793   5.171053   4.219760   5.103801   6.271122
    29  C    5.700343   4.384420   3.756607   4.898085   5.895125
    30  N    6.342644   4.969964   4.662245   5.911980   6.765852
    31  S    5.643279   4.280539   4.339247   5.658890   6.296177
    32  N    4.334669   2.966781   3.083525   4.407581   4.985813
    33  C    4.290721   2.962886   2.461432   3.709736   4.581753
    34  H    3.166725   3.242637   4.614423   5.166695   4.482740
    35  H    2.110937   3.211794   4.289553   4.145517   3.003016
    36  H    4.005006   4.638176   3.935179   2.631102   2.692236
    37  H    5.722012   6.670722   6.223043   4.928376   4.559128
    38  H    4.981200   6.327514   6.657508   5.662288   4.542940
    39  H    2.640453   3.993477   4.586006   3.897437   2.637620
    40  H    9.190763  10.517707  10.648196   9.478050   8.538444
    41  H    9.813617  10.801918  10.409394   9.180393   8.787821
    42  H    7.387978   8.335814   7.910028   6.670611   6.310424
    43  H    4.567811   3.974291   2.602700   2.581472   3.861993
    44  H    7.393171   6.189038   5.251358   6.110292   7.293304
                   11         12         13         14         15
    11  C    0.000000
    12  C    1.422735   0.000000
    13  C    2.440747   1.404477   0.000000
    14  C    2.770481   2.343487   1.300598   0.000000
    15  C    2.369263   2.705705   2.341385   1.401233   0.000000
    16  C    1.334104   2.373936   2.771614   2.435152   1.416138
    17  C    4.207749   3.675428   2.377472   1.444004   2.463620
    18  S    5.018208   4.729384   3.544013   2.394501   2.853254
    19  C    6.236681   5.808223   4.505936   3.519365   4.151321
    20  C    6.314096   5.625486   4.233766   3.581120   4.583428
    21  Se   7.299775   6.457860   5.064999   4.661735   5.789188
    22  C    6.858745   5.836804   4.521556   4.498998   5.798555
    23  C    5.563495   4.531963   3.221697   3.301082   4.647533
    24  C    5.111257   4.313489   2.916605   2.480950   3.700620
    25  C    4.864251   5.318326   6.711913   7.511082   7.209341
    26  C    5.289180   5.399398   6.750018   7.713491   7.626885
    27  N    6.641821   6.683885   8.004055   9.014727   8.971256
    28  C    7.524665   7.744360   9.100767  10.043301   9.877121
    29  C    7.268491   7.735660   9.123261   9.935300   9.596895
    30  N    8.188372   8.795557  10.182477  10.912619  10.463671
    31  S    7.740159   8.530027   9.896574  10.495717   9.913346
    32  N    6.429462   7.255431   8.614141   9.186099   8.596777
    33  C    5.993023   6.599766   7.988727   8.710821   8.288922
    34  H    5.346233   6.707676   7.645016   7.538058   6.458493
    35  H    3.275226   4.659998   5.370399   5.094267   3.970777
    36  H    2.138044   1.032000   2.121465   3.262644   3.720477
    37  H    3.367757   2.118139   1.031995   2.024441   3.283433
    38  H    3.291895   3.719762   3.258752   2.117310   1.032001
    39  H    2.060040   3.321860   3.798812   3.362183   2.134330
    40  H    7.118107   6.775380   5.502949   4.457481   4.919947
    41  H    7.583917   6.482240   5.246608   5.388912   6.719159
    42  H    5.153371   3.995795   2.855133   3.329910   4.697340
    43  H    4.766166   4.655776   5.956812   6.991918   7.040692
    44  H    8.527647   8.691444  10.030591  11.007084  10.877634
                   16         17         18         19         20
    16  C    0.000000
    17  C    3.744792   0.000000
    18  S    4.260657   1.285470   0.000000
    19  C    5.544130   2.138671   1.324199   0.000000
    20  C    5.881892   2.168433   2.167172   1.371832   0.000000
    21  Se   7.015445   3.347353   3.512060   2.599931   1.345389
    22  C    6.840500   3.492562   4.135079   3.615052   2.246721
    23  C    5.608246   2.533999   3.480931   3.394786   2.219124
    24  C    4.866531   1.324044   2.139252   2.195197   1.376476
    25  C    5.947447   8.923397   9.851524  11.027880  10.907993
    26  C    6.504346   9.074787  10.090508  11.206371  10.963702
    27  N    7.861114  10.353012  11.392772  12.486103  12.192734
    28  C    8.671054  11.416399  12.417496  13.547352  13.307147
    29  C    8.293367  11.345772  12.271103  13.449765  13.314642
    30  N    9.107237  12.332948  13.204908  14.406838  14.331782
    31  S    8.517291  11.916290  12.707577  13.932423  13.950324
    32  N    7.202059  10.606949  11.390518  12.617277  12.650100
    33  C    6.953877  10.132903  11.010589  12.210197  12.141665
    34  H    5.197128   8.752129   9.102225  10.318172  10.740444
    35  H    2.796940   6.264142   6.591623   7.816465   8.260704
    36  H    3.297324   4.490870   5.607019   6.615167   6.299367
    37  H    3.799203   2.562556   3.824590   4.535700   3.968016
    38  H    2.130841   2.679485   2.570130   3.867149   4.594585
    39  H    1.031998   4.558919   4.882724   6.170055   6.647423
    40  H    6.320058   3.132047   2.108225   1.032005   2.152094
    41  H    7.682684   4.482728   5.166686   4.614418   3.242631
    42  H    5.435454   3.003019   4.145517   4.289556   3.211800
    43  H    6.040523   8.310980   9.364210  10.440428  10.144817
    44  H    9.687770  12.365593  13.385363  14.499600  14.224323
                   21         22         23         24         25
    21  Se   0.000000
    22  C    1.469306   0.000000
    23  C    2.233425   1.306203   0.000000
    24  C    2.198908   2.168904   1.342125   0.000000
    25  C   11.682325  10.880214   9.613301   9.583889   0.000000
    26  C   11.638469  10.729315   9.498169   9.609026   1.351715
    27  N   12.810033  11.835743  10.638109  10.829759   2.367196
    28  C   13.961580  13.011727  11.800161  11.948941   2.776103
    29  C   14.054465  13.194512  11.949528  11.982066   2.427734
    30  N   15.108949  14.289804  13.038913  13.020082   3.515753
    31  S   14.794394  14.069467  12.806154  12.681960   3.541477
    32  N   13.513967  12.822955  11.552018  11.391009   2.529816
    33  C   12.941126  12.161187  10.895153  10.834779   1.396237
    34  H   11.820053  11.584864  10.385714   9.787131   5.588750
    35  H    9.378247   9.225985   8.038526   7.342083   5.658855
    36  H    7.001397   6.214344   4.940280   4.950837   4.833052
    37  H    4.563793   3.801276   2.521610   2.609045   7.225514
    38  H    5.892527   6.151125   5.123785   3.991736   8.044039
    39  H    7.825457   7.739886   6.538975   5.731190   6.019880
    40  H    3.104966   4.347786   4.325822   3.198411  11.948532
    41  H    2.242205   1.032003   2.091548   3.166718  11.331876
    42  H    3.237974   2.078075   1.032000   2.110942   8.852567
    43  H   10.782860   9.851169   8.633739   8.786696   2.061950
    44  H   14.841182  13.850526  12.660784  12.860231   3.807924
                   26         27         28         29         30
    26  C    0.000000
    27  N    1.359063   0.000000
    28  C    2.365100   1.350724   0.000000
    29  C    2.755071   2.383996   1.410648   0.000000
    30  N    4.060002   3.685233   2.534046   1.332173   0.000000
    31  S    4.465960   4.472799   3.557570   2.158537   1.324936
    32  N    3.688294   4.074565   3.537679   2.212588   2.171089
    33  C    2.376835   2.758722   2.438641   1.423139   2.204925
    34  H    6.886700   7.924085   7.912609   6.785606   6.810291
    35  H    6.699479   7.971948   8.375519   7.572343   8.012371
    36  H    4.691520   5.909068   7.050406   7.197471   8.340705
    37  H    7.100747   8.277827   9.442132   9.591772  10.708011
    38  H    8.523205   9.869398  10.737634  10.397699  11.209390
    39  H    6.760060   8.106547   8.782733   8.249535   8.936421
    40  H   12.163577  13.453001  14.499210  14.368104  15.299054
    41  H   11.096149  12.134949  13.327300  13.583975  14.702325
    42  H    8.666043   9.763806  10.937554  11.143051  12.257921
    43  H    1.032006   2.068556   3.287993   3.786963   5.090302
    44  H    3.297019   2.072844   1.032005   2.127104   2.873692
                   31         32         33         34         35
    31  S    0.000000
    32  N    1.317433   0.000000
    33  C    2.157301   1.342798   0.000000
    34  H    5.641385   4.681080   5.478932   0.000000
    35  H    7.092362   5.869286   6.149963   2.512272   0.000000
    36  H    8.223223   7.001656   6.184866   7.137786   5.327336
    37  H   10.517149   9.264373   8.543980   8.572123   6.342694
    38  H   10.590987   9.281770   9.063883   6.727230   4.245133
    39  H    8.219924   6.924030   6.862249   4.373450   1.942278
    40  H   14.784182  13.467179  13.106958  10.941332   8.458360
    41  H   14.547152  13.331624  12.617281  12.326061  10.026800
    42  H   12.091039  10.864872  10.145752  10.062970   7.818460
    43  H    5.443561   4.565764   3.309902   7.216381   6.659372
    44  H    4.095992   4.339576   3.379038   8.852370   9.397511
                   36         37         38         39         40
    36  H    0.000000
    37  H    2.450816   0.000000
    38  H    4.721236   4.121045   0.000000
    39  H    4.171107   4.823541   2.469447   0.000000
    40  H    7.603468   5.560742   4.464881   6.850105   0.000000
    41  H    6.737142   4.419367   7.130401   8.601315   5.288901
    42  H    4.242632   1.983582   5.351561   6.406314   5.264102
    43  H    3.851384   6.233075   7.969140   6.437959  11.411107
    44  H    7.954397  10.324374  11.744489   9.810675  15.459340
                   41         42         43         44
    41  H    0.000000
    42  H    2.512263   0.000000
    43  H   10.203655   7.791777   0.000000
    44  H   14.123636  11.773694   4.133317   0.000000
 Stoichiometry    C23H13N3S3SeSi
 Framework group  C1[X(C23H13N3S3SeSi)]
 Deg. of freedom   126
 Full point group                 C1      NOp   1
 Largest Abelian subgroup         C1      NOp   1
 Largest concise Abelian subgroup C1      NOp   1
                         Standard orientation:                         
 ---------------------------------------------------------------------
 Center     Atomic      Atomic             Coordinates (Angstroms)
 Number     Number       Type             X           Y           Z
 ---------------------------------------------------------------------
      1         14           0       -4.019811    2.112511    0.522947
      2          1           0       -4.713296    1.841918    1.732191
      3          1           0       -4.998579    2.387799   -0.468333
      4          6           0       -3.104404    3.252570    0.668414
      5          6           0       -1.904676    2.817315    0.390254
      6          6           0       -1.952229    1.513981    0.073462
      7          6           0       -3.253641    1.071954    0.148386
      8          6           0       -3.221507   -0.258245   -0.185471
      9         16           0       -1.958350   -0.562428   -0.441229
     10          6           0       -1.215290    0.475443   -0.289120
     11          6           0        0.215050    0.504455   -0.485169
     12          6           0        0.942132   -0.717775   -0.526143
     13          6           0        2.342639   -0.690077   -0.424308
     14          6           0        2.983385    0.432674   -0.567239
     15          6           0        2.279049    1.614394   -0.833518
     16          6           0        0.877044    1.652648   -0.637649
     17          6           0        4.422443    0.461467   -0.451357
     18         16           0        5.128053    1.459532   -0.849368
     19          6           0        6.406242    1.251172   -0.573104
     20          6           0        6.489032    0.027602    0.041669
     21         34           0        7.297048   -0.885743    0.609984
     22          6           0        6.422305   -1.989348    1.029199
     23          6           0        5.202759   -1.656421    0.700515
     24          6           0        5.200881   -0.453278    0.105750
     25          6           0       -4.350704   -1.156216   -0.246421
     26          6           0       -4.172103   -2.447532   -0.603825
     27          7           0       -5.213632   -3.317145   -0.681571
     28          6           0       -6.476786   -2.935239   -0.393398
     29          6           0       -6.725545   -1.600908   -0.009201
     30          7           0       -7.809347   -0.905931    0.332947
     31         16           0       -7.446520    0.339504    0.602582
     32          7           0       -6.146257    0.484916    0.448306
     33          6           0       -5.631141   -0.694142    0.064138
     34          1           0       -3.360763    4.214886    0.939078
     35          1           0       -1.046974    3.390848    0.411012
     36          1           0        0.445111   -1.616254   -0.629721
     37          1           0        2.863461   -1.560882   -0.236008
     38          1           0        2.779091    2.451949   -1.170394
     39          1           0        0.375489    2.554240   -0.613257
     40          1           0        7.191085    1.888275   -0.780846
     41          1           0        6.715836   -2.862177    1.495075
     42          1           0        4.364537   -2.233270    0.872715
     43          1           0       -3.220635   -2.781593   -0.823250
     44          1           0       -7.252533   -3.613188   -0.453705
 ---------------------------------------------------------------------
 Rotational constants (GHZ):      0.3665892      0.0346487      0.0323304
 Standard basis: 6-31++G(d,p) (6D, 7F)
 There are   698 symmetry adapted basis functions of A   symmetry.
 Integral buffers will be    131072 words long.
 Raffenetti 2 integral format.
 Two-electron integral symmetry is turned on.
   698 basis functions,  1247 primitive gaussians,   698 cartesian basis functions
   134 alpha electrons      134 beta electrons
       nuclear repulsion energy      4119.7275789821 Hartrees.
 NAtoms=   44 NActive=   44 NUniq=   44 SFac= 1.00D+00 NAtFMM=   60 NAOKFM=F Big=F
 One-electron integrals computed using PRISM.
 NBasis=   698 RedAO= T  NBF=   698
 NBsUse=   686 1.00D-06 NBFU=   686
 Harris functional with IExCor=  402 diagonalized for initial guess.
 ExpMin= 3.00D-02 ExpMax= 5.61D+05 ExpMxC= 5.42D+03 IAcc=3 IRadAn=         5 AccDes= 0.00D+00
 HarFok:  IExCor=  402 AccDes= 0.00D+00 IRadAn=         5 IDoV= 1
 ScaDFX=  1.000000  1.000000  1.000000  1.000000
 FoFCou: FMM=F IPFlag=           0 FMFlag=      100000 FMFlg1=           0
         NFxFlg=           0 DoJE=T BraDBF=F KetDBF=T FulRan=T
         Omega=  0.000000  0.000000  1.000000  0.000000  0.000000 ICntrl=     500 IOpCl=  0
         NMat0=    1 NMatS0=    1 NMatT0=    0 NMatD0=    1 NMtDS0=    0 NMtDT0=    0
         I1Cent=           4 NGrid=           0.
 Petite list used in FoFCou.
 Initial guess orbital symmetries:
       Occupied  (A) (A) (A) (A) (A) (A) (A) (A) (A) (A) (A) (A)
                 (A) (A) (A) (A) (A) (A) (A) (A) (A) (A) (A) (A)
                 (A) (A) (A) (A) (A) (A) (A) (A) (A) (A) (A) (A)
                 (A) (A) (A) (A) (A) (A) (A) (A) (A) (A) (A) (A)
                 (A) (A) (A) (A) (A) (A) (A) (A) (A) (A) (A) (A)
                 (A) (A) (A) (A) (A) (A) (A) (A) (A) (A) (A) (A)
                 (A) (A) (A) (A) (A) (A) (A) (A) (A) (A) (A) (A)
                 (A) (A) (A) (A) (A) (A) (A) (A) (A) (A) (A) (A)
                 (A) (A) (A) (A) (A) (A) (A) (A) (A) (A) (A) (A)
                 (A) (A) (A) (A) (A) (A) (A) (A) (A) (A) (A) (A)
                 (A) (A) (A) (A) (A) (A) (A) (A) (A) (A) (A) (A)
                 (A) (A)
       Virtual   (A) (A) (A) (A) (A) (A) (A) (A) (A) (A) (A) (A)
                 (A) (A) (A) (A) (A) (A) (A) (A) (A) (A) (A) (A)
                 (A) (A) (A) (A) (A) (A) (A) (A) (A) (A) (A) (A)
                 (A) (A) (A) (A) (A) (A) (A) (A) (A) (A) (A) (A)
                 (A) (A) (A) (A) (A) (A) (A) (A) (A) (A) (A) (A)
                 (A) (A) (A) (A) (A) (A) (A) (A) (A) (A) (A) (A)
                 (A) (A) (A) (A) (A) (A) (A) (A) (A) (A) (A) (A)
                 (A) (A) (A) (A) (A) (A) (A) (A) (A) (A) (A) (A)
                 (A) (A) (A) (A) (A) (A) (A) (A) (A) (A) (A) (A)
                 (A) (A) (A) (A) (A) (A) (A) (A) (A) (A) (A) (A)
                 (A) (A) (A) (A) (A) (A) (A) (A) (A) (A) (A) (A)
                 (A) (A) (A) (A) (A) (A) (A) (A) (A) (A) (A) (A)
                 (A) (A) (A) (A) (A) (A) (A) (A) (A) (A) (A) (A)
                 (A) (A) (A) (A) (A) (A) (A) (A) (A) (A) (A) (A)
                 (A) (A) (A) (A) (A) (A) (A) (A) (A) (A) (A) (A)
                 (A) (A) (A) (A) (A) (A) (A) (A) (A) (A) (A) (A)
                 (A) (A) (A) (A) (A) (A) (A) (A) (A) (A) (A) (A)
                 (A) (A) (A) (A) (A) (A) (A) (A) (A) (A) (A) (A)
                 (A) (A) (A) (A) (A) (A) (A) (A) (A) (A) (A) (A)
                 (A) (A) (A) (A) (A) (A) (A) (A) (A) (A) (A) (A)
                 (A) (A) (A) (A) (A) (A) (A) (A) (A) (A) (A) (A)
                 (A) (A) (A) (A) (A) (A) (A) (A) (A) (A) (A) (A)
                 (A) (A) (A) (A) (A) (A) (A) (A) (A) (A) (A) (A)
                 (A) (A) (A) (A) (A) (A) (A) (A) (A) (A) (A) (A)
                 (A) (A) (A) (A) (A) (A) (A) (A) (A) (A) (A) (A)
                 (A) (A) (A) (A) (A) (A) (A) (A) (A) (A) (A) (A)
                 (A) (A) (A) (A) (A) (A) (A) (A) (A) (A) (A) (A)
                 (A) (A) (A) (A) (A) (A) (A) (A) (A) (A) (A) (A)
                 (A) (A) (A) (A) (A) (A) (A) (A) (A) (A) (A) (A)
                 (A) (A) (A) (A) (A) (A) (A) (A) (A) (A) (A) (A)
                 (A) (A) (A) (A) (A) (A) (A) (A) (A) (A) (A) (A)
                 (A) (A) (A) (A) (A) (A) (A) (A) (A) (A) (A) (A)
                 (A) (A) (A) (A) (A) (A) (A) (A) (A) (A) (A) (A)
                 (A) (A) (A) (A) (A) (A) (A) (A) (A) (A) (A) (A)
                 (A) (A) (A) (A) (A) (A) (A) (A) (A) (A) (A) (A)
                 (A) (A) (A) (A) (A) (A) (A) (A) (A) (A) (A) (A)
                 (A) (A) (A) (A) (A) (A) (A) (A) (A) (A) (A) (A)
                 (A) (A) (A) (A) (A) (A) (A) (A) (A) (A) (A) (A)
                 (A) (A) (A) (A) (A) (A) (A) (A) (A) (A) (A) (A)
                 (A) (A) (A) (A) (A) (A) (A) (A) (A) (A) (A) (A)
                 (A) (A) (A) (A) (A) (A) (A) (A) (A) (A) (A) (A)
                 (A) (A) (A) (A) (A) (A) (A) (A) (A) (A) (A) (A)
                 (A) (A) (A) (A) (A) (A) (A) (A) (A) (A) (A) (A)
                 (A) (A) (A) (A) (A) (A) (A) (A) (A) (A) (A) (A)
                 (A) (A) (A) (A) (A) (A) (A) (A) (A) (A) (A) (A)
                 (A) (A) (A) (A) (A) (A) (A) (A) (A) (A) (A) (A)
 The electronic state of the initial guess is 1-A.
 Requested convergence on RMS density matrix=1.00D-08 within 128 cycles.
 Requested convergence on MAX density matrix=1.00D-06.
 Requested convergence on             energy=1.00D-06.
 No special actions if energy rises.
 SCF Done:  E(RB3LYP) =  -4930.10878943     A.U. after   18 cycles
             Convg  =    0.6948D-08             -V/T =  2.0012

 **********************************************************************

            Population analysis using the SCF density.

 **********************************************************************

 Orbital symmetries:
       Occupied  (A) (A) (A) (A) (A) (A) (A) (A) (A) (A) (A) (A)
                 (A) (A) (A) (A) (A) (A) (A) (A) (A) (A) (A) (A)
                 (A) (A) (A) (A) (A) (A) (A) (A) (A) (A) (A) (A)
                 (A) (A) (A) (A) (A) (A) (A) (A) (A) (A) (A) (A)
                 (A) (A) (A) (A) (A) (A) (A) (A) (A) (A) (A) (A)
                 (A) (A) (A) (A) (A) (A) (A) (A) (A) (A) (A) (A)
                 (A) (A) (A) (A) (A) (A) (A) (A) (A) (A) (A) (A)
                 (A) (A) (A) (A) (A) (A) (A) (A) (A) (A) (A) (A)
                 (A) (A) (A) (A) (A) (A) (A) (A) (A) (A) (A) (A)
                 (A) (A) (A) (A) (A) (A) (A) (A) (A) (A) (A) (A)
                 (A) (A) (A) (A) (A) (A) (A) (A) (A) (A) (A) (A)
                 (A) (A)
       Virtual   (A) (A) (A) (A) (A) (A) (A) (A) (A) (A) (A) (A)
                 (A) (A) (A) (A) (A) (A) (A) (A) (A) (A) (A) (A)
                 (A) (A) (A) (A) (A) (A) (A) (A) (A) (A) (A) (A)
                 (A) (A) (A) (A) (A) (A) (A) (A) (A) (A) (A) (A)
                 (A) (A) (A) (A) (A) (A) (A) (A) (A) (A) (A) (A)
                 (A) (A) (A) (A) (A) (A) (A) (A) (A) (A) (A) (A)
                 (A) (A) (A) (A) (A) (A) (A) (A) (A) (A) (A) (A)
                 (A) (A) (A) (A) (A) (A) (A) (A) (A) (A) (A) (A)
                 (A) (A) (A) (A) (A) (A) (A) (A) (A) (A) (A) (A)
                 (A) (A) (A) (A) (A) (A) (A) (A) (A) (A) (A) (A)
                 (A) (A) (A) (A) (A) (A) (A) (A) (A) (A) (A) (A)
                 (A) (A) (A) (A) (A) (A) (A) (A) (A) (A) (A) (A)
                 (A) (A) (A) (A) (A) (A) (A) (A) (A) (A) (A) (A)
                 (A) (A) (A) (A) (A) (A) (A) (A) (A) (A) (A) (A)
                 (A) (A) (A) (A) (A) (A) (A) (A) (A) (A) (A) (A)
                 (A) (A) (A) (A) (A) (A) (A) (A) (A) (A) (A) (A)
                 (A) (A) (A) (A) (A) (A) (A) (A) (A) (A) (A) (A)
                 (A) (A) (A) (A) (A) (A) (A) (A) (A) (A) (A) (A)
                 (A) (A) (A) (A) (A) (A) (A) (A) (A) (A) (A) (A)
                 (A) (A) (A) (A) (A) (A) (A) (A) (A) (A) (A) (A)
                 (A) (A) (A) (A) (A) (A) (A) (A) (A) (A) (A) (A)
                 (A) (A) (A) (A) (A) (A) (A) (A) (A) (A) (A) (A)
                 (A) (A) (A) (A) (A) (A) (A) (A) (A) (A) (A) (A)
                 (A) (A) (A) (A) (A) (A) (A) (A) (A) (A) (A) (A)
                 (A) (A) (A) (A) (A) (A) (A) (A) (A) (A) (A) (A)
                 (A) (A) (A) (A) (A) (A) (A) (A) (A) (A) (A) (A)
                 (A) (A) (A) (A) (A) (A) (A) (A) (A) (A) (A) (A)
                 (A) (A) (A) (A) (A) (A) (A) (A) (A) (A) (A) (A)
                 (A) (A) (A) (A) (A) (A) (A) (A) (A) (A) (A) (A)
                 (A) (A) (A) (A) (A) (A) (A) (A) (A) (A) (A) (A)
                 (A) (A) (A) (A) (A) (A) (A) (A) (A) (A) (A) (A)
                 (A) (A) (A) (A) (A) (A) (A) (A) (A) (A) (A) (A)
                 (A) (A) (A) (A) (A) (A) (A) (A) (A) (A) (A) (A)
                 (A) (A) (A) (A) (A) (A) (A) (A) (A) (A) (A) (A)
                 (A) (A) (A) (A) (A) (A) (A) (A) (A) (A) (A) (A)
                 (A) (A) (A) (A) (A) (A) (A) (A) (A) (A) (A) (A)
                 (A) (A) (A) (A) (A) (A) (A) (A) (A) (A) (A) (A)
                 (A) (A) (A) (A) (A) (A) (A) (A) (A) (A) (A) (A)
                 (A) (A) (A) (A) (A) (A) (A) (A) (A) (A) (A) (A)
                 (A) (A) (A) (A) (A) (A) (A) (A) (A) (A) (A) (A)
                 (A) (A) (A) (A) (A) (A) (A) (A) (A) (A) (A) (A)
                 (A) (A) (A) (A) (A) (A) (A) (A) (A) (A) (A) (A)
                 (A) (A) (A) (A) (A) (A) (A) (A) (A) (A) (A) (A)
                 (A) (A) (A) (A) (A) (A) (A) (A) (A) (A) (A) (A)
                 (A) (A) (A) (A) (A) (A) (A) (A) (A) (A) (A) (A)
                 (A) (A) (A) (A) (A) (A) (A) (A) (A) (A) (A) (A)
 The electronic state is 1-A.
 Alpha  occ. eigenvalues -- -453.88851 -88.97253 -88.88386 -88.88151 -66.00060
 Alpha  occ. eigenvalues --  -57.49544 -52.16733 -52.16568 -52.16401 -14.35419
 Alpha  occ. eigenvalues --  -14.35071 -14.34943 -10.25762 -10.25206 -10.24259
 Alpha  occ. eigenvalues --  -10.23134 -10.22984 -10.21262 -10.20572 -10.20008
 Alpha  occ. eigenvalues --  -10.19986 -10.19823 -10.19767 -10.19644 -10.19504
 Alpha  occ. eigenvalues --  -10.18879 -10.18842 -10.18802 -10.18337 -10.17807
 Alpha  occ. eigenvalues --  -10.17767 -10.17395 -10.17315 -10.12734 -10.12607
 Alpha  occ. eigenvalues --   -8.04634  -7.98508  -7.98044  -7.75857  -6.01059
 Alpha  occ. eigenvalues --   -6.00427  -6.00229  -5.94723  -5.94246  -5.94034
 Alpha  occ. eigenvalues --   -5.93937  -5.93589  -5.93525  -5.80208  -5.79462
 Alpha  occ. eigenvalues --   -5.79120  -5.20306  -3.56332  -3.55796  -3.55417
 Alpha  occ. eigenvalues --   -2.16700  -2.15915  -2.15343  -2.14944  -2.14770
 Alpha  occ. eigenvalues --   -1.17163  -1.06287  -1.06173  -0.99694  -0.97310
 Alpha  occ. eigenvalues --   -0.95582  -0.90332  -0.89540  -0.86130  -0.83824
 Alpha  occ. eigenvalues --   -0.82259  -0.79630  -0.77953  -0.76940  -0.76772
 Alpha  occ. eigenvalues --   -0.75130  -0.73509  -0.69779  -0.68908  -0.67411
 Alpha  occ. eigenvalues --   -0.65309  -0.64794  -0.62722  -0.61047  -0.60359
 Alpha  occ. eigenvalues --   -0.59449  -0.58650  -0.57620  -0.56433  -0.55322
 Alpha  occ. eigenvalues --   -0.54503  -0.53877  -0.52986  -0.51922  -0.51850
 Alpha  occ. eigenvalues --   -0.50628  -0.49741  -0.48841  -0.47964  -0.47106
 Alpha  occ. eigenvalues --   -0.46718  -0.45725  -0.44814  -0.44675  -0.43741
 Alpha  occ. eigenvalues --   -0.43524  -0.42934  -0.42282  -0.41656  -0.40853
 Alpha  occ. eigenvalues --   -0.40393  -0.39560  -0.38785  -0.38179  -0.37331
 Alpha  occ. eigenvalues --   -0.36955  -0.35186  -0.34614  -0.34010  -0.33172
 Alpha  occ. eigenvalues --   -0.32178  -0.31884  -0.31041  -0.30158  -0.29393
 Alpha  occ. eigenvalues --   -0.29095  -0.28274  -0.27859  -0.26871  -0.26193
 Alpha  occ. eigenvalues --   -0.25701  -0.24807  -0.23040  -0.20372
 Alpha virt. eigenvalues --   -0.07719  -0.06083  -0.04672  -0.03184  -0.01651
 Alpha virt. eigenvalues --   -0.01293  -0.00742  -0.00525  -0.00082   0.00302
 Alpha virt. eigenvalues --    0.00846   0.01038   0.01395   0.01746   0.01755
 Alpha virt. eigenvalues --    0.01877   0.02328   0.02492   0.03118   0.03266
 Alpha virt. eigenvalues --    0.03299   0.03436   0.04183   0.04482   0.04557
 Alpha virt. eigenvalues --    0.04823   0.05352   0.05545   0.05695   0.06111
 Alpha virt. eigenvalues --    0.06449   0.06520   0.06976   0.07092   0.07432
 Alpha virt. eigenvalues --    0.07833   0.08400   0.08526   0.08819   0.09124
 Alpha virt. eigenvalues --    0.09177   0.09452   0.09598   0.09885   0.10173
 Alpha virt. eigenvalues --    0.10329   0.10617   0.10946   0.10979   0.11100
 Alpha virt. eigenvalues --    0.11307   0.11425   0.11719   0.11933   0.12216
 Alpha virt. eigenvalues --    0.12495   0.12625   0.12741   0.13008   0.13127
 Alpha virt. eigenvalues --    0.13184   0.13324   0.13394   0.13625   0.13818
 Alpha virt. eigenvalues --    0.14015   0.14111   0.14493   0.14735   0.15032
 Alpha virt. eigenvalues --    0.15116   0.15250   0.15432   0.15747   0.16113
 Alpha virt. eigenvalues --    0.16142   0.16396   0.16544   0.16684   0.16966
 Alpha virt. eigenvalues --    0.17317   0.17491   0.17743   0.17833   0.17956
 Alpha virt. eigenvalues --    0.18084   0.18431   0.18599   0.18987   0.19145
 Alpha virt. eigenvalues --    0.19434   0.19551   0.19639   0.19936   0.19996
 Alpha virt. eigenvalues --    0.20341   0.20819   0.20998   0.21243   0.21519
 Alpha virt. eigenvalues --    0.21820   0.21992   0.22251   0.22376   0.22596
 Alpha virt. eigenvalues --    0.23031   0.23245   0.23431   0.23545   0.23966
 Alpha virt. eigenvalues --    0.24107   0.24220   0.24616   0.25140   0.25291
 Alpha virt. eigenvalues --    0.25359   0.25668   0.25816   0.26199   0.26417
 Alpha virt. eigenvalues --    0.26888   0.27114   0.27324   0.27490   0.27684
 Alpha virt. eigenvalues --    0.27978   0.28344   0.28761   0.28979   0.29354
 Alpha virt. eigenvalues --    0.29569   0.29824   0.30126   0.30221   0.30445
 Alpha virt. eigenvalues --    0.30623   0.30879   0.31078   0.31622   0.31955
 Alpha virt. eigenvalues --    0.32168   0.32369   0.32494   0.32768   0.32974
 Alpha virt. eigenvalues --    0.33674   0.34017   0.34326   0.34382   0.34931
 Alpha virt. eigenvalues --    0.35257   0.35568   0.35747   0.36277   0.36804
 Alpha virt. eigenvalues --    0.37324   0.37467   0.37804   0.38375   0.38625
 Alpha virt. eigenvalues --    0.39176   0.39673   0.39955   0.40439   0.40509
 Alpha virt. eigenvalues --    0.40800   0.41292   0.41584   0.42302   0.42602
 Alpha virt. eigenvalues --    0.43427   0.44083   0.44545   0.45209   0.45604
 Alpha virt. eigenvalues --    0.46077   0.46779   0.47788   0.48186   0.49250
 Alpha virt. eigenvalues --    0.50025   0.50116   0.51355   0.51895   0.52067
 Alpha virt. eigenvalues --    0.53256   0.53376   0.54716   0.55391   0.55832
 Alpha virt. eigenvalues --    0.56743   0.58538   0.59222   0.59997   0.61433
 Alpha virt. eigenvalues --    0.62370   0.62844   0.63669   0.64819   0.65007
 Alpha virt. eigenvalues --    0.66038   0.66599   0.67485   0.67721   0.68330
 Alpha virt. eigenvalues --    0.68851   0.68952   0.69412   0.69986   0.70281
 Alpha virt. eigenvalues --    0.70403   0.70994   0.71343   0.72056   0.72344
 Alpha virt. eigenvalues --    0.72591   0.72747   0.73045   0.73479   0.73609
 Alpha virt. eigenvalues --    0.74049   0.74436   0.75248   0.75376   0.75761
 Alpha virt. eigenvalues --    0.75990   0.76435   0.76764   0.77558   0.77916
 Alpha virt. eigenvalues --    0.78308   0.78624   0.78857   0.79221   0.79686
 Alpha virt. eigenvalues --    0.79971   0.80320   0.81038   0.81515   0.82148
 Alpha virt. eigenvalues --    0.82330   0.83272   0.83854   0.84238   0.84627
 Alpha virt. eigenvalues --    0.84919   0.85227   0.86205   0.86438   0.86703
 Alpha virt. eigenvalues --    0.87388   0.87759   0.88305   0.88970   0.90034
 Alpha virt. eigenvalues --    0.90417   0.91529   0.92161   0.92356   0.92576
 Alpha virt. eigenvalues --    0.92798   0.93374   0.93879   0.95072   0.95535
 Alpha virt. eigenvalues --    0.96765   0.96913   0.97311   0.97818   0.98191
 Alpha virt. eigenvalues --    0.98811   0.99072   1.00189   1.00521   1.01430
 Alpha virt. eigenvalues --    1.01865   1.02320   1.03536   1.04440   1.04466
 Alpha virt. eigenvalues --    1.05355   1.05793   1.06791   1.07143   1.08370
 Alpha virt. eigenvalues --    1.08647   1.09395   1.10059   1.10782   1.11895
 Alpha virt. eigenvalues --    1.13796   1.14362   1.14584   1.14738   1.15456
 Alpha virt. eigenvalues --    1.17010   1.17877   1.19190   1.19758   1.20350
 Alpha virt. eigenvalues --    1.21256   1.21454   1.21896   1.22195   1.22702
 Alpha virt. eigenvalues --    1.23957   1.24373   1.25346   1.26120   1.26475
 Alpha virt. eigenvalues --    1.27026   1.28437   1.28952   1.29852   1.30623
 Alpha virt. eigenvalues --    1.31070   1.31570   1.32025   1.32710   1.33052
 Alpha virt. eigenvalues --    1.33362   1.33852   1.34419   1.34858   1.35622
 Alpha virt. eigenvalues --    1.36010   1.36602   1.37959   1.38210   1.38570
 Alpha virt. eigenvalues --    1.39026   1.39375   1.39495   1.40356   1.41283
 Alpha virt. eigenvalues --    1.42204   1.42848   1.44003   1.45400   1.46207
 Alpha virt. eigenvalues --    1.47130   1.47310   1.47934   1.49037   1.50613
 Alpha virt. eigenvalues --    1.52047   1.52621   1.54246   1.54875   1.56103
 Alpha virt. eigenvalues --    1.58375   1.59660   1.60629   1.61467   1.63553
 Alpha virt. eigenvalues --    1.63787   1.64195   1.66398   1.67009   1.68169
 Alpha virt. eigenvalues --    1.69236   1.70463   1.71490   1.75312   1.76667
 Alpha virt. eigenvalues --    1.77511   1.78311   1.79093   1.79871   1.80619
 Alpha virt. eigenvalues --    1.81302   1.81646   1.82901   1.84868   1.85292
 Alpha virt. eigenvalues --    1.88707   1.89061   1.89146   1.90184   1.91706
 Alpha virt. eigenvalues --    1.92042   1.92873   1.93516   1.93764   1.94560
 Alpha virt. eigenvalues --    1.95162   1.96251   1.96853   1.97321   1.99319
 Alpha virt. eigenvalues --    2.00378   2.01402   2.01833   2.02387   2.03535
 Alpha virt. eigenvalues --    2.04321   2.05396   2.06280   2.07484   2.08432
 Alpha virt. eigenvalues --    2.09733   2.09946   2.10870   2.11116   2.11351
 Alpha virt. eigenvalues --    2.14098   2.15245   2.15907   2.17421   2.18014
 Alpha virt. eigenvalues --    2.18608   2.19104   2.19310   2.20964   2.22250
 Alpha virt. eigenvalues --    2.22989   2.26430   2.27947   2.28328   2.28975
 Alpha virt. eigenvalues --    2.29666   2.30256   2.30692   2.31144   2.32366
 Alpha virt. eigenvalues --    2.32622   2.33393   2.35670   2.37170   2.38141
 Alpha virt. eigenvalues --    2.39431   2.40532   2.41402   2.41925   2.42233
 Alpha virt. eigenvalues --    2.44159   2.45823   2.46669   2.47234   2.47666
 Alpha virt. eigenvalues --    2.48801   2.49887   2.50500   2.53258   2.53813
 Alpha virt. eigenvalues --    2.54988   2.56011   2.56171   2.56631   2.57352
 Alpha virt. eigenvalues --    2.58638   2.59390   2.60518   2.61054   2.61982
 Alpha virt. eigenvalues --    2.62389   2.63335   2.64074   2.65112   2.65359
 Alpha virt. eigenvalues --    2.66760   2.66990   2.67761   2.68051   2.69598
 Alpha virt. eigenvalues --    2.70243   2.71605   2.72690   2.73097   2.74048
 Alpha virt. eigenvalues --    2.75046   2.75932   2.76527   2.78354   2.78541
 Alpha virt. eigenvalues --    2.79149   2.79635   2.80624   2.81519   2.82450
 Alpha virt. eigenvalues --    2.82777   2.83505   2.83816   2.85090   2.87294
 Alpha virt. eigenvalues --    2.89133   2.90112   2.91839   2.94857   2.96330
 Alpha virt. eigenvalues --    2.97579   2.99780   3.01414   3.01888   3.05931
 Alpha virt. eigenvalues --    3.09219   3.12300   3.16106   3.18981   3.19110
 Alpha virt. eigenvalues --    3.19873   3.21420   3.22406   3.26092   3.33413
 Alpha virt. eigenvalues --    3.35770   3.36472   3.40878   3.44969   3.46092
 Alpha virt. eigenvalues --    3.49855   3.51772   3.54184   3.55272   3.59041
 Alpha virt. eigenvalues --    3.64457   3.69765   3.78101   3.85615   3.89841
 Alpha virt. eigenvalues --    3.96495   3.99750   4.08206   4.10308   4.27210
 Alpha virt. eigenvalues --    4.27447   4.32566   4.33481   4.35062   4.39219
 Alpha virt. eigenvalues --    4.39500   4.41200   4.42912   4.43011   4.44794
 Alpha virt. eigenvalues --    4.45168   4.48102   4.50327   4.52420   4.53359
 Alpha virt. eigenvalues --    4.56254   4.59765   4.62197   4.69013   4.75971
 Alpha virt. eigenvalues --    4.79164   4.82340   4.92584   5.00344   5.02771
 Alpha virt. eigenvalues --    8.52912  83.46232
          Condensed to atoms (all electrons):
              1          2          3          4          5          6
     1  Si  15.613800  -0.021496  -0.230539   1.675947  -0.553393  -0.279749
     2  H   -0.021496   1.010961  -0.046256  -0.205351   0.126122   0.053340
     3  H   -0.230539  -0.046256   1.113478  -0.612472   0.386076   0.022205
     4  C    1.675947  -0.205351  -0.612472  14.619299  -7.072468  -2.060772
     5  C   -0.553393   0.126122   0.386076  -7.072468  22.415372  -3.691510
     6  C   -0.279749   0.053340   0.022205  -2.060772  -3.691510  17.694293
     7  C   -0.060872   0.157543   0.267184   1.619573  -7.435331   1.425446
     8  C   -1.022270  -0.107967   0.074003   1.727437  -7.214159  -3.402372
     9  S   -0.205195  -0.000271  -0.058084   0.211328   0.703490   0.112366
    10  C   -0.264573   0.063540   0.177268  -2.775185   5.704012   1.086546
    11  C    0.038429   0.001905  -0.029783   1.674445  -1.491787   1.662111
    12  C    0.134877  -0.013676  -0.022360   0.873412   0.413922  -4.802459
    13  C    0.060428  -0.007492  -0.006609   0.339276  -0.147665  -1.327098
    14  C   -0.077009   0.004951   0.004259  -0.198764   0.821011  -3.122825
    15  C   -0.181296   0.015438   0.014905  -1.186980   0.997882   0.402263
    16  C   -0.534481   0.042150   0.089015  -2.763305   2.865789   3.148740
    17  C    0.000419  -0.000039  -0.000236   0.010571   0.098524  -0.044037
    18  S   -0.003044   0.000055   0.000124   0.000072   0.044509  -0.136021
    19  C   -0.000174   0.000025   0.000009  -0.001746   0.005378  -0.044283
    20  C    0.000019  -0.000006  -0.000008   0.000568  -0.002035   0.024852
    21  Se  -0.000029   0.000001   0.000002  -0.000058  -0.001235   0.000947
    22  C    0.000101  -0.000020  -0.000003   0.000598   0.001829   0.014397
    23  C    0.000797  -0.000141  -0.000041   0.008218  -0.001474   0.013363
    24  C   -0.001593   0.000177   0.000044  -0.003113   0.028163  -0.169356
    25  C   -0.738141   0.059915   0.165944   0.034588  -0.790176  -0.418867
    26  C   -0.428349   0.084538   0.086342   0.041305  -0.728173  -1.245012
    27  N   -0.001076   0.000217   0.000565  -0.002102   0.004729   0.017379
    28  C   -0.284234   0.033863   0.028398  -0.094095   0.079602   0.109741
    29  C   -0.033649   0.046682  -0.033738  -0.412419   0.551299   0.906181
    30  N    0.181276  -0.031559  -0.028456   0.074206  -0.054224  -0.036602
    31  S   -0.090607  -0.012595  -0.012234   0.058144  -0.065042  -0.074404
    32  N   -0.491626   0.057036   0.081164  -0.024473  -0.087989  -0.048871
    33  C    0.862298  -0.109378  -0.222138   0.510775   0.058712   0.345141
    34  H   -0.085943  -0.028304  -0.004064   0.398748  -0.178931   0.012690
    35  H    0.041077   0.008858  -0.011235   0.029601   0.561534  -0.394719
    36  H    0.004322  -0.002045  -0.000031   0.048310  -0.096921  -0.142356
    37  H   -0.001877   0.000366   0.000160  -0.017193   0.042753  -0.032352
    38  H    0.007057  -0.000255  -0.000747   0.031766  -0.057393   0.084281
    39  H   -0.059303  -0.001126   0.013640  -0.248406  -0.023288   0.207147
    40  H   -0.000001   0.000000   0.000000  -0.000050   0.000327  -0.000995
    41  H   -0.000005   0.000000   0.000000  -0.000014   0.000023  -0.000299
    42  H    0.000291  -0.000030  -0.000019   0.001515  -0.004098   0.010914
    43  H   -0.017831   0.004631   0.000842  -0.011085  -0.007818  -0.044846
    44  H   -0.003033   0.000300   0.000231  -0.000553  -0.000063  -0.000282
              7          8          9         10         11         12
     1  Si  -0.060872  -1.022270  -0.205195  -0.264573   0.038429   0.134877
     2  H    0.157543  -0.107967  -0.000271   0.063540   0.001905  -0.013676
     3  H    0.267184   0.074003  -0.058084   0.177268  -0.029783  -0.022360
     4  C    1.619573   1.727437   0.211328  -2.775185   1.674445   0.873412
     5  C   -7.435331  -7.214159   0.703490   5.704012  -1.491787   0.413922
     6  C    1.425446  -3.402372   0.112366   1.086546   1.662111  -4.802459
     7  C   15.453238   6.660044  -1.371283  -4.990429  -0.298400   0.545995
     8  C    6.660044  24.451141  -3.264314  -7.417354  -0.276703   1.154752
     9  S   -1.371283  -3.264314  27.188254   0.137557   1.319137  -0.042452
    10  C   -4.990429  -7.417354   0.137557  16.435208  -0.225156  -2.075411
    11  C   -0.298400  -0.276703   1.319137  -0.225156  27.037502  -2.052570
    12  C    0.545995   1.154752  -0.042452  -2.075411  -2.052570  24.693308
    13  C    0.908122   1.213803  -0.679645   0.401017  -8.039527   5.333000
    14  C   -0.256556   0.102442  -0.760650  -0.928672  -8.892663  -1.417909
    15  C   -0.841732  -0.892950  -0.580730  -1.044617  -3.823886  -8.049930
    16  C   -2.489307  -3.251548  -0.844582   1.911163   2.666967 -10.065589
    17  C   -0.004461  -0.102080  -0.125994  -0.222896  -0.608455   0.550148
    18  S   -0.007530  -0.005056  -0.075038  -0.076921  -0.849271   0.090823
    19  C   -0.007001   0.002866   0.003802  -0.016456  -0.375762  -0.167526
    20  C    0.006030  -0.005284  -0.009517  -0.017055   0.031317   0.784610
    21  Se   0.000410   0.000204  -0.002030   0.000780  -0.024339  -0.080189
    22  C    0.002279  -0.004042  -0.008606   0.029867   0.053307   0.258291
    23  C    0.008293   0.045550   0.026866   0.110459  -0.022006  -2.979597
    24  C   -0.001649  -0.036044  -0.071293  -0.041178  -1.146699   2.899496
    25  C    0.031900   4.090267  -0.218668   1.080259  -0.116675  -1.080219
    26  C   -1.789665  -1.015523  -4.164811  -0.933238   0.121522  -0.202021
    27  N   -0.020234   0.028599   0.039445   0.025626   0.013865  -0.014123
    28  C    0.707425   0.016072  -0.145170   0.025605  -0.002452   0.001819
    29  C   -0.120887  -3.484940   0.796188   0.645749  -0.181729   0.230326
    30  N   -0.194518  -0.000420  -0.011831  -0.068207   0.002347   0.002253
    31  S   -0.163105  -0.334854   0.024617  -0.009612  -0.000773   0.010672
    32  N    0.461874   0.241659  -0.178346  -0.059867   0.007625  -0.026777
    33  C   -1.443362  -2.415157  -0.028702  -0.583792  -0.003770   0.861393
    34  H    0.146117   0.098113  -0.049641  -0.037970  -0.057580  -0.017381
    35  H   -0.175142  -0.098671  -0.063039  -0.062178   0.085496   0.169871
    36  H    0.174765   0.280610  -0.145218  -0.136464  -0.993716   0.416436
    37  H   -0.054488  -0.087586   0.049633  -0.083665   0.367200   1.104430
[...]
 0052,-0.00000086,-0.00000263,-0.00002091,-0.00000221,-0.00001501,-0.00
 002705,0.00005822,-0.00002662,0.00002518,0.00000052,0.00001090,-0.0000
 0330,-0.00000313,-0.00315926,-0.13982675,0.11792834,0.00000946,0.00000
 897,0.00001026,-0.00000260,-0.00000124,-0.00000128,-0.00000185,-0.0000
 0171,-0.00000201,-0.00000530,-0.00000530,-0.00000234,0.00000613,0.0000
 0429,-0.00000847,-0.00000132,0.00000221,0.00000209,-0.00000887,0.00000
 296,-0.00000916,-0.00000014,-0.00001033,0.00000300,-0.00000363,-0.0000
 0106,0.00000124,0.00000022,0.00000947,-0.00000350,0.00003908,-0.000007
 10,-0.00004527,-0.00004773,0.00007574,-0.00000899,0.00008522,-0.000071
 68,0.00002136,0.00005809,0.00003257,-0.00002769,-0.00001257,0.00004547
 ,-0.00001526,-0.00003116,-0.00005365,0.00002221,0.00084045,-0.00024714
 ,0.00041232,-0.00104576,-0.00034030,-0.00025080,0.00203940,0.00026291,
 0.00066109,-0.00216459,0.00073603,-0.00122176,0.00132862,0.00082293,-0
 .00357646,-0.06961900,0.00315325,0.10828936,0.00004366,-0.00377308,0.0
 0979731,0.00667237,0.00426267,0.00377504,0.00000262,0.00001142,-0.0000
 0429,-0.00000278,-0.00000438,-0.00000412,-0.00000294,0.00000370,0.0000
 0128,0.00000388,-0.00000384,-0.00000013,-0.00000213,0.00000169,-0.0000
 0332,-0.00000072,-0.00000189,-0.00000076,0.00000035,0.00000285,0.00000
 109,-0.00000175,-0.00000232,-0.00000215,0.00000194,-0.00000454,0.00001
 170,-0.00000191,-0.00000044,0.00000286,0.00000271,-0.00000153,-0.00000
 042,0.00001355,0.00001466,0.00001227,0.00000018,-0.00001992,-0.0000448
 7,0.00000677,-0.00000124,0.00002092,-0.00000558,0.00000345,-0.00000282
 ,-0.00008175,-0.00003503,-0.00000781,0.06576748,0.00000333,0.00000472,
 -0.00000009,-0.00000052,-0.00000075,0.00000018,-0.00000055,-0.00000106
 ,0.,0.00000045,-0.00000128,0.00000074,0.00000030,0.00000105,-0.0000014
 7,-0.00000498,-0.00000188,0.00000784,-0.00000259,-0.00000429,0.0000017
 5,0.00000016,-0.00000721,0.00000173,-0.00000007,-0.00000015,-0.0000019
 0,0.00000566,0.00000242,-0.00000987,0.00002508,0.00000656,-0.00001233,
 0.00000290,0.00002339,-0.00000716,0.00000759,0.00000651,0.00002778,0.0
 0001435,0.00002115,-0.00004436,-0.00003776,0.00001183,0.00001035,0.000
 01545,-0.00003583,0.00002390,0.00001113,0.00126111,-0.00020355,-0.0001
 8497,0.00007804,-0.00049519,0.00007026,0.00132748,0.00061484,-0.000083
 71,-0.00482416,0.00209502,-0.00611913,-0.00091114,0.01639034,0.0004992
 4,-0.04783981,0.01558975,0.00699940,0.00713625,-0.02173308,0.00414251,
 -0.00336201,-0.00090690,0.00000183,0.00000601,-0.00000282,-0.00000007,
 -0.00000345,0.00000063,-0.00000125,0.00000181,0.00000076,0.00000110,-0
 .00000297,0.00000035,-0.00000119,0.00000112,-0.00000422,0.00000011,-0.
 00000056,0.00000109,0.00000011,0.00000076,0.00000051,-0.00000017,-0.00
 000029,-0.00000416,-0.00000013,-0.00000287,0.00000429,-0.00000029,-0.0
 0000026,0.00000028,-0.00000184,0.00000029,0.00000084,-0.00000400,-0.00
 001309,0.00000537,0.00003911,0.00002794,-0.00001711,0.00000981,0.00000
 153,-0.00000024,-0.00000264,-0.00000357,-0.00000500,0.00001726,0.00002
 305,-0.00007809,-0.00360130,0.04655837,0.00000384,0.00000568,0.0000010
 1,-0.00000080,-0.00000106,0.00000025,-0.00000077,-0.00000128,-0.000000
 42,0.00000033,-0.00000303,0.00000090,0.00000047,0.00000122,-0.00000276
 ,0.00000073,-0.00000607,0.00000846,-0.00000295,0.00000189,-0.00000386,
 -0.00000234,-0.00001148,0.00000808,-0.00000092,-0.00000198,0.00000075,
 -0.00000634,0.00001646,-0.00001181,0.00002771,-0.00001403,-0.00001350,
 -0.00001963,0.00003366,0.00000651,0.00002585,-0.00005097,0.00000035,0.
 00003458,0.00012380,-0.00002455,0.00000267,-0.00003089,-0.00001896,-0.
 00000459,-0.00001092,0.00000743,0.00039186,0.00018873,-0.00033206,-0.0
 0032733,-0.00024337,-0.00013260,0.00075294,0.00003496,0.00039508,-0.00
 111136,0.00044208,-0.00007824,0.00207834,-0.00121203,-0.00418832,0.110
 32230,0.00880048,-0.31817660,0.00180503,0.00518349,-0.00590371,0.00355
 302,-0.00105097,0.00125065,0.00000329,0.00001014,-0.00000471,-0.000002
 13,-0.00000461,-0.00000004,-0.00000170,0.00000396,0.00000121,0.0000023
 9,-0.00000392,0.00000021,-0.00000176,0.00000088,-0.00000364,-0.0000005
 2,-0.00000143,0.00000124,0.00000090,0.00000119,0.00000112,-0.00000102,
 -0.00000055,-0.00000288,0.00000073,-0.00000210,0.00000182,-0.00000026,
 -0.00000009,0.00000033,-0.00000026,-0.00000015,-0.00000093,-0.00000018
 ,-0.00001026,0.00000577,0.00002399,0.00000099,-0.00003628,-0.00000842,
 0.00000218,0.00000849,0.00000038,-0.00000135,-0.00000079,-0.00001605,-
 0.00002190,-0.00002804,-0.11584129,-0.01134377,0.32741166,0.00002280,0
 .00003022,0.00001076,-0.00000414,-0.00000620,-0.00000195,-0.00000307,-
 0.00000624,-0.00000239,-0.00000789,-0.00001292,-0.00000926,0.00000623,
 0.00002132,-0.00000074,0.00000310,-0.00000314,0.00001699,-0.00002260,-
 0.00000742,0.00000427,0.00000268,-0.00002772,-0.00000608,-0.00000509,-
 0.00000395,0.00000035,-0.00001894,0.00002292,-0.00001205,-0.00001584,0
 .00006099,-0.00001560,-0.00012524,0.00004698,0.00005928,0.00047019,0.0
 0021606,-0.00009679,-0.00009587,0.00004375,0.00007260,-0.00015266,0.00
 000100,0.00000370,0.00002214,0.00002636,0.00003308,-0.00043809,-0.0002
 5555,-0.00090087,-0.00025699,-0.00018797,0.00003268,0.00040856,-0.0004
 6896,0.00008517,0.00050331,0.00027573,0.00272866,0.00439798,0.00290433
 ,0.00227963,0.00414119,0.01264911,-0.00438877,-0.04210797,0.04130739,-
 0.00889675,0.00340888,-0.00927676,0.00259869,0.00000594,0.00002453,0.0
 0000553,-0.00000447,-0.00001060,0.00000028,-0.00000524,0.00000837,0.00
 000159,0.00000572,-0.00000841,0.00000003,-0.00000504,-0.00000024,-0.00
 000392,-0.00000206,-0.00000451,0.00000083,0.00000147,0.00000668,0.0000
 0130,-0.00000295,-0.00000499,-0.00000585,0.00000268,-0.00000719,-0.000
 00013,-0.00000322,0.00000028,0.00000042,-0.00000662,-0.00000757,0.0000
 1028,0.00001547,-0.00003157,-0.00000519,0.00002385,-0.00027318,-0.0001
 8257,-0.00000651,-0.00000124,0.00001800,0.00000206,0.00000318,0.000016
 57,0.00002381,0.00000738,0.00019900,-0.00388073,-0.00182095,-0.0016823
 5,0.03369948,0.00001328,-0.00001128,0.00000504,-0.00000291,0.00000287,
 -0.00000237,-0.00000256,0.00000255,0.00000003,-0.00000763,0.00000483,-
 0.00000708,0.00000670,0.00000918,-0.00000027,0.00000281,0.00000147,0.0
 0001634,-0.00001031,-0.00000489,0.00001057,0.00000734,0.00001515,-0.00
 000364,-0.00001133,-0.00000473,0.00000426,0.00000978,-0.00000944,-0.00
 002999,0.00004817,-0.00002755,0.00008067,0.00014016,-0.00009461,-0.000
 08608,-0.00055008,-0.00065642,-0.00057090,0.00000315,0.00030436,-0.000
 03285,-0.00002843,0.00003631,0.00010039,-0.00000678,-0.00000072,-0.000
 01987,-0.00013368,-0.00049984,-0.00029128,-0.00010863,-0.00003691,0.00
 012950,0.00016453,-0.00007132,0.00013668,0.00068347,0.00055137,-0.0002
 5738,0.00207379,-0.00018913,-0.00039960,0.00299786,-0.01624715,0.01007
 622,0.04026190,-0.29063067,0.11005632,0.00079139,-0.00047583,-0.000471
 76,-0.00001057,-0.00001625,0.00000040,0.00000925,0.00000159,0.00000144
 ,-0.00000102,-0.00000248,-0.00000164,-0.00000094,0.00000368,0.00000126
 ,0.00000239,0.00000239,-0.00000022,0.00000316,0.00000402,0.00000072,-0
 .00000451,-0.00000153,0.00000094,0.00000018,0.00000030,-0.00000455,-0.
 00000039,0.00000103,-0.00000323,-0.00000257,-0.00000008,-0.00000037,-0
 .00000071,-0.00000101,0.00000877,-0.00003009,-0.00003034,-0.00005136,0
 .00024419,-0.00062712,-0.00100979,-0.00000365,-0.00000074,0.00000917,-
 0.00000615,0.00000429,-0.00000077,-0.00003829,0.00002461,-0.00001600,-
 0.00126975,0.00051519,-0.00082393,-0.04523008,0.30815513,0.00002108,-0
 .00004422,0.00000564,-0.00000573,0.00001105,-0.00000423,-0.00000570,0.
 00001035,0.00000143,-0.00001970,0.00001829,-0.00000420,0.00001014,0.00
 000017,-0.00000749,-0.00000490,0.00004310,-0.00000049,-0.00003093,0.00
 000389,-0.00001047,0.00002525,0.00001784,0.00001314,-0.00001090,-0.000
 00980,-0.00001089,-0.00002906,-0.00005650,0.00001322,-0.00019134,-0.00
 008844,0.00005705,-0.00004159,-0.00032204,0.00019376,0.00072908,-0.000
 16065,0.00011512,-0.00005876,0.00058834,-0.00040712,0.00022803,-0.0003
 5626,-0.00002087,-0.00009676,0.00024373,-0.00001121,-0.00070946,-0.000
 39840,0.00106244,0.00003617,0.00041111,-0.00042256,-0.00026459,0.00130
 147,-0.00004665,0.00258510,0.00033911,-0.00451616,0.00290346,-0.003041
 57,0.00091228,0.00354478,-0.01468912,0.00907057,-0.00855080,0.10949620
 ,-0.10010603,-0.00572034,0.02384781,-0.00372246,-0.00002259,-0.0000349
 3,-0.00000548,0.00002066,0.00000274,-0.00000181,-0.00000275,-0.0000015
 0,-0.00000068,-0.00000247,0.00000887,0.00000070,0.00000591,0.00000741,
 0.00000258,0.00000760,0.00001185,0.00000009,-0.00000930,-0.00000756,0.
 00000020,-0.00000081,0.00000338,0.00000040,0.00000106,0.00000349,0.000
 00128,-0.00000392,-0.00000149,0.00000080,0.00001261,0.00000275,0.00000
 724,0.00004292,0.00000179,0.00003364,-0.00057289,-0.00070971,-0.000817
 53,-0.00007771,0.00001436,0.00002578,-0.00000302,-0.00000663,0.0000084
 7,0.00019761,-0.00000339,-0.00038597,-0.00196365,0.00009473,-0.0001450
 5,0.00803384,-0.11655277,0.09911832,-0.00007054,0.00053672,0.00009927,
 0.00002821,-0.00009038,-0.00000007,0.00002083,-0.00008818,-0.00001958,
 0.00019499,-0.00001367,0.00003614,-0.00004513,-0.00021928,0.00002680,0
 .00053430,0.00014399,0.00006552,0.00040153,-0.00005967,-0.00003388,-0.
 00018789,0.00187592,0.00010322,-0.00021512,-0.00126549,0.00050447,-0.0
 0040333,-0.00094676,-0.00051991,0.00020499,-0.00003161,0.00000557,-0.0
 0001454,-0.00000668,0.00001586,0.00001201,0.00003652,-0.00002659,-0.00
 000214,-0.00003434,-0.00000731,-0.00000651,0.00002059,-0.00001894,-0.0
 0005399,0.00006792,0.00003291,-0.00000109,-0.00000193,0.00002201,-0.00
 000780,-0.00001790,0.00000951,-0.00001019,0.00003900,0.00000731,-0.000
 00808,0.00000043,-0.00003338,0.00000198,0.00001439,-0.00000434,-0.0000
 0214,-0.00002655,0.00001753,-0.00001017,0.00001184,0.00001069,0.000024
 21,0.00000862,-0.00002406,-0.01654631,0.02177232,0.00326801,-0.2006791
 0,0.14092986,0.02298030,0.01305619,-0.01276250,-0.00214331,0.00131975,
 -0.00413212,-0.00031176,-0.00048549,-0.00068096,-0.00007613,0.00040900
 ,0.00010705,0.00001528,-0.00054720,0.00015733,-0.00002530,-0.00080577,
 0.00125267,0.00014322,-0.00410870,-0.00307762,0.00000155,0.00002169,-0
 .00001138,-0.00000759,0.00001972,0.00001081,0.00000593,0.00004213,-0.0
 0000335,-0.00000855,-0.00000652,0.00001011,0.00000426,0.00000248,0.000
 01517,0.00000101,0.00000027,-0.00001015,0.00001152,0.00000276,0.000002
 40,0.00000519,0.00000233,0.00000086,0.00000132,0.00000307,-0.00000191,
 -0.00000451,0.20765185,-0.00004857,-0.00001109,-0.00002075,0.00000881,
 0.00000806,0.00000811,0.00001274,0.00000723,0.00000327,0.00002511,0.00
 001463,0.00001506,0.00001258,0.00004438,-0.00003842,0.00005218,-0.0004
 4014,-0.00003153,0.00047023,0.00030722,0.00016766,-0.00023955,0.000548
 52,0.00032289,-0.00107331,-0.00305295,0.00014130,-0.00084709,0.0000515
 4,-0.00001053,0.00003090,0.00008691,-0.00000179,0.00002424,0.00000449,
 -0.00000836,-0.00000235,0.00000703,-0.00001004,0.00000448,-0.00000567,
 0.00000295,-0.00000954,0.00000439,0.00000319,-0.00000166,-0.00000480,0
 .00001744,-0.00000350,0.00000409,0.00000260,-0.00000178,-0.00000264,0.
 00000302,-0.00000039,0.00000524,0.00000236,-0.00000601,-0.00000198,-0.
 00000759,-0.00000001,0.00000317,0.00000023,0.00000014,-0.00000121,0.00
 000189,-0.00000453,-0.00000021,0.00000057,0.00000987,0.00000103,-0.000
 00256,-0.00565837,0.00781188,0.00036754,0.13945324,-0.18479077,-0.0229
 3673,0.01460344,-0.03440877,-0.00443085,-0.00176098,-0.00314012,-0.001
 20936,-0.00051208,-0.00023017,-0.00000418,0.00024595,0.00008860,0.0000
 2069,-0.00000897,0.00018131,0.00021860,-0.00027769,0.00058026,-0.00002
 733,-0.00191597,-0.00015673,-0.00099464,-0.00000197,0.00001250,0.,0.00
 000395,0.00000443,0.00000096,-0.00001001,-0.00001831,0.00000671,-0.000
 00249,0.00000076,-0.00000217,-0.00000082,0.00000104,-0.00000100,0.0000
 0188,-0.00000036,0.00000183,0.00000094,0.00000039,0.00000056,0.0000016
 5,-0.00000002,0.00000034,0.00000083,-0.00000070,0.00000010,-0.14323286
 ,0.21710155,0.00006143,-0.00010081,0.00013261,0.00000692,0.00000319,-0
 .00001163,-0.00003950,0.00001681,-0.00001476,-0.00001053,-0.00001811,-
 0.00003307,-0.00008371,-0.00001581,0.00013721,-0.00016828,0.00035309,-
 0.00018563,-0.00041139,-0.00027409,-0.00018500,0.00013007,0.00071736,-
 0.00299996,0.00010152,0.00018295,0.00145222,0.00040156,0.00013120,-0.0
 0055461,-0.00002384,0.00011651,-0.00006672,-0.00001854,0.00000605,0.00
 003837,-0.00000172,-0.00005589,0.00003248,0.00002780,0.00001657,-0.000
 03309,0.00000452,0.00004599,0.00001721,-0.00002517,-0.00003693,-0.0000
 0596,-0.00000648,-0.00000852,-0.00001256,0.00000620,0.00000762,-0.0000
 0443,0.00000797,-0.00000966,-0.00000206,-0.00001512,-0.00000583,0.0000
 0432,0.00000464,-0.00000251,-0.00000194,0.00000542,0.00000968,-0.00000
 842,-0.00000645,-0.00000931,-0.00000229,0.00000870,0.00000361,0.000021
 93,-0.00044835,-0.00096018,0.00641812,0.02332885,-0.02308011,-0.044693
 18,0.00122692,-0.00385177,-0.00091091,0.00011489,-0.00104641,0.0060620
 5,-0.00021386,0.00003507,-0.00048545,0.00009983,-0.00000683,-0.0002117
 6,-0.00003880,0.00016539,-0.00132401,0.00004445,-0.00010550,0.00087875
 ,-0.00001784,-0.00064772,0.00749478,-0.00000163,0.00000075,-0.00000645
 ,-0.00000005,0.00000121,-0.00000203,-0.00000750,-0.00001877,-0.0000039
 0,0.00000212,-0.00000133,0.00000090,0.00000007,0.00000195,0.00000420,-
 0.00000099,-0.00000452,0.00000329,-0.00000162,0.00000092,-0.00000133,0
 .00000304,-0.00000181,-0.00000156,-0.00000244,-0.00000117,0.00000291,-
 0.02412197,0.02857531,0.02855657,-0.00007727,0.00029632,0.00006746,0.0
 0001650,-0.00005415,-0.00001041,0.00000693,-0.00007367,-0.00001302,0.0
 0005583,-0.00002948,-0.00000032,-0.00005816,-0.00003173,-0.00001032,-0
 .00005554,0.00016761,0.00000476,-0.00006164,-0.00012300,-0.00002676,0.
 00040810,0.00015089,0.00001308,0.00002059,-0.00010644,-0.00000665,0.00
 014632,-0.00001785,0.00001011,0.00000040,-0.00000922,-0.00000037,0.000
 00967,0.00000552,-0.00000046,0.00000126,0.00000858,-0.00000805,0.00000
 504,-0.00000860,0.00000111,-0.00000492,0.00000723,0.00000948,-0.000012
 76,0.00000315,0.00000186,-0.00000282,0.00000349,0.00000635,-0.00000377
 ,-0.00000584,0.00000274,-0.00000546,0.00001173,0.00000197,0.00000369,0
 .00000271,-0.00000867,-0.00000115,0.00000345,-0.00000163,-0.00000120,-
 0.00000834,0.00000483,-0.00000083,0.00000460,0.00000429,0.00000522,-0.
 00000033,-0.00001100,-0.00075956,0.00044143,0.00005031,-0.00023686,0.0
 0422337,0.00072784,0.01239405,0.02470808,0.00272735,-0.11150541,-0.112
 66229,-0.01269500,-0.00786081,-0.02841554,-0.00324122,0.00277685,0.000
 24544,-0.00003117,-0.00055518,-0.00060421,-0.00006729,-0.00169397,-0.0
 0123902,-0.00013133,-0.00404457,0.00260715,0.00038978,0.00000202,-0.00
 000505,-0.00000064,0.00000952,-0.00000130,0.00000342,0.00000105,-0.000
 00212,-0.00000172,-0.00000173,0.00000214,0.00000052,0.00000060,0.00000
 273,0.00000012,-0.00000230,-0.00000301,-0.00000147,0.00000146,0.000000
 66,0.00000169,0.00000029,0.00000013,0.00000030,0.00000064,-0.00000056,
 -0.00000110,0.00026347,0.00065735,0.00007883,0.11081642,0.00004725,0.0
 0001217,-0.00000390,-0.00000934,-0.00000734,-0.00000252,0.00000048,0.0
 0000492,0.00000505,-0.00001686,-0.00000424,-0.00000509,0.00000520,-0.0
 0000047,-0.00000889,-0.00009825,0.00004719,-0.00004486,-0.00008492,-0.
 00014458,0.00001173,-0.00010679,0.00012892,0.00025072,0.00002891,-0.00
 002093,-0.00004236,0.00008502,0.00005710,0.00004069,-0.00002253,0.0000
 1276,0.00000273,0.00000702,-0.00000254,-0.00000460,-0.00000264,-0.0000
 0049,0.00000156,-0.00000140,0.00000310,0.00000132,0.00000077,-0.000002
 10,0.00000237,0.00000185,-0.00001026,-0.00000228,0.00000027,0.00000245
 ,-0.00000280,0.00000108,0.00000296,-0.00000133,0.00000312,-0.00000633,
 -0.00000016,-0.00000308,-0.00000140,0.00000355,0.00000098,-0.00000198,
 0.00000147,0.00000050,0.00000518,-0.00000315,-0.00000029,-0.00000306,-
 0.00000242,-0.00000078,-0.00000141,0.00000479,-0.00024225,-0.00060518,
 0.00000680,0.00206411,0.00040976,-0.00149442,-0.00008984,-0.02982800,-
 0.00285131,-0.11155186,-0.27785607,-0.02782831,0.00073210,0.00078364,-
 0.00072877,-0.00040124,0.00074516,0.00027102,-0.00084932,-0.00021994,0
 .00007500,0.00022130,0.00045045,0.00002529,0.00074524,0.00060542,-0.00
 046438,-0.00000313,-0.00000321,0.00000038,-0.00000512,-0.00000573,0.00
 000126,-0.00000354,0.00000173,0.00000433,0.00000104,-0.00000018,-0.000
 00074,-0.00000068,-0.00000185,0.00000007,-0.00000029,0.00000130,-0.000
 00190,-0.00000063,-0.00000045,-0.00000104,-0.00000013,0.00000005,0.,-0
 .00000009,0.00000040,0.00000101,-0.00029922,-0.00061400,-0.00012763,0.
 10984798,0.30606711,-0.00004506,-0.00001064,0.00009709,0.00003837,0.00
 004338,-0.00000192,-0.00003887,-0.00005762,-0.00004248,0.00000203,-0.0
 0000838,0.00000424,-0.00002807,-0.00001143,0.00002464,-0.00011464,0.00
 005758,0.00025323,0.00000497,-0.00012645,-0.00022366,-0.00005665,0.000
 31437,-0.00184723,-0.00002033,-0.00000214,0.00011104,0.00011352,0.0000
 6090,-0.00002356,0.00000818,-0.00001584,-0.00001829,-0.00000590,0.0000
 0663,0.00000462,0.00000115,-0.00000831,0.00000197,0.00000468,0.0000031
 2,-0.00000507,-0.00000223,0.00000620,0.00000528,0.00000032,0.00000345,
 -0.00000353,-0.00000059,-0.00000182,0.00000096,0.,-0.00000080,-0.00000
 089,-0.00000181,0.00000275,0.00000079,-0.00000027,0.00000113,-0.000001
 64,-0.00000066,0.00000102,-0.00000088,0.00000109,-0.00000214,0.0000007
 7,-0.00000184,-0.00000018,0.00000019,0.00000312,-0.00000037,-0.0000006
 0,-0.00002512,-0.00012745,-0.00048741,0.00036913,-0.00156054,0.0119467
 4,-0.00003305,-0.00324936,-0.00678278,-0.01272345,-0.02774482,-0.04059
 397,0.00034070,-0.00040566,0.00663705,-0.00013590,0.00030421,-0.001426
 32,-0.00010061,0.00006445,-0.00068561,0.00011825,0.00000915,0.00020059
 ,0.00017631,-0.00031591,0.00421935,0.00000019,-0.00000037,-0.00000069,
 0.00000121,0.00000691,-0.00001970,-0.00000105,-0.00000028,-0.00000186,
 0.00000029,-0.00000004,0.00000102,0.00000039,0.00000102,0.00000098,-0.
 00000165,-0.00000062,-0.00000038,0.00000034,0.00000031,0.00000053,0.00
 000018,0.00000005,0.,0.00000014,0.00000015,0.00000027,-0.00000723,-0.0
 0014735,0.00050481,0.01216039,0.03291173,0.02815230\\-0.00003218,0.000
 01282,-0.00000691,-0.00000202,0.00000348,0.00000257,-0.00000126,0.0000
 0187,-0.00000236,0.00000792,-0.00001548,0.00001086,0.00000052,0.000005
 90,-0.00000238,-0.00000704,0.00000819,0.00000168,0.00004667,-0.0000310
 2,-0.00001794,-0.00003107,0.00003027,0.00001208,0.00002706,-0.00001637
 ,0.00000381,-0.00000810,-0.00000901,0.00000997,0.00000142,0.00000528,-
 0.00000973,0.00000202,0.00000116,-0.00000109,-0.00000773,-0.00001201,0
 .00000254,0.00001246,0.00001134,-0.00000064,-0.00000393,0.00000044,0.0
 0000357,-0.00000112,-0.00000292,0.00000042,0.00000535,-0.00000473,-0.0
 0001790,0.00003510,-0.00005529,-0.00003124,-0.00001440,0.00005675,0.00
 003073,-0.00002968,0.00001236,0.00002397,0.00001834,-0.00001528,-0.000
 01785,-0.00001176,0.00001415,0.00000589,0.00003018,-0.00001487,-0.0000
 0769,-0.00002879,0.00000172,0.00000834,-0.00000183,-0.00000360,-0.0000
 0281,0.00000578,0.00000671,-0.00000068,-0.00000172,-0.00000326,-0.0000
 0783,0.00000176,0.00000095,0.00000970,-0.00000676,0.00000791,-0.000003
 95,0.00000222,-0.00000743,-0.00000300,0.00001480,-0.00002097,-0.000002
 61,0.00000074,0.00002070,0.00000601,-0.00000815,0.00000077,-0.00000715
 ,-0.00000074,0.00000738,-0.00000029,-0.00000240,0.00000117,0.00000176,
 -0.00000223,0.00000003,0.00000035,0.00000043,-0.00000015,0.00000276,0.
 00000164,0.00000019,-0.00000022,0.00000296,0.00000118,0.00000176,-0.00
 000403,0.00000077,0.,0.00000162,-0.00000259,0.00000312,-0.00001098,0.0
 0000163,0.00000582,-0.00000115,0.00000087,0.00000057,0.00000007,-0.000
 00100,-0.00000400\\\@


 We find comfort among those who agree with us -- growth among those who don't.
 -- Frank A. Clark
 Job cpu time:  1 days  3 hours 15 minutes  6.4 seconds.
 File lengths (MBytes):  RWF=   2356 Int=      0 D2E=      0 Chk=     36 Scr=      1
 Normal termination of Gaussian 09 at Mon Dec 30 05:55:18 2013.
