 Entering Gaussian System, Link 0=g09
 Initial command:
 /opt/gaussian/g09/l1.exe /panfs/panfs.cluster/home/shuo/Gau-8114.inp -scrdir=/panfs/panfs.cluster/home/shuo/
 Default is to use a total of  12 processors:
                               12 via shared-memory
                                1 via Linda
 Entering Link 1 = /opt/gaussian/g09/l1.exe PID=      8115.
  
 Copyright (c) 1988,1990,1992,1993,1995,1998,2003,2009,2011,
            Gaussian, Inc.  All Rights Reserved.
  
 This is part of the Gaussian(R) 09 program.  It is based on
 the Gaussian(R) 03 system (copyright 2003, Gaussian, Inc.),
 the Gaussian(R) 98 system (copyright 1998, Gaussian, Inc.),
 the Gaussian(R) 94 system (copyright 1995, Gaussian, Inc.),
 the Gaussian 92(TM) system (copyright 1992, Gaussian, Inc.),
 the Gaussian 90(TM) system (copyright 1990, Gaussian, Inc.),
 the Gaussian 88(TM) system (copyright 1988, Gaussian, Inc.),
 the Gaussian 86(TM) system (copyright 1986, Carnegie Mellon
 University), and the Gaussian 82(TM) system (copyright 1983,
 Carnegie Mellon University). Gaussian is a federally registered
 trademark of Gaussian, Inc.
  
 This software contains proprietary and confidential information,
 including trade secrets, belonging to Gaussian, Inc.
  
 This software is provided under written license and may be
 used, copied, transmitted, or stored only in accord with that
 written license.
  
 The following legend is applicable only to US Government
 contracts under FAR:
  
                    RESTRICTED RIGHTS LEGEND
  
 Use, reproduction and disclosure by the US Government is
 subject to restrictions as set forth in subparagraphs (a)
 and (c) of the Commercial Computer Software - Restricted
 Rights clause in FAR 52.227-19.
  
 Gaussian, Inc.
 340 Quinnipiac St., Bldg. 40, Wallingford CT 06492
  
  
 ---------------------------------------------------------------
 Warning -- This program may not be used in any manner that
 competes with the business of Gaussian, Inc. or will provide
 assistance to any competitor of Gaussian, Inc.  The licensee
 of this program is prohibited from giving any competitor of
 Gaussian, Inc. access to this program.  By using this program,
 the user acknowledges that Gaussian, Inc. is engaged in the
 business of creating and licensing software in the field of
 computational chemistry and represents and warrants to the
 licensee that it is not a competitor of Gaussian, Inc. and that
 it will not use this program in any manner prohibited above.
 ---------------------------------------------------------------
  

 Cite this work as:
 Gaussian 09, Revision C.01,
 M. J. Frisch, G. W. Trucks, H. B. Schlegel, G. E. Scuseria, 
 M. A. Robb, J. R. Cheeseman, G. Scalmani, V. Barone, B. Mennucci, 
 G. A. Petersson, H. Nakatsuji, M. Caricato, X. Li, H. P. Hratchian, 
 A. F. Izmaylov, J. Bloino, G. Zheng, J. L. Sonnenberg, M. Hada, 
 M. Ehara, K. Toyota, R. Fukuda, J. Hasegawa, M. Ishida, T. Nakajima, 
 Y. Honda, O. Kitao, H. Nakai, T. Vreven, J. A. Montgomery, Jr., 
 J. E. Peralta, F. Ogliaro, M. Bearpark, J. J. Heyd, E. Brothers, 
 K. N. Kudin, V. N. Staroverov, T. Keith, R. Kobayashi, J. Normand, 
 K. Raghavachari, A. Rendell, J. C. Burant, S. S. Iyengar, J. Tomasi, 
 M. Cossi, N. Rega, J. M. Millam, M. Klene, J. E. Knox, J. B. Cross, 
 V. Bakken, C. Adamo, J. Jaramillo, R. Gomperts, R. E. Stratmann, 
 O. Yazyev, A. J. Austin, R. Cammi, C. Pomelli, J. W. Ochterski, 
 R. L. Martin, K. Morokuma, V. G. Zakrzewski, G. A. Voth, 
 P. Salvador, J. J. Dannenberg, S. Dapprich, A. D. Daniels, 
 O. Farkas, J. B. Foresman, J. V. Ortiz, J. Cioslowski, 
 and D. J. Fox, Gaussian, Inc., Wallingford CT, 2010.
 
 ******************************************
 Gaussian 09:  EM64L-G09RevC.01 23-Sep-2011
                29-Dec-2013 
 ******************************************
 %chk=31_C20H13N5S2Si.chk
 %NProcShared=12
 Will use up to   12 processors via shared memory.
 %Mem=8000MB
 Default route:  MaxDisk=100GB
 --------------------------------------------
 #B3LYP/6-31++G(d,p) opt scf=direct freq test
 --------------------------------------------
 1/14=-1,18=20,19=15,26=3,38=1/1,3;
 2/9=110,12=2,17=6,18=5,40=1/2;
 3/5=1,6=6,7=1111,11=2,16=1,25=1,30=1,71=1,74=-5/1,2,3;
 4//1;
 5/5=2,38=5/2;
 6/7=2,8=2,9=2,10=2,28=1/1;
 7//1,2,3,16;
 1/14=-1,18=20,19=15/3(2);
 2/9=110/2;
 99//99;
 2/9=110/2;
 3/5=1,6=6,7=1111,11=2,16=1,25=1,30=1,71=1,74=-5/1,2,3;
 4/5=5,16=3/1;
 5/5=2,38=5/2;
 7//1,2,3,16;
 1/14=-1,18=20,19=15/3(-5);
 2/9=110/2;
 6/7=2,8=2,9=2,10=2,19=2,28=1/1;
 99/9=1/99;
 ----------------------------------------------------------------------
 Geom opt of No.31 candidate from the CEPDB database with SMILE code of
  [SiH2]1C=c2c(cc3c4cocc4c4c5cnccc5sc4c3c2=C1)-c1cncc2nsnc12, HPC, 2013
 1227, Shuo Dai, Gaussian09
 ----------------------------------------------------------------------
 Charge =  0 Multiplicity = 1
 Symbolic Z-Matrix:
 Si                    3.64112  -1.42336   1.69057 
 H                     4.62346  -2.13474   0.78207 
 H                     4.80849  -0.51251   2.01227 
 C                     2.83698   0.49076   1.1303 
 C                     3.44148   0.58829  -0.0591 
 C                     4.76713   1.27849  -0.61332 
 C                     5.67292   0.122    -0.94484 
 C                     5.10901  -0.26073  -2.25776 
 C                     5.62681  -1.66291  -2.5867 
 C                     7.14133  -1.97379  -2.44362 
 O                     7.52353  -2.38179  -3.76658 
 C                     6.71277  -1.50304  -4.62364 
 C                     5.31596  -1.80531  -4.05935 
 C                     3.83588  -1.2683   -4.25128 
 C                     3.08192  -1.58103  -5.48118 
 C                     3.43007  -1.56795  -6.95777 
 N                     2.32186  -0.81618  -7.48631 
 C                     1.02515  -1.55404  -7.16326 
 C                     0.49626  -1.64381  -5.73073 
 C                     1.57435  -0.88585  -5.1301 
 S                     1.29794  -0.59795  -3.44517 
 C                     3.02831  -0.18051  -3.51905 
 C                     3.51116  -0.11829  -2.15919 
 C                     3.03845  -0.56386  -0.85667 
 C                     2.5261   -1.71403  -0.24074 
 C                     5.46542   2.30735   0.13138 
 C                     6.74359   2.79277  -0.17558 
 N                     7.41162   3.73039   0.54676 
 C                     6.83991   4.26609   1.67035 
 C                     5.53258   3.89614   2.01735 
 N                     4.80929   4.26943   3.0869 
 S                     3.32865   3.53259   2.95044 
 N                     3.52367   2.90802   1.45945 
 C                     4.8246    2.97415   1.16367 
 H                     1.7591    0.27234   1.07874 
 H                     4.55814   1.85137  -1.54974 
 H                     5.5375   -0.72947  -0.28748 
 H                     6.75008   0.27302  -0.9548 
 H                     5.44381   0.45531  -3.02886 
 H                     5.07542  -2.42936  -2.03048 
 H                     7.33088  -2.74416  -1.68065 
 H                     7.83355  -1.15483  -2.21412 
 H                     6.92323  -1.80282  -5.6507 
 H                     7.1092   -0.49388  -4.44662 
 H                     5.23772  -2.88269  -4.26059 
 H                     3.41408  -2.07517  -3.60548 
 H                     3.34382  -2.64417  -5.38962 
 H                     3.39502  -2.56225  -7.4451 
 H                     4.38099  -1.10529  -7.2262 
 H                     2.42406   0.07252  -6.97684 
 H                     1.07689  -2.58271  -7.5141 
 H                     0.30823  -0.94989  -7.7006 
 H                     0.47491  -2.59172  -5.16866 
 H                    -0.5116   -1.20351  -5.63933 
 H                     1.48007   0.16274  -5.48533 
 H                     3.03299   0.83118  -3.97565 
 H                     3.06191   0.91017  -2.07782 
 H                     1.85294  -1.87764   0.59868 
 H                     7.30052   2.44128  -1.0545 
 H                     7.39818   4.98542   2.23699 
 

 GradGradGradGradGradGradGradGradGradGradGradGradGradGradGradGradGradGrad
 Berny optimization.
 Initialization pass.
                           ----------------------------
                           !    Initial Parameters    !
                           ! (Angstroms and Degrees)  !
 --------------------------                            --------------------------
 ! Name  Definition              Value          Derivative Info.                !
 --------------------------------------------------------------------------------
 ! R1    R(1,2)                  1.5154         estimate D2E/DX2                !
 ! R2    R(1,3)                  1.5152         estimate D2E/DX2                !
 ! R3    R(1,4)                  2.1504         estimate D2E/DX2                !
 ! R4    R(1,25)                 2.2489         estimate D2E/DX2                !
 ! R5    R(4,5)                  1.3378         estimate D2E/DX2                !
 ! R6    R(4,35)                 1.101          estimate D2E/DX2                !
 ! R7    R(5,6)                  1.594          estimate D2E/DX2                !
 ! R8    R(5,24)                 1.4581         estimate D2E/DX2                !
 ! R9    R(6,7)                  1.5059         estimate D2E/DX2                !
 ! R10   R(6,26)                 1.4494         estimate D2E/DX2                !
 ! R11   R(6,36)                 1.1175         estimate D2E/DX2                !
 ! R12   R(7,8)                  1.4793         estimate D2E/DX2                !
 ! R13   R(7,37)                 1.0842         estimate D2E/DX2                !
 ! R14   R(7,38)                 1.0877         estimate D2E/DX2                !
 ! R15   R(8,9)                  1.5305         estimate D2E/DX2                !
 ! R16   R(8,23)                 1.6072         estimate D2E/DX2                !
 ! R17   R(8,39)                 1.1043         estimate D2E/DX2                !
 ! R18   R(9,10)                 1.5527         estimate D2E/DX2                !
 ! R19   R(9,13)                 1.5118         estimate D2E/DX2                !
 ! R20   R(9,40)                 1.0958         estimate D2E/DX2                !
 ! R21   R(10,11)                1.4362         estimate D2E/DX2                !
 ! R22   R(10,41)                1.1007         estimate D2E/DX2                !
 ! R23   R(10,42)                1.0966         estimate D2E/DX2                !
 ! R24   R(11,12)                1.4711         estimate D2E/DX2                !
 ! R25   R(12,13)                1.5365         estimate D2E/DX2                !
 ! R26   R(12,43)                1.0904         estimate D2E/DX2                !
 ! R27   R(12,44)                1.0986         estimate D2E/DX2                !
 ! R28   R(13,14)                1.5861         estimate D2E/DX2                !
 ! R29   R(13,45)                1.0988         estimate D2E/DX2                !
 ! R30   R(14,15)                1.4761         estimate D2E/DX2                !
 ! R31   R(14,22)                1.54           estimate D2E/DX2                !
 ! R32   R(14,46)                1.1162         estimate D2E/DX2                !
 ! R33   R(15,16)                1.5171         estimate D2E/DX2                !
 ! R34   R(15,20)                1.6968         estimate D2E/DX2                !
 ! R35   R(15,47)                1.0987         estimate D2E/DX2                !
 ! R36   R(16,17)                1.4397         estimate D2E/DX2                !
 ! R37   R(16,48)                1.1079         estimate D2E/DX2                !
 ! R38   R(16,49)                1.091          estimate D2E/DX2                !
 ! R39   R(17,18)                1.5265         estimate D2E/DX2                !
 ! R40   R(17,50)                1.0295         estimate D2E/DX2                !
 ! R41   R(18,19)                1.5297         estimate D2E/DX2                !
 ! R42   R(18,51)                1.0881         estimate D2E/DX2                !
 ! R43   R(18,52)                1.0806         estimate D2E/DX2                !
 ! R44   R(19,20)                1.4483         estimate D2E/DX2                !
 ! R45   R(19,53)                1.1022         estimate D2E/DX2                !
 ! R46   R(19,54)                1.1036         estimate D2E/DX2                !
 ! R47   R(20,21)                1.7316         estimate D2E/DX2                !
 ! R48   R(20,55)                1.1111         estimate D2E/DX2                !
 ! R49   R(21,22)                1.7815         estimate D2E/DX2                !
 ! R50   R(22,23)                1.4444         estimate D2E/DX2                !
 ! R51   R(22,56)                1.11           estimate D2E/DX2                !
 ! R52   R(23,24)                1.4555         estimate D2E/DX2                !
 ! R53   R(23,57)                1.1252         estimate D2E/DX2                !
 ! R54   R(24,25)                1.4017         estimate D2E/DX2                !
 ! R55   R(25,58)                1.0884         estimate D2E/DX2                !
 ! R56   R(26,27)                1.4013         estimate D2E/DX2                !
 ! R57   R(26,34)                1.386          estimate D2E/DX2                !
 ! R58   R(27,28)                1.3591         estimate D2E/DX2                !
 ! R59   R(27,59)                1.0983         estimate D2E/DX2                !
 ! R60   R(28,29)                1.3698         estimate D2E/DX2                !
 ! R61   R(29,30)                1.4023         estimate D2E/DX2                !
 ! R62   R(29,60)                1.0725         estimate D2E/DX2                !
 ! R63   R(30,31)                1.344          estimate D2E/DX2                !
 ! R64   R(30,34)                1.4422         estimate D2E/DX2                !
 ! R65   R(31,32)                1.6595         estimate D2E/DX2                !
 ! R66   R(32,33)                1.6282         estimate D2E/DX2                !
 ! R67   R(33,34)                1.3358         estimate D2E/DX2                !
 ! A1    A(2,1,3)               84.8395         estimate D2E/DX2                !
 ! A2    A(2,1,4)              120.2687         estimate D2E/DX2                !
 ! A3    A(2,1,25)              75.2786         estimate D2E/DX2                !
 ! A4    A(3,1,4)               78.9502         estimate D2E/DX2                !
 ! A5    A(3,1,25)             129.9411         estimate D2E/DX2                !
 ! A6    A(4,1,25)              72.8967         estimate D2E/DX2                !
 ! A7    A(1,4,5)               97.3287         estimate D2E/DX2                !
 ! A8    A(1,4,35)             101.6369         estimate D2E/DX2                !
 ! A9    A(5,4,35)             114.5328         estimate D2E/DX2                !
 ! A10   A(4,5,6)              135.7658         estimate D2E/DX2                !
 ! A11   A(4,5,24)             107.6874         estimate D2E/DX2                !
 ! A12   A(6,5,24)             112.4474         estimate D2E/DX2                !
 ! A13   A(5,6,7)              104.1368         estimate D2E/DX2                !
 ! A14   A(5,6,26)             121.9643         estimate D2E/DX2                !
 ! A15   A(5,6,36)             110.9651         estimate D2E/DX2                !
 ! A16   A(7,6,26)             111.621          estimate D2E/DX2                !
 ! A17   A(7,6,36)             108.7665         estimate D2E/DX2                !
 ! A18   A(26,6,36)             99.018          estimate D2E/DX2                !
 ! A19   A(6,7,8)               99.485          estimate D2E/DX2                !
 ! A20   A(6,7,37)             113.2356         estimate D2E/DX2                !
 ! A21   A(6,7,38)             119.408          estimate D2E/DX2                !
 ! A22   A(8,7,37)             106.6979         estimate D2E/DX2                !
 ! A23   A(8,7,38)             113.9096         estimate D2E/DX2                !
 ! A24   A(37,7,38)            103.785          estimate D2E/DX2                !
 ! A25   A(7,8,9)              107.3868         estimate D2E/DX2                !
 ! A26   A(7,8,23)             107.5552         estimate D2E/DX2                !
 ! A27   A(7,8,39)             109.659          estimate D2E/DX2                !
 ! A28   A(9,8,23)             115.5137         estimate D2E/DX2                !
 ! A29   A(9,8,39)             109.9629         estimate D2E/DX2                !
 ! A30   A(23,8,39)            106.6653         estimate D2E/DX2                !
 ! A31   A(8,9,10)             119.5793         estimate D2E/DX2                !
 ! A32   A(8,9,13)             103.0667         estimate D2E/DX2                !
 ! A33   A(8,9,40)             111.1897         estimate D2E/DX2                !
 ! A34   A(10,9,13)            105.7511         estimate D2E/DX2                !
 ! A35   A(10,9,40)            107.6971         estimate D2E/DX2                !
 ! A36   A(13,9,40)            108.9709         estimate D2E/DX2                !
 ! A37   A(9,10,11)            103.3892         estimate D2E/DX2                !
 ! A38   A(9,10,41)            111.8379         estimate D2E/DX2                !
 ! A39   A(9,10,42)            119.0437         estimate D2E/DX2                !
 ! A40   A(11,10,41)           113.1944         estimate D2E/DX2                !
 ! A41   A(11,10,42)           103.7065         estimate D2E/DX2                !
 ! A42   A(41,10,42)           105.5999         estimate D2E/DX2                !
 ! A43   A(10,11,12)           102.7267         estimate D2E/DX2                !
 ! A44   A(11,12,13)            99.7613         estimate D2E/DX2                !
 ! A45   A(11,12,43)           106.1501         estimate D2E/DX2                !
 ! A46   A(11,12,44)           104.8309         estimate D2E/DX2                !
 ! A47   A(13,12,43)           117.8586         estimate D2E/DX2                !
 ! A48   A(13,12,44)           116.7166         estimate D2E/DX2                !
 ! A49   A(43,12,44)           109.5522         estimate D2E/DX2                !
 ! A50   A(9,13,12)             98.7597         estimate D2E/DX2                !
 ! A51   A(9,13,14)            106.1315         estimate D2E/DX2                !
 ! A52   A(9,13,45)            106.5825         estimate D2E/DX2                !
 ! A53   A(12,13,14)           137.4974         estimate D2E/DX2                !
 ! A54   A(12,13,45)           100.9738         estimate D2E/DX2                !
 ! A55   A(14,13,45)           104.0848         estimate D2E/DX2                !
 ! A56   A(13,14,15)           120.3786         estimate D2E/DX2                !
 ! A57   A(13,14,22)           132.1396         estimate D2E/DX2                !
 ! A58   A(13,14,46)            92.1704         estimate D2E/DX2                !
 ! A59   A(15,14,22)           106.1389         estimate D2E/DX2                !
 ! A60   A(15,14,46)            97.8104         estimate D2E/DX2                !
 ! A61   A(22,14,46)            92.1402         estimate D2E/DX2                !
 ! A62   A(14,15,16)           133.7804         estimate D2E/DX2                !
 ! A63   A(14,15,20)           101.222          estimate D2E/DX2                !
 ! A64   A(14,15,47)            90.7915         estimate D2E/DX2                !
 ! A65   A(16,15,20)           113.6858         estimate D2E/DX2                !
 ! A66   A(16,15,47)            91.9913         estimate D2E/DX2                !
 ! A67   A(20,15,47)           126.2241         estimate D2E/DX2                !
 ! A68   A(15,16,17)           100.6712         estimate D2E/DX2                !
 ! A69   A(15,16,48)           114.4017         estimate D2E/DX2                !
 ! A70   A(15,16,49)           116.3032         estimate D2E/DX2                !
 ! A71   A(17,16,48)           106.428          estimate D2E/DX2                !
 ! A72   A(17,16,49)           111.0481         estimate D2E/DX2                !
 ! A73   A(48,16,49)           107.4539         estimate D2E/DX2                !
 ! A74   A(16,17,18)           108.8922         estimate D2E/DX2                !
 ! A75   A(16,17,50)           101.1091         estimate D2E/DX2                !
 ! A76   A(18,17,50)           113.3826         estimate D2E/DX2                !
 ! A77   A(17,18,19)           121.3492         estimate D2E/DX2                !
 ! A78   A(17,18,51)           110.3857         estimate D2E/DX2                !
 ! A79   A(17,18,52)           100.8415         estimate D2E/DX2                !
 ! A80   A(19,18,51)           105.2434         estimate D2E/DX2                !
 ! A81   A(19,18,52)           105.6108         estimate D2E/DX2                !
 ! A82   A(51,18,52)           113.5637         estimate D2E/DX2                !
 ! A83   A(18,19,20)            95.7559         estimate D2E/DX2                !
 ! A84   A(18,19,53)           122.3248         estimate D2E/DX2                !
 ! A85   A(18,19,54)           111.709          estimate D2E/DX2                !
 ! A86   A(20,19,53)           104.656          estimate D2E/DX2                !
 ! A87   A(20,19,54)           115.8906         estimate D2E/DX2                !
 ! A88   A(53,19,54)           106.45           estimate D2E/DX2                !
 ! A89   A(15,20,19)           111.1701         estimate D2E/DX2                !
 ! A90   A(15,20,21)           114.2848         estimate D2E/DX2                !
 ! A91   A(15,20,55)           113.3201         estimate D2E/DX2                !
 ! A92   A(19,20,21)           111.8229         estimate D2E/DX2                !
 ! A93   A(19,20,55)           107.3461         estimate D2E/DX2                !
 ! A94   A(21,20,55)            98.0849         estimate D2E/DX2                !
 ! A95   A(20,21,22)            80.9997         estimate D2E/DX2                !
 ! A96   A(14,22,21)           111.3178         estimate D2E/DX2                !
 ! A97   A(14,22,23)           107.6243         estimate D2E/DX2                !
 ! A98   A(14,22,56)           116.4881         estimate D2E/DX2                !
 ! A99   A(21,22,23)           107.2022         estimate D2E/DX2                !
 ! A100  A(21,22,56)           103.5753         estimate D2E/DX2                !
 ! A101  A(23,22,56)           110.2807         estimate D2E/DX2                !
 ! A102  A(8,23,22)            105.7113         estimate D2E/DX2                !
 ! A103  A(8,23,24)            110.5259         estimate D2E/DX2                !
 ! A104  A(8,23,57)            118.8395         estimate D2E/DX2                !
 ! A105  A(22,23,24)           136.1172         estimate D2E/DX2                !
 ! A106  A(22,23,57)            88.5094         estimate D2E/DX2                !
 ! A107  A(24,23,57)            94.9001         estimate D2E/DX2                !
 ! A108  A(5,24,23)             99.0813         estimate D2E/DX2                !
 ! A109  A(5,24,25)            120.6013         estimate D2E/DX2                !
 ! A110  A(23,24,25)           139.7406         estimate D2E/DX2                !
 ! A111  A(1,25,24)             95.168          estimate D2E/DX2                !
 ! A112  A(1,25,58)             70.3512         estimate D2E/DX2                !
 ! A113  A(24,25,58)           133.4984         estimate D2E/DX2                !
 ! A114  A(6,26,27)            124.9461         estimate D2E/DX2                !
 ! A115  A(6,26,34)            120.0959         estimate D2E/DX2                !
 ! A116  A(27,26,34)           114.7235         estimate D2E/DX2                !
 ! A117  A(26,27,28)           124.8129         estimate D2E/DX2                !
 ! A118  A(26,27,59)           121.8019         estimate D2E/DX2                !
 ! A119  A(28,27,59)           113.3826         estimate D2E/DX2                !
 ! A120  A(27,28,29)           120.0406         estimate D2E/DX2                !
 ! A121  A(28,29,30)           119.2695         estimate D2E/DX2                !
 ! A122  A(28,29,60)           118.5837         estimate D2E/DX2                !
 ! A123  A(30,29,60)           122.1075         estimate D2E/DX2                !
 ! A124  A(29,30,31)           128.7083         estimate D2E/DX2                !
 ! A125  A(29,30,34)           118.6745         estimate D2E/DX2                !
 ! A126  A(31,30,34)           112.607          estimate D2E/DX2                !
 ! A127  A(30,31,32)           106.9415         estimate D2E/DX2                !
 ! A128  A(31,32,33)            97.9757         estimate D2E/DX2                !
 ! A129  A(32,33,34)           107.4831         estimate D2E/DX2                !
 ! A130  A(26,34,30)           121.4301         estimate D2E/DX2                !
 ! A131  A(26,34,33)           126.2573         estimate D2E/DX2                !
 ! A132  A(30,34,33)           112.2511         estimate D2E/DX2                !
 ! D1    D(2,1,4,5)              2.1328         estimate D2E/DX2                !
 ! D2    D(2,1,4,35)           119.1274         estimate D2E/DX2                !
 ! D3    D(3,1,4,5)             79.419          estimate D2E/DX2                !
 ! D4    D(3,1,4,35)          -163.5864         estimate D2E/DX2                !
 ! D5    D(25,1,4,5)           -58.6956         estimate D2E/DX2                !
 ! D6    D(25,1,4,35)           58.299          estimate D2E/DX2                !
 ! D7    D(2,1,25,24)          -84.5017         estimate D2E/DX2                !
 ! D8    D(2,1,25,58)          140.944          estimate D2E/DX2                !
 ! D9    D(3,1,25,24)          -14.4581         estimate D2E/DX2                !
 ! D10   D(3,1,25,58)         -149.0123         estimate D2E/DX2                !
 ! D11   D(4,1,25,24)           44.2631         estimate D2E/DX2                !
 ! D12   D(4,1,25,58)          -90.2911         estimate D2E/DX2                !
 ! D13   D(1,4,5,6)            -96.1075         estimate D2E/DX2                !
 ! D14   D(1,4,5,24)            58.3225         estimate D2E/DX2                !
 ! D15   D(35,4,5,6)           157.4978         estimate D2E/DX2                !
 ! D16   D(35,4,5,24)          -48.0723         estimate D2E/DX2                !
 ! D17   D(4,5,6,7)            110.4671         estimate D2E/DX2                !
 ! D18   D(4,5,6,26)           -16.7651         estimate D2E/DX2                !
 ! D19   D(4,5,6,36)          -132.6747         estimate D2E/DX2                !
 ! D20   D(24,5,6,7)           -43.1145         estimate D2E/DX2                !
 ! D21   D(24,5,6,26)         -170.3467         estimate D2E/DX2                !
 ! D22   D(24,5,6,36)           73.7437         estimate D2E/DX2                !
 ! D23   D(4,5,24,23)          167.0222         estimate D2E/DX2                !
 ! D24   D(4,5,24,25)          -20.0504         estimate D2E/DX2                !
 ! D25   D(6,5,24,23)          -31.9903         estimate D2E/DX2                !
 ! D26   D(6,5,24,25)          140.9371         estimate D2E/DX2                !
 ! D27   D(5,6,7,8)             80.3266         estimate D2E/DX2                !
 ! D28   D(5,6,7,37)           -32.5503         estimate D2E/DX2                !
 ! D29   D(5,6,7,38)          -155.2111         estimate D2E/DX2                !
 ! D30   D(26,6,7,8)          -146.2749         estimate D2E/DX2                !
 ! D31   D(26,6,7,37)          100.8482         estimate D2E/DX2                !
 ! D32   D(26,6,7,38)          -21.8126         estimate D2E/DX2                !
 ! D33   D(36,6,7,8)           -38.0502         estimate D2E/DX2                !
 ! D34   D(36,6,7,37)         -150.927          estimate D2E/DX2                !
 ! D35   D(36,6,7,38)           86.4122         estimate D2E/DX2                !
 ! D36   D(5,6,26,27)          168.5218         estimate D2E/DX2                !
 ! D37   D(5,6,26,34)          -17.3447         estimate D2E/DX2                !
 ! D38   D(7,6,26,27)           44.6732         estimate D2E/DX2                !
 ! D39   D(7,6,26,34)         -141.1934         estimate D2E/DX2                !
 ! D40   D(36,6,26,27)         -69.7388         estimate D2E/DX2                !
 ! D41   D(36,6,26,34)         104.3947         estimate D2E/DX2                !
 ! D42   D(6,7,8,9)           -164.0742         estimate D2E/DX2                !
 ! D43   D(6,7,8,23)           -39.1525         estimate D2E/DX2                !
 ! D44   D(6,7,8,39)            76.4691         estimate D2E/DX2                !
 ! D45   D(37,7,8,9)           -46.1886         estimate D2E/DX2                !
 ! D46   D(37,7,8,23)           78.7332         estimate D2E/DX2                !
 ! D47   D(37,7,8,39)         -165.6453         estimate D2E/DX2                !
 ! D48   D(38,7,8,9)            67.7094         estimate D2E/DX2                !
 ! D49   D(38,7,8,23)         -167.3688         estimate D2E/DX2                !
 ! D50   D(38,7,8,39)          -51.7472         estimate D2E/DX2                !
 ! D51   D(7,8,9,10)           -48.5561         estimate D2E/DX2                !
 ! D52   D(7,8,9,13)          -165.4393         estimate D2E/DX2                !
 ! D53   D(7,8,9,40)            77.9514         estimate D2E/DX2                !
 ! D54   D(23,8,9,10)         -168.5339         estimate D2E/DX2                !
 ! D55   D(23,8,9,13)           74.5829         estimate D2E/DX2                !
 ! D56   D(23,8,9,40)          -42.0265         estimate D2E/DX2                !
 ! D57   D(39,8,9,10)           70.706          estimate D2E/DX2                !
 ! D58   D(39,8,9,13)          -46.1773         estimate D2E/DX2                !
 ! D59   D(39,8,9,40)         -162.7866         estimate D2E/DX2                !
 ! D60   D(7,8,23,22)          166.5185         estimate D2E/DX2                !
 ! D61   D(7,8,23,24)          -38.684          estimate D2E/DX2                !
 ! D62   D(7,8,23,57)           69.3925         estimate D2E/DX2                !
 ! D63   D(9,8,23,22)          -73.5958         estimate D2E/DX2                !
 ! D64   D(9,8,23,24)           81.2017         estimate D2E/DX2                !
 ! D65   D(9,8,23,57)         -170.7217         estimate D2E/DX2                !
 ! D66   D(39,8,23,22)          48.9357         estimate D2E/DX2                !
 ! D67   D(39,8,23,24)        -156.2668         estimate D2E/DX2                !
 ! D68   D(39,8,23,57)         -48.1902         estimate D2E/DX2                !
 ! D69   D(8,9,10,11)         -120.8592         estimate D2E/DX2                !
 ! D70   D(8,9,10,41)          117.0309         estimate D2E/DX2                !
 ! D71   D(8,9,10,42)           -6.605          estimate D2E/DX2                !
 ! D72   D(13,9,10,11)          -5.3789         estimate D2E/DX2                !
 ! D73   D(13,9,10,41)        -127.4888         estimate D2E/DX2                !
 ! D74   D(13,9,10,42)         108.8753         estimate D2E/DX2                !
 ! D75   D(40,9,10,11)         111.0155         estimate D2E/DX2                !
 ! D76   D(40,9,10,41)         -11.0945         estimate D2E/DX2                !
 ! D77   D(40,9,10,42)        -134.7303         estimate D2E/DX2                !
 ! D78   D(8,9,13,12)          100.2812         estimate D2E/DX2                !
 ! D79   D(8,9,13,14)          -44.9127         estimate D2E/DX2                !
 ! D80   D(8,9,13,45)         -155.4277         estimate D2E/DX2                !
 ! D81   D(10,9,13,12)         -26.0166         estimate D2E/DX2                !
 ! D82   D(10,9,13,14)        -171.2105         estimate D2E/DX2                !
 ! D83   D(10,9,13,45)          78.2745         estimate D2E/DX2                !
 ! D84   D(40,9,13,12)        -141.544          estimate D2E/DX2                !
 ! D85   D(40,9,13,14)          73.2621         estimate D2E/DX2                !
 ! D86   D(40,9,13,45)         -37.2529         estimate D2E/DX2                !
 ! D87   D(9,10,11,12)          36.593          estimate D2E/DX2                !
 ! D88   D(41,10,11,12)        157.7907         estimate D2E/DX2                !
 ! D89   D(42,10,11,12)        -88.2776         estimate D2E/DX2                !
 ! D90   D(10,11,12,13)        -54.248          estimate D2E/DX2                !
 ! D91   D(10,11,12,43)       -177.1671         estimate D2E/DX2                !
 ! D92   D(10,11,12,44)         66.9138         estimate D2E/DX2                !
 ! D93   D(11,12,13,9)          48.1081         estimate D2E/DX2                !
 ! D94   D(11,12,13,14)        173.857          estimate D2E/DX2                !
 ! D95   D(11,12,13,45)        -60.7981         estimate D2E/DX2                !
 ! D96   D(43,12,13,9)         162.3235         estimate D2E/DX2                !
 ! D97   D(43,12,13,14)        -71.9276         estimate D2E/DX2                !
 ! D98   D(43,12,13,45)         53.4173         estimate D2E/DX2                !
 ! D99   D(44,12,13,9)         -64.062          estimate D2E/DX2                !
 ! D100  D(44,12,13,14)         61.6869         estimate D2E/DX2                !
 ! D101  D(44,12,13,45)       -172.9682         estimate D2E/DX2                !
 ! D102  D(9,13,14,15)        -163.8629         estimate D2E/DX2                !
 ! D103  D(9,13,14,22)          31.3566         estimate D2E/DX2                !
 ! D104  D(9,13,14,46)         -63.5017         estimate D2E/DX2                !
 ! D105  D(12,13,14,15)         72.7525         estimate D2E/DX2                !
 ! D106  D(12,13,14,22)        -92.0281         estimate D2E/DX2                !
 ! D107  D(12,13,14,46)        173.1137         estimate D2E/DX2                !
 ! D108  D(45,13,14,15)        -51.5992         estimate D2E/DX2                !
 ! D109  D(45,13,14,22)        143.6202         estimate D2E/DX2                !
 ! D110  D(45,13,14,46)         48.7619         estimate D2E/DX2                !
 ! D111  D(13,14,15,16)        -44.6202         estimate D2E/DX2                !
 ! D112  D(13,14,15,20)        176.146          estimate D2E/DX2                !
 ! D113  D(13,14,15,47)         48.8983         estimate D2E/DX2                !
 ! D114  D(22,14,15,16)        123.6881         estimate D2E/DX2                !
 ! D115  D(22,14,15,20)        -15.5457         estimate D2E/DX2                !
 ! D116  D(22,14,15,47)       -142.7934         estimate D2E/DX2                !
 ! D117  D(46,14,15,16)       -141.7846         estimate D2E/DX2                !
 ! D118  D(46,14,15,20)         78.9816         estimate D2E/DX2                !
 ! D119  D(46,14,15,47)        -48.2661         estimate D2E/DX2                !
 ! D120  D(13,14,22,21)       -146.8074         estimate D2E/DX2                !
 ! D121  D(13,14,22,23)        -29.6089         estimate D2E/DX2                !
 ! D122  D(13,14,22,56)         94.7695         estimate D2E/DX2                !
 ! D123  D(15,14,22,21)         46.8293         estimate D2E/DX2                !
 ! D124  D(15,14,22,23)        164.0278         estimate D2E/DX2                !
 ! D125  D(15,14,22,56)        -71.5938         estimate D2E/DX2                !
 ! D126  D(46,14,22,21)        -51.9358         estimate D2E/DX2                !
 ! D127  D(46,14,22,23)         65.2627         estimate D2E/DX2                !
 ! D128  D(46,14,22,56)       -170.3589         estimate D2E/DX2                !
 ! D129  D(14,15,16,17)       -130.4499         estimate D2E/DX2                !
 ! D130  D(14,15,16,48)        115.8782         estimate D2E/DX2                !
 ! D131  D(14,15,16,49)        -10.3954         estimate D2E/DX2                !
 ! D132  D(20,15,16,17)          5.1708         estimate D2E/DX2                !
 ! D133  D(20,15,16,48)       -108.5012         estimate D2E/DX2                !
 ! D134  D(20,15,16,49)        125.2253         estimate D2E/DX2                !
 ! D135  D(47,15,16,17)        136.5428         estimate D2E/DX2                !
 ! D136  D(47,15,16,48)         22.8709         estimate D2E/DX2                !
 ! D137  D(47,15,16,49)       -103.4026         estimate D2E/DX2                !
 ! D138  D(14,15,20,19)       -146.9122         estimate D2E/DX2                !
 ! D139  D(14,15,20,21)        -19.1722         estimate D2E/DX2                !
 ! D140  D(14,15,20,55)         92.083          estimate D2E/DX2                !
 ! D141  D(16,15,20,19)         64.0727         estimate D2E/DX2                !
 ! D142  D(16,15,20,21)       -168.1874         estimate D2E/DX2                !
 ! D143  D(16,15,20,55)        -56.9322         estimate D2E/DX2                !
 ! D144  D(47,15,20,19)        -47.543          estimate D2E/DX2                !
 ! D145  D(47,15,20,21)         80.197          estimate D2E/DX2                !
 ! D146  D(47,15,20,55)       -168.5479         estimate D2E/DX2                !
 ! D147  D(15,16,17,18)        -59.9899         estimate D2E/DX2                !
 ! D148  D(15,16,17,50)         59.6583         estimate D2E/DX2                !
 ! D149  D(48,16,17,18)         59.6042         estimate D2E/DX2                !
 ! D150  D(48,16,17,50)        179.2524         estimate D2E/DX2                !
 ! D151  D(49,16,17,18)        176.2533         estimate D2E/DX2                !
 ! D152  D(49,16,17,50)        -64.0985         estimate D2E/DX2                !
 ! D153  D(16,17,18,19)         69.9696         estimate D2E/DX2                !
 ! D154  D(16,17,18,51)        -53.7284         estimate D2E/DX2                !
 ! D155  D(16,17,18,52)       -174.0863         estimate D2E/DX2                !
 ! D156  D(50,17,18,19)        -41.736          estimate D2E/DX2                !
 ! D157  D(50,17,18,51)       -165.4341         estimate D2E/DX2                !
 ! D158  D(50,17,18,52)         74.2081         estimate D2E/DX2                !
 ! D159  D(17,18,19,20)          0.1137         estimate D2E/DX2                !
 ! D160  D(17,18,19,53)       -111.2764         estimate D2E/DX2                !
 ! D161  D(17,18,19,54)        120.9443         estimate D2E/DX2                !
 ! D162  D(51,18,19,20)        126.1832         estimate D2E/DX2                !
 ! D163  D(51,18,19,53)         14.7931         estimate D2E/DX2                !
 ! D164  D(51,18,19,54)       -112.9862         estimate D2E/DX2                !
 ! D165  D(52,18,19,20)       -113.3953         estimate D2E/DX2                !
 ! D166  D(52,18,19,53)        135.2146         estimate D2E/DX2                !
 ! D167  D(52,18,19,54)          7.4353         estimate D2E/DX2                !
 ! D168  D(18,19,20,15)        -56.4238         estimate D2E/DX2                !
 ! D169  D(18,19,20,21)        174.5141         estimate D2E/DX2                !
 ! D170  D(18,19,20,55)         68.0276         estimate D2E/DX2                !
 ! D171  D(53,19,20,15)         69.1579         estimate D2E/DX2                !
 ! D172  D(53,19,20,21)        -59.9041         estimate D2E/DX2                !
 ! D173  D(53,19,20,55)       -166.3906         estimate D2E/DX2                !
 ! D174  D(54,19,20,15)       -173.9511         estimate D2E/DX2                !
 ! D175  D(54,19,20,21)         56.9869         estimate D2E/DX2                !
 ! D176  D(54,19,20,55)        -49.4996         estimate D2E/DX2                !
 ! D177  D(15,20,21,22)         37.8198         estimate D2E/DX2                !
 ! D178  D(19,20,21,22)        165.2257         estimate D2E/DX2                !
 ! D179  D(55,20,21,22)        -82.3623         estimate D2E/DX2                !
 ! D180  D(20,21,22,14)        -48.7267         estimate D2E/DX2                !
 ! D181  D(20,21,22,23)       -166.1815         estimate D2E/DX2                !
 ! D182  D(20,21,22,56)         77.2007         estimate D2E/DX2                !
 ! D183  D(14,22,23,8)          40.7444         estimate D2E/DX2                !
 ! D184  D(14,22,23,24)       -104.1354         estimate D2E/DX2                !
 ! D185  D(14,22,23,57)        160.3436         estimate D2E/DX2                !
 ! D186  D(21,22,23,8)         160.5898         estimate D2E/DX2                !
 ! D187  D(21,22,23,24)         15.71           estimate D2E/DX2                !
 ! D188  D(21,22,23,57)        -79.8111         estimate D2E/DX2                !
 ! D189  D(56,22,23,8)         -87.302          estimate D2E/DX2                !
 ! D190  D(56,22,23,24)        127.8182         estimate D2E/DX2                !
 ! D191  D(56,22,23,57)         32.2971         estimate D2E/DX2                !
 ! D192  D(8,23,24,5)           75.8184         estimate D2E/DX2                !
 ! D193  D(8,23,24,25)         -94.7429         estimate D2E/DX2                !
 ! D194  D(22,23,24,5)        -140.4339         estimate D2E/DX2                !
 ! D195  D(22,23,24,25)         49.0048         estimate D2E/DX2                !
 ! D196  D(57,23,24,5)         -47.4831         estimate D2E/DX2                !
 ! D197  D(57,23,24,25)        141.9556         estimate D2E/DX2                !
 ! D198  D(5,24,25,1)          -28.3001         estimate D2E/DX2                !
 ! D199  D(5,24,25,58)          39.39           estimate D2E/DX2                !
 ! D200  D(23,24,25,1)         140.8558         estimate D2E/DX2                !
 ! D201  D(23,24,25,58)       -151.4541         estimate D2E/DX2                !
 ! D202  D(6,26,27,28)        -178.0231         estimate D2E/DX2                !
 ! D203  D(6,26,27,59)           2.6109         estimate D2E/DX2                !
 ! D204  D(34,26,27,28)          7.5639         estimate D2E/DX2                !
 ! D205  D(34,26,27,59)       -171.8021         estimate D2E/DX2                !
 ! D206  D(6,26,34,30)         173.1227         estimate D2E/DX2                !
 ! D207  D(6,26,34,33)          -9.9584         estimate D2E/DX2                !
 ! D208  D(27,26,34,30)        -12.1696         estimate D2E/DX2                !
 ! D209  D(27,26,34,33)        164.7493         estimate D2E/DX2                !
 ! D210  D(26,27,28,29)          0.3938         estimate D2E/DX2                !
 ! D211  D(59,27,28,29)        179.8068         estimate D2E/DX2                !
 ! D212  D(27,28,29,30)         -3.8028         estimate D2E/DX2                !
 ! D213  D(27,28,29,60)        178.4274         estimate D2E/DX2                !
 ! D214  D(28,29,30,31)        177.8514         estimate D2E/DX2                !
 ! D215  D(28,29,30,34)         -0.8893         estimate D2E/DX2                !
 ! D216  D(60,29,30,31)         -4.4606         estimate D2E/DX2                !
 ! D217  D(60,29,30,34)        176.7987         estimate D2E/DX2                !
 ! D218  D(29,30,31,32)        179.1312         estimate D2E/DX2                !
 ! D219  D(34,30,31,32)         -2.0656         estimate D2E/DX2                !
 ! D220  D(29,30,34,26)          9.366          estimate D2E/DX2                !
 ! D221  D(29,30,34,33)       -167.9499         estimate D2E/DX2                !
 ! D222  D(31,30,34,26)       -169.5696         estimate D2E/DX2                !
 ! D223  D(31,30,34,33)         13.1145         estimate D2E/DX2                !
 ! D224  D(30,31,32,33)         -7.0829         estimate D2E/DX2                !
 ! D225  D(31,32,33,34)         14.5168         estimate D2E/DX2                !
 ! D226  D(32,33,34,26)        165.4            estimate D2E/DX2                !
 ! D227  D(32,33,34,30)        -17.4403         estimate D2E/DX2                !
 --------------------------------------------------------------------------------
 Trust Radius=3.00D-01 FncErr=1.00D-07 GrdErr=1.00D-06
 Number of steps in this run=    360 maximum allowed number of steps=    360.
 GradGradGradGradGradGradGradGradGradGradGradGradGradGradGradGradGradGrad

 Stoichiometry    C24H28N4OS2Si
 Framework group  C1[X(C24H28N4OS2Si)]
 Deg. of freedom   174
 Full point group                 C1      NOp   1
 Largest Abelian subgroup         C1      NOp   1
 Largest concise Abelian subgroup C1      NOp   1
                         Standard orientation:                         
 ---------------------------------------------------------------------
 Center     Atomic      Atomic             Coordinates (Angstroms)
 Number     Number       Type             X           Y           Z
 ---------------------------------------------------------------------
      1         14           0       -1.929138   -0.815018    3.202156
      2          1           0       -1.038461    0.405839    3.314532
      3          1           0       -2.918215    0.135030    2.557930
      4          6           0       -2.231393   -1.764550    1.296525
      5          6           0       -1.422877   -0.973952    0.581779
      6          6           0       -1.605379    0.320111   -0.330897
      7          6           0       -0.958002    1.424171    0.462693
      8          6           0        0.459432    1.167325    0.126320
      9          6           0        1.315518    1.927744    1.141853
     10          6           0        1.005728    3.419511    1.441106
     11          8           0        2.228591    4.088906    1.095740
     12          6           0        2.692178    3.332064   -0.077445
     13          6           0        2.689104    1.912485    0.510481
     14          6           0        2.919192    0.431383   -0.008411
     15          6           0        4.275594   -0.035336   -0.356630
     16          6           0        5.424828    0.569730   -1.140756
     17          7           0        5.744693   -0.518448   -2.027433
     18          6           0        6.137717   -1.735694   -1.194306
     19          6           0        5.104743   -2.497922   -0.362501
     20          6           0        3.978909   -1.663955   -0.729291
     21         16           0        2.489041   -2.279239   -0.096839
     22          6           0        1.948510   -0.640177   -0.538650
     23          6           0        0.670042   -0.425783    0.098367
     24          6           0       -0.089636   -1.059812    1.165814
     25          6           0        0.085220   -1.508938    2.482049
     26          6           0       -2.900216    0.720250   -0.844732
     27          6           0       -3.176644    1.951946   -1.453080
     28          7           0       -4.400405    2.339491   -1.899611
     29          6           0       -5.476982    1.503915   -1.761498
     30          6           0       -5.284958    0.220368   -1.230443
     31          7           0       -6.200843   -0.730150   -0.977264
     32         16           0       -5.382068   -2.043151   -0.377692
     33          7           0       -3.868060   -1.495057   -0.619649
     34          6           0       -3.950028   -0.184413   -0.864130
     35          1           0       -1.833806   -2.773677    1.485678
     36          1           0       -1.060059    0.206306   -1.299620
     37          1           0       -1.052569    1.292494    1.534691
     38          1           0       -1.270370    2.453221    0.299406
     39          1           0        0.671215    1.532710   -0.893994
     40          1           0        1.357945    1.397624    2.099991
     41          1           0        0.708357    3.573587    2.489606
     42          1           0        0.247833    3.936711    0.840578
     43          1           0        3.652726    3.765404   -0.357760
     44          1           0        1.950767    3.544205   -0.859878
     45          1           0        3.412281    2.024014    1.330202
     46          1           0        2.877312    0.016806    1.027149
     47          1           0        4.669265    0.352113    0.593185
     48          1           0        6.336050    0.763574   -0.541213
     49          1           0        5.202078    1.479104   -1.700916
     50          1           0        4.852290   -0.636137   -2.526991
     51          1           0        6.932131   -1.477330   -0.497110
     52          1           0        6.449373   -2.420712   -1.969759
     53          1           0        5.111961   -2.487744    0.739659
     54          1           0        5.038456   -3.557263   -0.664829
     55          1           0        3.774843   -1.838351   -1.807512
     56          1           0        1.825079   -0.694674   -1.640383
     57          1           0        0.191698   -1.022110   -0.727319
     58          1           0       -0.381977   -2.293564    3.074187
     59          1           0       -2.393172    2.702879   -1.621860
     60          1           0       -6.436693    1.843516   -2.098851
 ---------------------------------------------------------------------
 Rotational constants (GHZ):      0.2115859      0.0711234      0.0643802
 Standard basis: 6-31++G(d,p) (6D, 7F)
 There are   788 symmetry adapted basis functions of A   symmetry.
 Integral buffers will be    131072 words long.
 Raffenetti 2 integral format.
 Two-electron integral symmetry is turned on.
   788 basis functions,  1320 primitive gaussians,   788 cartesian basis functions
   127 alpha electrons      127 beta electrons
       nuclear repulsion energy      3922.6280878791 Hartrees.
 NAtoms=   60 NActive=   60 NUniq=   60 SFac= 1.00D+00 NAtFMM=   60 NAOKFM=T Big=T
 One-electron integrals computed using PRISM.
 NBasis=   788 RedAO= T  NBF=   788
 NBsUse=   780 1.00D-06 NBFU=   780
 Harris functional with IExCor=  402 diagonalized for initial guess.
 ExpMin= 3.31D-02 ExpMax= 2.19D+04 ExpMxC= 3.30D+03 IAcc=3 IRadAn=         5 AccDes= 0.00D+00
 HarFok:  IExCor=  402 AccDes= 0.00D+00 IRadAn=         5 IDoV= 1
 ScaDFX=  1.000000  1.000000  1.000000  1.000000
 FoFCou: FMM=F IPFlag=           0 FMFlag=      100000 FMFlg1=        2001
         NFxFlg=           0 DoJE=T BraDBF=F KetDBF=T FulRan=T
         Omega=  0.000000  0.000000  1.000000  0.000000  0.000000 ICntrl=     500 IOpCl=  0
         NMat0=    1 NMatS0=    1 NMatT0=    0 NMatD0=    1 NMtDS0=    0 NMtDT0=    0
         I1Cent=           4 NGrid=           0.
 Petite list used in FoFCou.
 Initial guess orbital symmetries:
       Occupied  (A) (A) (A) (A) (A) (A) (A) (A) (A) (A) (A) (A)
                 (A) (A) (A) (A) (A) (A) (A) (A) (A) (A) (A) (A)
                 (A) (A) (A) (A) (A) (A) (A) (A) (A) (A) (A) (A)
                 (A) (A) (A) (A) (A) (A) (A) (A) (A) (A) (A) (A)
                 (A) (A) (A) (A) (A) (A) (A) (A) (A) (A) (A) (A)
                 (A) (A) (A) (A) (A) (A) (A) (A) (A) (A) (A) (A)
                 (A) (A) (A) (A) (A) (A) (A) (A) (A) (A) (A) (A)
                 (A) (A) (A) (A) (A) (A) (A) (A) (A) (A) (A) (A)
                 (A) (A) (A) (A) (A) (A) (A) (A) (A) (A) (A) (A)
                 (A) (A) (A) (A) (A) (A) (A) (A) (A) (A) (A) (A)
                 (A) (A) (A) (A) (A) (A) (A)
       Virtual   (A) (A) (A) (A) (A) (A) (A) (A) (A) (A) (A) (A)
                 (A) (A) (A) (A) (A) (A) (A) (A) (A) (A) (A) (A)
                 (A) (A) (A) (A) (A) (A) (A) (A) (A) (A) (A) (A)
                 (A) (A) (A) (A) (A) (A) (A) (A) (A) (A) (A) (A)
                 (A) (A) (A) (A) (A) (A) (A) (A) (A) (A) (A) (A)
                 (A) (A) (A) (A) (A) (A) (A) (A) (A) (A) (A) (A)
                 (A) (A) (A) (A) (A) (A) (A) (A) (A) (A) (A) (A)
                 (A) (A) (A) (A) (A) (A) (A) (A) (A) (A) (A) (A)
                 (A) (A) (A) (A) (A) (A) (A) (A) (A) (A) (A) (A)
                 (A) (A) (A) (A) (A) (A) (A) (A) (A) (A) (A) (A)
                 (A) (A) (A) (A) (A) (A) (A) (A) (A) (A) (A) (A)
                 (A) (A) (A) (A) (A) (A) (A) (A) (A) (A) (A) (A)
                 (A) (A) (A) (A) (A) (A) (A) (A) (A) (A) (A) (A)
                 (A) (A) (A) (A) (A) (A) (A) (A) (A) (A) (A) (A)
                 (A) (A) (A) (A) (A) (A) (A) (A) (A) (A) (A) (A)
                 (A) (A) (A) (A) (A) (A) (A) (A) (A) (A) (A) (A)
                 (A) (A) (A) (A) (A) (A) (A) (A) (A) (A) (A) (A)
                 (A) (A) (A) (A) (A) (A) (A) (A) (A) (A) (A) (A)
                 (A) (A) (A) (A) (A) (A) (A) (A) (A) (A) (A) (A)
                 (A) (A) (A) (A) (A) (A) (A) (A) (A) (A) (A) (A)
                 (A) (A) (A) (A) (A) (A) (A) (A) (A) (A) (A) (A)
                 (A) (A) (A) (A) (A) (A) (A) (A) (A) (A) (A) (A)
                 (A) (A) (A) (A) (A) (A) (A) (A) (A) (A) (A) (A)
                 (A) (A) (A) (A) (A) (A) (A) (A) (A) (A) (A) (A)
                 (A) (A) (A) (A) (A) (A) (A) (A) (A) (A) (A) (A)
                 (A) (A) (A) (A) (A) (A) (A) (A) (A) (A) (A) (A)
                 (A) (A) (A) (A) (A) (A) (A) (A) (A) (A) (A) (A)
                 (A) (A) (A) (A) (A) (A) (A) (A) (A) (A) (A) (A)
                 (A) (A) (A) (A) (A) (A) (A) (A) (A) (A) (A) (A)
                 (A) (A) (A) (A) (A) (A) (A) (A) (A) (A) (A) (A)
                 (A) (A) (A) (A) (A) (A) (A) (A) (A) (A) (A) (A)
                 (A) (A) (A) (A) (A) (A) (A) (A) (A) (A) (A) (A)
                 (A) (A) (A) (A) (A) (A) (A) (A) (A) (A) (A) (A)
                 (A) (A) (A) (A) (A) (A) (A) (A) (A) (A) (A) (A)
                 (A) (A) (A) (A) (A) (A) (A) (A) (A) (A) (A) (A)
                 (A) (A) (A) (A) (A) (A) (A) (A) (A) (A) (A) (A)
                 (A) (A) (A) (A) (A) (A) (A) (A) (A) (A) (A) (A)
                 (A) (A) (A) (A) (A) (A) (A) (A) (A) (A) (A) (A)
                 (A) (A) (A) (A) (A) (A) (A) (A) (A) (A) (A) (A)
                 (A) (A) (A) (A) (A) (A) (A) (A) (A) (A) (A) (A)
                 (A) (A) (A) (A) (A) (A) (A) (A) (A) (A) (A) (A)
                 (A) (A) (A) (A) (A) (A) (A) (A) (A) (A) (A) (A)
                 (A) (A) (A) (A) (A) (A) (A) (A) (A) (A) (A) (A)
                 (A) (A) (A) (A) (A) (A) (A) (A) (A) (A) (A) (A)
                 (A) (A) (A) (A) (A) (A) (A) (A) (A) (A) (A) (A)
                 (A) (A) (A) (A) (A) (A) (A) (A) (A) (A) (A) (A)
                 (A) (A) (A) (A) (A) (A) (A) (A) (A) (A) (A) (A)
                 (A) (A) (A) (A) (A) (A) (A) (A) (A) (A) (A) (A)
                 (A) (A) (A) (A) (A) (A) (A) (A) (A) (A) (A) (A)
                 (A) (A) (A) (A) (A) (A) (A) (A) (A) (A) (A) (A)
                 (A) (A) (A) (A) (A) (A) (A) (A) (A) (A) (A) (A)
                 (A) (A) (A) (A) (A) (A) (A) (A) (A) (A) (A) (A)
                 (A) (A) (A) (A) (A) (A) (A) (A) (A) (A) (A) (A)
                 (A) (A) (A) (A) (A) (A) (A) (A) (A) (A) (A) (A)
                 (A) (A) (A) (A) (A)
 The electronic state of the initial guess is 1-A.
 Requested convergence on RMS density matrix=1.00D-08 within 128 cycles.
 Requested convergence on MAX density matrix=1.00D-06.
 Requested convergence on             energy=1.00D-06.
 No special actions if energy rises.
 EnCoef did     4 forward-backward iterations
 EnCoef did     3 forward-backward iterations
 EnCoef did    11 forward-backward iterations
 EnCoef did     4 forward-backward iterations
 EnCoef did     8 forward-backward iterations
 Restarting incremental Fock formation.
 SCF Done:  E(RB3LYP) =  -2310.81422013     A.U. after   29 cycles
             Convg  =    0.4431D-08             -V/T =  2.0058

 **********************************************************************

            Population analysis using the SCF density.

 **********************************************************************

 Orbital symmetries:
       Occupied  (A) (A) (A) (A) (A) (A) (A) (A) (A) (A) (A) (A)
                 (A) (A) (A) (A) (A) (A) (A) (A) (A) (A) (A) (A)
                 (A) (A) (A) (A) (A) (A) (A) (A) (A) (A) (A) (A)
                 (A) (A) (A) (A) (A) (A) (A) (A) (A) (A) (A) (A)
                 (A) (A) (A) (A) (A) (A) (A) (A) (A) (A) (A) (A)
                 (A) (A) (A) (A) (A) (A) (A) (A) (A) (A) (A) (A)
                 (A) (A) (A) (A) (A) (A) (A) (A) (A) (A) (A) (A)
                 (A) (A) (A) (A) (A) (A) (A) (A) (A) (A) (A) (A)
                 (A) (A) (A) (A) (A) (A) (A) (A) (A) (A) (A) (A)
                 (A) (A) (A) (A) (A) (A) (A) (A) (A) (A) (A) (A)
                 (A) (A) (A) (A) (A) (A) (A)
       Virtual   (A) (A) (A) (A) (A) (A) (A) (A) (A) (A) (A) (A)
                 (A) (A) (A) (A) (A) (A) (A) (A) (A) (A) (A) (A)
                 (A) (A) (A) (A) (A) (A) (A) (A) (A) (A) (A) (A)
                 (A) (A) (A) (A) (A) (A) (A) (A) (A) (A) (A) (A)
                 (A) (A) (A) (A) (A) (A) (A) (A) (A) (A) (A) (A)
                 (A) (A) (A) (A) (A) (A) (A) (A) (A) (A) (A) (A)
                 (A) (A) (A) (A) (A) (A) (A) (A) (A) (A) (A) (A)
                 (A) (A) (A) (A) (A) (A) (A) (A) (A) (A) (A) (A)
                 (A) (A) (A) (A) (A) (A) (A) (A) (A) (A) (A) (A)
                 (A) (A) (A) (A) (A) (A) (A) (A) (A) (A) (A) (A)
                 (A) (A) (A) (A) (A) (A) (A) (A) (A) (A) (A) (A)
                 (A) (A) (A) (A) (A) (A) (A) (A) (A) (A) (A) (A)
                 (A) (A) (A) (A) (A) (A) (A) (A) (A) (A) (A) (A)
                 (A) (A) (A) (A) (A) (A) (A) (A) (A) (A) (A) (A)
                 (A) (A) (A) (A) (A) (A) (A) (A) (A) (A) (A) (A)
                 (A) (A) (A) (A) (A) (A) (A) (A) (A) (A) (A) (A)
                 (A) (A) (A) (A) (A) (A) (A) (A) (A) (A) (A) (A)
                 (A) (A) (A) (A) (A) (A) (A) (A) (A) (A) (A) (A)
                 (A) (A) (A) (A) (A) (A) (A) (A) (A) (A) (A) (A)
                 (A) (A) (A) (A) (A) (A) (A) (A) (A) (A) (A) (A)
                 (A) (A) (A) (A) (A) (A) (A) (A) (A) (A) (A) (A)
                 (A) (A) (A) (A) (A) (A) (A) (A) (A) (A) (A) (A)
                 (A) (A) (A) (A) (A) (A) (A) (A) (A) (A) (A) (A)
                 (A) (A) (A) (A) (A) (A) (A) (A) (A) (A) (A) (A)
                 (A) (A) (A) (A) (A) (A) (A) (A) (A) (A) (A) (A)
                 (A) (A) (A) (A) (A) (A) (A) (A) (A) (A) (A) (A)
                 (A) (A) (A) (A) (A) (A) (A) (A) (A) (A) (A) (A)
                 (A) (A) (A) (A) (A) (A) (A) (A) (A) (A) (A) (A)
                 (A) (A) (A) (A) (A) (A) (A) (A) (A) (A) (A) (A)
                 (A) (A) (A) (A) (A) (A) (A) (A) (A) (A) (A) (A)
                 (A) (A) (A) (A) (A) (A) (A) (A) (A) (A) (A) (A)
                 (A) (A) (A) (A) (A) (A) (A) (A) (A) (A) (A) (A)
                 (A) (A) (A) (A) (A) (A) (A) (A) (A) (A) (A) (A)
                 (A) (A) (A) (A) (A) (A) (A) (A) (A) (A) (A) (A)
                 (A) (A) (A) (A) (A) (A) (A) (A) (A) (A) (A) (A)
                 (A) (A) (A) (A) (A) (A) (A) (A) (A) (A) (A) (A)
                 (A) (A) (A) (A) (A) (A) (A) (A) (A) (A) (A) (A)
                 (A) (A) (A) (A) (A) (A) (A) (A) (A) (A) (A) (A)
                 (A) (A) (A) (A) (A) (A) (A) (A) (A) (A) (A) (A)
                 (A) (A) (A) (A) (A) (A) (A) (A) (A) (A) (A) (A)
                 (A) (A) (A) (A) (A) (A) (A) (A) (A) (A) (A) (A)
                 (A) (A) (A) (A) (A) (A) (A) (A) (A) (A) (A) (A)
                 (A) (A) (A) (A) (A) (A) (A) (A) (A) (A) (A) (A)
                 (A) (A) (A) (A) (A) (A) (A) (A) (A) (A) (A) (A)
                 (A) (A) (A) (A) (A) (A) (A) (A) (A) (A) (A) (A)
                 (A) (A) (A) (A) (A) (A) (A) (A) (A) (A) (A) (A)
                 (A) (A) (A) (A) (A) (A) (A) (A) (A) (A) (A) (A)
                 (A) (A) (A) (A) (A) (A) (A) (A) (A) (A) (A) (A)
                 (A) (A) (A) (A) (A) (A) (A) (A) (A) (A) (A) (A)
                 (A) (A) (A) (A) (A) (A) (A) (A) (A) (A) (A) (A)
                 (A) (A) (A) (A) (A) (A) (A) (A) (A) (A) (A) (A)
                 (A) (A) (A) (A) (A) (A) (A) (A) (A) (A) (A) (A)
                 (A) (A) (A) (A) (A) (A) (A) (A) (A) (A) (A) (A)
                 (A) (A) (A) (A) (A) (A) (A) (A) (A) (A) (A) (A)
                 (A) (A) (A) (A) (A)
 The electronic state is 1-A.
 Alpha  occ. eigenvalues --  -89.00772 -88.87969 -66.13707 -19.16405 -14.40508
 Alpha  occ. eigenvalues --  -14.40160 -14.36931 -14.32945 -10.26712 -10.26648
 Alpha  occ. eigenvalues --  -10.25832 -10.25295 -10.24929 -10.24607 -10.24423
 Alpha  occ. eigenvalues --  -10.24173 -10.24016 -10.23772 -10.23506 -10.23295
 Alpha  occ. eigenvalues --  -10.23232 -10.23105 -10.21782 -10.21776 -10.21760
 Alpha  occ. eigenvalues --  -10.21266 -10.21245 -10.21094 -10.20468 -10.20307
 Alpha  occ. eigenvalues --  -10.19176 -10.19110  -8.06021  -7.94239  -6.02578
 Alpha  occ. eigenvalues --   -6.02009  -6.01778  -5.90643  -5.90463  -5.89715
 Alpha  occ. eigenvalues --   -5.27938  -3.64242  -3.63604  -3.63473  -1.05136
 Alpha  occ. eigenvalues --   -1.04341  -0.95866  -0.93975  -0.92982  -0.91798
 Alpha  occ. eigenvalues --   -0.88644  -0.85522  -0.84481  -0.82050  -0.80979
 Alpha  occ. eigenvalues --   -0.80290  -0.77277  -0.75252  -0.74492  -0.73089
 Alpha  occ. eigenvalues --   -0.71049  -0.70601  -0.68696  -0.66269  -0.65528
 Alpha  occ. eigenvalues --   -0.64673  -0.63128  -0.62272  -0.60635  -0.59187
 Alpha  occ. eigenvalues --   -0.58910  -0.56675  -0.55402  -0.54890  -0.54240
 Alpha  occ. eigenvalues --   -0.53138  -0.52826  -0.52141  -0.51559  -0.50993
 Alpha  occ. eigenvalues --   -0.49459  -0.49228  -0.48443  -0.48164  -0.47782
 Alpha  occ. eigenvalues --   -0.46991  -0.46238  -0.45826  -0.44914  -0.44420
 Alpha  occ. eigenvalues --   -0.44168  -0.43930  -0.43416  -0.42925  -0.42345
 Alpha  occ. eigenvalues --   -0.41729  -0.41416  -0.40246  -0.39890  -0.39733
 Alpha  occ. eigenvalues --   -0.38991  -0.38077  -0.37523  -0.37001  -0.36445
 Alpha  occ. eigenvalues --   -0.35985  -0.35312  -0.34768  -0.34737  -0.33818
 Alpha  occ. eigenvalues --   -0.33694  -0.33030  -0.32623  -0.32340  -0.31332
 Alpha  occ. eigenvalues --   -0.30586  -0.30305  -0.29267  -0.28571  -0.27454
 Alpha  occ. eigenvalues --   -0.26832  -0.25894  -0.24471  -0.23827  -0.22332
 Alpha  occ. eigenvalues --   -0.21290  -0.19311
 Alpha virt. eigenvalues --   -0.14639  -0.12478  -0.11036  -0.04274  -0.03215
 Alpha virt. eigenvalues --   -0.02426  -0.02366  -0.01939  -0.01527  -0.01417
 Alpha virt. eigenvalues --   -0.00741  -0.00388   0.00215   0.00356   0.00771
 Alpha virt. eigenvalues --    0.01188   0.01589   0.01647   0.01806   0.02325
 Alpha virt. eigenvalues --    0.02732   0.02974   0.03228   0.03326   0.03853
 Alpha virt. eigenvalues --    0.03897   0.04392   0.04487   0.04740   0.05164
 Alpha virt. eigenvalues --    0.05430   0.05600   0.05706   0.06005   0.06449
 Alpha virt. eigenvalues --    0.06686   0.07094   0.07190   0.07415   0.07575
 Alpha virt. eigenvalues --    0.07757   0.07875   0.08088   0.08579   0.08805
 Alpha virt. eigenvalues --    0.09069   0.09212   0.09314   0.09690   0.09908
 Alpha virt. eigenvalues --    0.09944   0.10171   0.10375   0.10551   0.10671
 Alpha virt. eigenvalues --    0.11036   0.11157   0.11652   0.11677   0.11727
 Alpha virt. eigenvalues --    0.11974   0.12137   0.12318   0.12458   0.12655
 Alpha virt. eigenvalues --    0.12741   0.13114   0.13168   0.13186   0.13404
 Alpha virt. eigenvalues --    0.13642   0.13712   0.13858   0.13963   0.14094
 Alpha virt. eigenvalues --    0.14281   0.14410   0.14503   0.14689   0.14873
 Alpha virt. eigenvalues --    0.15156   0.15195   0.15326   0.15520   0.15728
 Alpha virt. eigenvalues --    0.16068   0.16294   0.16511   0.16649   0.16850
 Alpha virt. eigenvalues --    0.16965   0.17127   0.17581   0.17708   0.17814
 Alpha virt. eigenvalues --    0.17958   0.18120   0.18251   0.18428   0.18639
 Alpha virt. eigenvalues --    0.18850   0.19051   0.19353   0.19481   0.19598
 Alpha virt. eigenvalues --    0.19958   0.20066   0.20271   0.20589   0.20752
 Alpha virt. eigenvalues --    0.20937   0.21048   0.21294   0.21496   0.21777
 Alpha virt. eigenvalues --    0.21823   0.21927   0.22504   0.22808   0.22887
 Alpha virt. eigenvalues --    0.22945   0.23072   0.23357   0.23655   0.23847
 Alpha virt. eigenvalues --    0.24175   0.24394   0.24400   0.24533   0.24662
 Alpha virt. eigenvalues --    0.24885   0.25181   0.25357   0.25401   0.25893
 Alpha virt. eigenvalues --    0.26052   0.26330   0.26462   0.26705   0.26794
 Alpha virt. eigenvalues --    0.27150   0.27303   0.27406   0.27656   0.28177
 Alpha virt. eigenvalues --    0.28420   0.28477   0.28647   0.28992   0.29163
 Alpha virt. eigenvalues --    0.29398   0.29727   0.29856   0.30239   0.30322
 Alpha virt. eigenvalues --    0.30681   0.30795   0.31086   0.31402   0.31553
 Alpha virt. eigenvalues --    0.31694   0.32011   0.32178   0.32368   0.32847
 Alpha virt. eigenvalues --    0.32973   0.33084   0.33330   0.33422   0.33668
 Alpha virt. eigenvalues --    0.33870   0.34042   0.34270   0.34518   0.34816
 Alpha virt. eigenvalues --    0.35163   0.35447   0.35630   0.35964   0.36207
 Alpha virt. eigenvalues --    0.36644   0.36993   0.37409   0.37446   0.38357
 Alpha virt. eigenvalues --    0.38591   0.38792   0.38852   0.39196   0.39362
 Alpha virt. eigenvalues --    0.39612   0.39767   0.39976   0.40274   0.40724
 Alpha virt. eigenvalues --    0.41073   0.41279   0.41795   0.42048   0.42215
 Alpha virt. eigenvalues --    0.42322   0.42902   0.43223   0.43538   0.43926
 Alpha virt. eigenvalues --    0.44089   0.44445   0.45447   0.45649   0.45966
 Alpha virt. eigenvalues --    0.46517   0.47160   0.47880   0.48161   0.48536
 Alpha virt. eigenvalues --    0.49054   0.49596   0.49657   0.50507   0.50845
 Alpha virt. eigenvalues --    0.51807   0.52786   0.54287   0.54976   0.55832
 Alpha virt. eigenvalues --    0.56693   0.59773   0.60425   0.62775   0.63288
 Alpha virt. eigenvalues --    0.64507   0.65077   0.65432   0.66008   0.66397
 Alpha virt. eigenvalues --    0.67093   0.67708   0.68551   0.68846   0.70005
 Alpha virt. eigenvalues --    0.70354   0.70772   0.71351   0.71720   0.72366
 Alpha virt. eigenvalues --    0.72618   0.72851   0.73106   0.73403   0.73898
 Alpha virt. eigenvalues --    0.74239   0.74408   0.74912   0.75871   0.76512
 Alpha virt. eigenvalues --    0.76750   0.77326   0.77482   0.77679   0.78060
 Alpha virt. eigenvalues --    0.78421   0.78734   0.79398   0.79489   0.79920
 Alpha virt. eigenvalues --    0.80353   0.80979   0.81452   0.81855   0.82137
 Alpha virt. eigenvalues --    0.82845   0.83155   0.83758   0.84186   0.84440
 Alpha virt. eigenvalues --    0.85565   0.85791   0.86324   0.86514   0.87102
 Alpha virt. eigenvalues --    0.87766   0.88103   0.89268   0.89767   0.90583
 Alpha virt. eigenvalues --    0.91176   0.91714   0.92789   0.93031   0.93282
 Alpha virt. eigenvalues --    0.93485   0.93976   0.94677   0.95836   0.95991
 Alpha virt. eigenvalues --    0.96297   0.97103   0.97727   0.98413   0.98589
 Alpha virt. eigenvalues --    0.99745   1.00225   1.00271   1.01410   1.01534
 Alpha virt. eigenvalues --    1.01905   1.02430   1.02804   1.03448   1.03801
 Alpha virt. eigenvalues --    1.04014   1.04513   1.05160   1.05704   1.05937
 Alpha virt. eigenvalues --    1.06906   1.07596   1.08274   1.08515   1.09587
 Alpha virt. eigenvalues --    1.09717   1.10708   1.10967   1.11477   1.11942
 Alpha virt. eigenvalues --    1.12552   1.12668   1.12969   1.13253   1.13929
 Alpha virt. eigenvalues --    1.14401   1.14753   1.15088   1.15224   1.15618
 Alpha virt. eigenvalues --    1.16296   1.16923   1.17070   1.17259   1.17606
 Alpha virt. eigenvalues --    1.18373   1.18675   1.19883   1.20295   1.20849
 Alpha virt. eigenvalues --    1.21213   1.21981   1.22558   1.23013   1.23210
 Alpha virt. eigenvalues --    1.24303   1.24570   1.25120   1.25796   1.26290
 Alpha virt. eigenvalues --    1.27041   1.27506   1.29733   1.30097   1.31150
 Alpha virt. eigenvalues --    1.32445   1.32566   1.33128   1.33611   1.34305
 Alpha virt. eigenvalues --    1.36469   1.36637   1.37180   1.38217   1.39228
 Alpha virt. eigenvalues --    1.39907   1.40966   1.41576   1.41941   1.43110
 Alpha virt. eigenvalues --    1.43640   1.44451   1.45368   1.45700   1.46280
 Alpha virt. eigenvalues --    1.46919   1.47977   1.48910   1.49418   1.50083
 Alpha virt. eigenvalues --    1.52247   1.52870   1.53782   1.54203   1.55137
 Alpha virt. eigenvalues --    1.56244   1.57960   1.58483   1.60142   1.61553
 Alpha virt. eigenvalues --    1.62046   1.62602   1.63275   1.64731   1.66113
 Alpha virt. eigenvalues --    1.68130   1.68674   1.69687   1.70570   1.71936
 Alpha virt. eigenvalues --    1.72863   1.73346   1.73893   1.74519   1.75166
 Alpha virt. eigenvalues --    1.76119   1.76903   1.76926   1.77971   1.78747
 Alpha virt. eigenvalues --    1.79548   1.79875   1.81343   1.81926   1.82601
 Alpha virt. eigenvalues --    1.82891   1.83087   1.83523   1.84414   1.85018
 Alpha virt. eigenvalues --    1.85225   1.86202   1.86503   1.87570   1.88602
 Alpha virt. eigenvalues --    1.89179   1.90246   1.91232   1.91577   1.92630
 Alpha virt. eigenvalues --    1.93206   1.93866   1.94053   1.95134   1.95471
 Alpha virt. eigenvalues --    1.96445   1.97625   1.98029   1.98465   2.00151
 Alpha virt. eigenvalues --    2.00562   2.00905   2.00960   2.02351   2.03231
 Alpha virt. eigenvalues --    2.04800   2.05220   2.05591   2.06334   2.07171
 Alpha virt. eigenvalues --    2.08238   2.08386   2.09019   2.10059   2.10719
 Alpha virt. eigenvalues --    2.11568   2.12214   2.12955   2.13785   2.14441
 Alpha virt. eigenvalues --    2.14895   2.15693   2.16049   2.17668   2.17994
 Alpha virt. eigenvalues --    2.18944   2.19496   2.20086   2.20342   2.21585
 Alpha virt. eigenvalues --    2.21926   2.22562   2.23639   2.24354   2.26057
 Alpha virt. eigenvalues --    2.26361   2.26884   2.27398   2.28371   2.29292
 Alpha virt. eigenvalues --    2.29656   2.30298   2.30840   2.31597   2.32074
 Alpha virt. eigenvalues --    2.33638   2.34437   2.35175   2.35927   2.36263
 Alpha virt. eigenvalues --    2.37456   2.38567   2.38922   2.39639   2.40238
 Alpha virt. eigenvalues --    2.40875   2.41492   2.41970   2.42502   2.42755
 Alpha virt. eigenvalues --    2.44291   2.44310   2.44794   2.45056   2.45824
 Alpha virt. eigenvalues --    2.46532   2.47340   2.48184   2.48873   2.49928
 Alpha virt. eigenvalues --    2.50278   2.50595   2.51759   2.52388   2.53055
 Alpha virt. eigenvalues --    2.53916   2.54998   2.55711   2.56116   2.57484
 Alpha virt. eigenvalues --    2.57664   2.59175   2.59501   2.60216   2.60920
 Alpha virt. eigenvalues --    2.61228   2.62670   2.63331   2.63781   2.64080
 Alpha virt. eigenvalues --    2.64992   2.65686   2.66352   2.66781   2.67529
 Alpha virt. eigenvalues --    2.68035   2.68610   2.69624   2.69773   2.70214
 Alpha virt. eigenvalues --    2.70960   2.71450   2.72536   2.72908   2.73288
 Alpha virt. eigenvalues --    2.73949   2.74500   2.75738   2.76329   2.77600
 Alpha virt. eigenvalues --    2.78634   2.78813   2.79942   2.81092   2.81507
 Alpha virt. eigenvalues --    2.82809   2.83186   2.84678   2.86083   2.86164
 Alpha virt. eigenvalues --    2.86892   2.87867   2.88119   2.89556   2.91265
 Alpha virt. eigenvalues --    2.92274   2.92565   2.93234   2.94591   2.95001
 Alpha virt. eigenvalues --    2.95537   2.96407   2.98099   2.99328   2.99423
 Alpha virt. eigenvalues --    3.00485   3.02193   3.03405   3.04956   3.06818
 Alpha virt. eigenvalues --    3.07175   3.08239   3.10335   3.11347   3.12024
 Alpha virt. eigenvalues --    3.15251   3.16900   3.20552   3.25388   3.26615
 Alpha virt. eigenvalues --    3.30010   3.30244   3.31971   3.33248   3.36607
 Alpha virt. eigenvalues --    3.39322   3.39439   3.40660   3.42424   3.42541
 Alpha virt. eigenvalues --    3.43267   3.45071   3.45585   3.47513   3.47913
 Alpha virt. eigenvalues --    3.50140   3.51542   3.52289   3.53827   3.54957
 Alpha virt. eigenvalues --    3.56134   3.57285   3.59164   3.59647   3.62089
 Alpha virt. eigenvalues --    3.64614   3.67637   3.95680   4.06880   4.15252
 Alpha virt. eigenvalues --    4.20429   4.31036   4.36866   4.37742   4.40104
 Alpha virt. eigenvalues --    4.43683   4.48506   4.50604   4.52044   4.53148
 Alpha virt. eigenvalues --    4.53804   4.54585   4.55130   4.57006   4.60129
 Alpha virt. eigenvalues --    4.61541   4.63742   4.65646   4.69074   4.73266
 Alpha virt. eigenvalues --    4.76137   4.76943   4.83831   4.84205   4.86516
 Alpha virt. eigenvalues --    4.95470   5.00633   5.03394
          Condensed to atoms (all electrons):
 Mulliken atomic charges:
              1
     1  Si   0.292514
     2  H   -0.194378
     3  H   -0.103287
     4  C   -0.722842
     5  C   -0.008176
     6  C   -0.225701
     7  C   -0.597661
     8  C   -0.278471
     9  C   -0.187255
    10  C   -0.273445
    11  O   -0.236718
    12  C   -0.316333
    13  C   -0.019508
    14  C    0.332354
    15  C   -0.323308
    16  C   -0.577082
    17  N   -0.230014
    18  C   -0.235358
    19  C   -0.544285
    20  C    0.251282
    21  S    0.102699
    22  C   -0.232109
    23  C    0.134663
    24  C    0.732825
    25  C   -1.063400
    26  C    0.109932
    27  C   -0.646183
    28  N   -0.065120
    29  C   -0.372829
    30  C    0.789665
    31  N   -0.393378
    32  S    0.942833
    33  N   -0.329982
    34  C   -0.246607
    35  H    0.222234
    36  H    0.217105
    37  H    0.255398
    38  H    0.226141
    39  H    0.176479
    40  H    0.235195
    41  H    0.164796
    42  H    0.125457
    43  H    0.154286
    44  H    0.144499
    45  H    0.213900
    46  H    0.163270
    47  H    0.105236
    48  H    0.159891
    49  H    0.155968
    50  H    0.293583
    51  H    0.133439
    52  H    0.191304
    53  H    0.195392
    54  H    0.153634
    55  H    0.174079
    56  H    0.245849
    57  H    0.147189
    58  H    0.132042
    59  H    0.162959
    60  H    0.185335
 Sum of Mulliken atomic charges =  -0.00000
 Mulliken charges with hydrogens summed into heavy atoms:
              1
     1  Si  -0.005151
     4  C   -0.500608
     5  C   -0.008176
     6  C   -0.008596
     7  C   -0.116121
     8  C   -0.101992
     9  C    0.047940
    10  C    0.016808
    11  O   -0.236718
    12  C   -0.017547
    13  C    0.194392
    14  C    0.495624
    15  C   -0.218072
    16  C   -0.261223
    17  N    0.063568
    18  C    0.089385
    19  C   -0.195259
    20  C    0.425361
    21  S    0.102699
    22  C    0.013740
    23  C    0.281852
    24  C    0.732825
    25  C   -0.931358
    26  C    0.109932
    27  C   -0.483223
    28  N   -0.065120
    29  C   -0.187494
    30  C    0.789665
    31  N   -0.393378
    32  S    0.942833
    33  N   -0.329982
    34  C   -0.246607
 Sum of Mulliken charges with hydrogens summed into heavy atoms =  -0.00000
 Electronic spatial extent (au):  <R**2>=          17031.7521
 Charge=             -0.0000 electrons
 Dipole moment (field-independent basis, Debye):
    X=              0.6076    Y=             -2.2192    Z=             -1.9396  Tot=              3.0093
 Quadrupole moment (field-independent basis, Debye-Ang):
   XX=           -229.1984   YY=           -222.9985   ZZ=           -225.0800
   XY=              3.3857   XZ=              3.4621   YZ=             -1.4711
 Traceless Quadrupole moment (field-independent basis, Debye-Ang):
   XX=             -3.4395   YY=              2.7605   ZZ=              0.6790
   XY=              3.3857   XZ=              3.4621   YZ=             -1.4711
 Octapole moment (field-independent basis, Debye-Ang**2):
  XXX=              2.7100  YYY=            -76.4983  ZZZ=            -24.9433  XYY=             -7.7163
  XXY=            -50.9005  XXZ=             53.9725  XZZ=             -6.7647  YZZ=             -8.7921
  YYZ=            -15.3790  XYZ=            -12.2483
 Hexadecapole moment (field-independent basis, Debye-Ang**3):
 XXXX=         -17731.1690 YYYY=          -4687.9247 ZZZZ=          -2714.9463 XXXY=             71.4903
 XXXZ=            523.5422 YYYX=              3.7366 YYYZ=            -32.7562 ZZZX=             87.9092
 ZZZY=             75.6555 XXYY=          -3488.2933 XXZZ=          -3549.3890 YYZZ=          -1194.4506
 XXYZ=              5.1515 YYXZ=           -162.5441 ZZXY=             30.3353
 N-N= 3.922628087879D+03 E-N=-1.326554083251D+04  KE= 2.297555865589D+03
 Calling FoFJK, ICntrl=      2127 FMM=T ISym2X=0 I1Cent= 0 IOpClX= 0 NMat=1 NMatS=1 NMatT=0.
 ***** Axes restored to original set *****
 -------------------------------------------------------------------
 Center     Atomic                   Forces (Hartrees/Bohr)
 Number     Number              X              Y              Z
 -------------------------------------------------------------------
      1       14           0.050476204    0.022143065    0.009727012
      2        1           0.002182387   -0.014034517    0.005386307
      3        1           0.009060846   -0.008241514    0.019526729
      4        6          -0.053181301   -0.002068937    0.049507528
      5        6           0.046561042   -0.011184663   -0.035105832
      6        6          -0.007036007    0.013281504    0.021987808
      7        6           0.002418605   -0.003500804   -0.003768846
      8        6           0.006972139   -0.002985123    0.009532335
      9        6          -0.020068615    0.002150339    0.002142543
     10        6           0.005351950    0.003296446   -0.004208974
     11        8          -0.008497941    0.001516675   -0.010159049
     12        6           0.016694744   -0.006741422    0.000994414
     13        6          -0.002482686   -0.005505691   -0.006187198
     14        6          -0.009142644   -0.015391545    0.018103822
     15        6           0.000869715   -0.038155899    0.009079380
     16        6          -0.004228612    0.022834574   -0.009237279
     17        7          -0.014509790   -0.004179064   -0.028001214
     18        6          -0.009479742    0.006136359   -0.031881291
     19        6          -0.005526924   -0.006036801   -0.004000264
     20        6           0.006772559    0.002930215   -0.011175726
     21       16          -0.003827791   -0.015337872    0.029881000
     22        6           0.028828291   -0.007316632   -0.006229648
     23        6           0.029482042    0.024031930   -0.025370502
     24        6          -0.014498931   -0.011545006    0.012218129
     25        6          -0.014629605    0.046440289   -0.013318645
     26        6           0.018124118    0.023295726    0.012778272
     27        6          -0.002611861   -0.003295511    0.003879563
     28        7          -0.013339318    0.021643993    0.034411261
     29        6           0.019159642   -0.020976863   -0.043141461
     30        6          -0.012013719   -0.008240219    0.008252894
     31        7          -0.002781037    0.000178428    0.010693373
     32       16           0.008726792    0.026330518   -0.001992063
     33        7          -0.013451692   -0.039643529    0.009665204
     34        6          -0.000759392    0.025372038    0.007334720
     35        1          -0.001605791    0.012441155    0.003398758
     36        1          -0.005644667   -0.013043947    0.008853879
     37        1          -0.001866946    0.003016234    0.010218083
     38        1           0.000390387    0.012551802   -0.002534618
     39        1          -0.000680673   -0.001853412    0.000937396
     40        1          -0.002293403    0.004787469    0.005121361
     41        1          -0.000014204   -0.003212115   -0.010552487
     42        1          -0.008891962    0.009242460    0.007140935
     43        1          -0.003317110   -0.000163647   -0.001219038
     44        1          -0.007738492    0.004964882   -0.004822001
     45        1          -0.005059562    0.000761503   -0.007304416
     46        1           0.003697595    0.004329102   -0.000901950
     47        1          -0.045651040   -0.018048110    0.004203138
     48        1           0.004263260    0.004224510    0.010027294
     49        1           0.004185541    0.003854756   -0.000365473
     50        1          -0.016865418   -0.004895945   -0.016570171
     51        1           0.006041746    0.002661064   -0.018176285
     52        1          -0.009810190   -0.006346110   -0.012230849
     53        1          -0.001398987   -0.007357693   -0.018297652
     54        1           0.006195960    0.001910282    0.001214939
     55        1           0.016618928   -0.011482577   -0.007553925
     56        1           0.011049032   -0.007046229   -0.001304690
[...]
   D182       1.35612   0.00027   0.00437   0.03039   0.00745   1.36357
   D183       0.92452  -0.00078   0.00043  -0.02417  -0.00207   0.92245
   D184      -1.33630  -0.00152   0.00110  -0.03003  -0.00194  -1.33824
   D185       2.95650  -0.00112   0.00142  -0.02172  -0.00078   2.95572
   D186       2.94276  -0.00042  -0.00113  -0.03942  -0.00514   2.93763
   D187       0.68194  -0.00116  -0.00045  -0.04528  -0.00500   0.67694
   D188      -1.30844  -0.00076  -0.00013  -0.03697  -0.00385  -1.31228
   D189      -1.25724  -0.00082   0.00097  -0.03866  -0.00292  -1.26017
   D190       2.76512  -0.00156   0.00165  -0.04452  -0.00279   2.76233
   D191       0.77474  -0.00116   0.00197  -0.03621  -0.00163   0.77311
   D192       0.83170  -0.00041  -0.00552  -0.03599  -0.00911   0.82259
   D193      -2.17457   0.00005  -0.00663  -0.04234  -0.01080  -2.18537
   D194       3.05252  -0.00054  -0.00732  -0.03751  -0.01114   3.04138
   D195       0.04625  -0.00008  -0.00842  -0.04386  -0.01283   0.03342
   D196      -1.19511  -0.00106  -0.00617  -0.04595  -0.01079  -1.20590
   D197       2.08180  -0.00060  -0.00727  -0.05230  -0.01248   2.06932
   D198      -0.52308   0.00129  -0.00274  -0.02044  -0.00467  -0.52774
   D199       1.01844   0.00012   0.00292  -0.01112   0.00173   1.02017
   D200       2.46847   0.00089  -0.00134  -0.01186  -0.00247   2.46600
   D201      -2.27320  -0.00028   0.00432  -0.00255   0.00393  -2.26927
   D202       3.09503   0.00050  -0.00138   0.00643  -0.00074   3.09429
   D203      -0.02889   0.00072  -0.00049   0.00732   0.00024  -0.02866
   D204      -0.00951  -0.00070   0.00007   0.00433   0.00050  -0.00901
   D205      -3.13343  -0.00048   0.00095   0.00522   0.00147  -3.13195
   D206      -3.06373  -0.00007   0.00292   0.00439   0.00335  -3.06037
   D207       0.03958   0.00068   0.00371  -0.01056   0.00265   0.04223
   D208       0.04350   0.00050   0.00158   0.00630   0.00221   0.04571
   D209      -3.13638   0.00124   0.00237  -0.00865   0.00151  -3.13487
   D210      -0.01418   0.00035  -0.00098  -0.00737  -0.00172  -0.01590
   D211       3.11068   0.00014  -0.00182  -0.00820  -0.00264   3.10804
   D212       0.00460   0.00026   0.00024  -0.00030   0.00021   0.00481
   D213      -3.12822  -0.00027   0.00067   0.00369   0.00104  -3.12718
   D214      -3.07588  -0.00090   0.00185   0.00384   0.00224  -3.07365
   D215       0.02676  -0.00043   0.00128   0.00977   0.00225   0.02902
   D216       0.05676  -0.00036   0.00142  -0.00022   0.00140   0.05816
   D217      -3.12378   0.00011   0.00084   0.00571   0.00141  -3.12236
   D218       3.10422   0.00071  -0.00237  -0.01352  -0.00373   3.10049
   D219       0.00150   0.00025  -0.00180  -0.01944  -0.00374  -0.00224
   D220      -0.05231  -0.00003  -0.00224  -0.01299  -0.00354  -0.05584
   D221       3.12316  -0.00077  -0.00293   0.00014  -0.00292   3.12024
   D222       3.05515   0.00034  -0.00275  -0.00767  -0.00351   3.05164
   D223      -0.05257  -0.00039  -0.00344   0.00546  -0.00290  -0.05546
   D224       0.03637  -0.00006   0.00488   0.02185   0.00707   0.04344
   D225      -0.06506  -0.00033  -0.00677  -0.01927  -0.00869  -0.07375
   D226      -3.03324  -0.00025   0.00590   0.02460   0.00836  -3.02488
   D227       0.07371   0.00048   0.00661   0.01122   0.00773   0.08144
         Item               Value     Threshold  Converged?
 Maximum Force            0.014022     0.000450     NO 
 RMS     Force            0.001817     0.000300     NO 
 Maximum Displacement     0.157463     0.001800     NO 
 RMS     Displacement     0.026131     0.001200     NO 
 Predicted change in Energy=-4.013754D-04
 GradGradGradGradGradGradGradGradGradGradGradGradGradGradGradGradGradGrad

 Stoichiometry    C24H28N4OS2Si
 Framework group  C1[X(C24H28N4OS2Si)]
 Deg. of freedom   174
 Full point group                 C1      NOp   1
 Largest Abelian subgroup         C1      NOp   1
 Largest concise Abelian subgroup C1      NOp   1
                         Standard orientation:                         
 ---------------------------------------------------------------------
 Center     Atomic      Atomic             Coordinates (Angstroms)
 Number     Number       Type             X           Y           Z
 ---------------------------------------------------------------------
      1         14           0       -1.325720   -1.993478    1.679558
      2          1           0       -0.964921   -0.571460    2.042017
      3          1           0       -2.415450   -2.100051    2.738583
      4          6           0       -2.287415   -1.635445   -0.138637
      5          6           0       -1.466957   -0.503546   -0.634223
      6          6           0       -2.031269    0.889668   -0.913684
      7          6           0       -1.170247    1.984445   -0.231361
      8          6           0        0.347970    1.899447   -0.560485
      9          6           0        1.175583    2.333913    0.698295
     10          6           0        1.369416    3.873728    0.743458
     11          8           0        2.762779    4.139857    0.483582
     12          6           0        3.393518    2.940676    0.032007
     13          6           0        2.646382    1.828875    0.778635
     14          6           0        2.691321    0.363028    0.343599
     15          6           0        3.929949   -0.564962    0.561816
     16          6           0        5.316549   -0.003342    0.994882
     17          7           0        6.431433   -0.865414    0.563545
     18          6           0        6.129128   -2.296865    0.531357
     19          6           0        4.879244   -2.691858   -0.345414
     20          6           0        4.143412   -1.403282   -0.703610
     21         16           0        2.510828   -1.520844   -1.562819
     22          6           0        2.197109    0.236025   -1.106893
     23          6           0        0.706614    0.523959   -1.212254
     24          6           0       -0.102135   -0.681749   -0.707217
     25          6           0        0.613557   -1.803796   -0.205138
     26          6           0       -3.493947    1.019312   -0.505381
     27          6           0       -4.246879    2.186781   -0.519687
     28          7           0       -5.571245    2.257945   -0.197066
     29          6           0       -6.230592    1.166798    0.142228
     30          6           0       -5.590253   -0.108106    0.189088
     31          7           0       -6.147439   -1.304843    0.445038
     32         16           0       -4.975217   -2.471747    0.314442
     33          7           0       -3.668460   -1.373257   -0.019319
     34          6           0       -4.199938   -0.122181   -0.114497
     35          1           0       -2.157724   -2.565652   -0.691854
     36          1           0       -1.981292    1.068253   -2.003583
     37          1           0       -1.320758    1.884670    0.848704
     38          1           0       -1.547196    2.971852   -0.517162
     39          1           0        0.563690    2.641406   -1.340333
     40          1           0        0.648908    1.987588    1.592878
     41          1           0        1.134532    4.305005    1.722112
     42          1           0        0.754692    4.383380   -0.010782
     43          1           0        4.454571    3.023758    0.281592
     44          1           0        3.301894    2.840827   -1.061785
     45          1           0        2.952958    1.892553    1.830887
     46          1           0        1.912210   -0.118110    0.938201
     47          1           0        3.626259   -1.278476    1.337348
     48          1           0        5.337378    0.083146    2.087855
     49          1           0        5.496097    0.998268    0.592194
     50          1           0        6.799312   -0.561543   -0.331038
     51          1           0        5.968490   -2.628707    1.563730
     52          1           0        7.022376   -2.816144    0.172298
     53          1           0        4.210907   -3.337107    0.236709
     54          1           0        5.177482   -3.248932   -1.240295
     55          1           0        4.750072   -0.828220   -1.416291
     56          1           0        2.761195    0.880503   -1.788793
     57          1           0        0.437611    0.610620   -2.275034
     58          1           0        0.421383   -2.824772   -0.526542
     59          1           0       -3.799932    3.130735   -0.816602
     60          1           0       -7.287415    1.257754    0.379857
 ---------------------------------------------------------------------
 Rotational constants (GHZ):      0.2385807      0.0711969      0.0591617
 Standard basis: 6-31++G(d,p) (6D, 7F)
 There are   788 symmetry adapted basis functions of A   symmetry.
 Integral buffers will be    131072 words long.
 Raffenetti 2 integral format.
 Two-electron integral symmetry is turned on.
   788 basis functions,  1320 primitive gaussians,   788 cartesian basis functions
   127 alpha electrons      127 beta electrons
       nuclear repulsion energy      3915.4676611439 Hartrees.
 NAtoms=   60 NActive=   60 NUniq=   60 SFac= 1.00D+00 NAtFMM=   60 NAOKFM=T Big=T
 One-electron integrals computed using PRISM.
 NBasis=   788 RedAO= T  NBF=   788
 NBsUse=   781 1.00D-06 NBFU=   781
 Initial guess read from the read-write file.
 B after Tr=     0.000000    0.000000    0.000000
         Rot=    1.000000   -0.000000    0.000000    0.000000 Ang=   0.00 deg.
 Initial guess orbital symmetries:
       Occupied  (A) (A) (A) (A) (A) (A) (A) (A) (A) (A) (A) (A)
                 (A) (A) (A) (A) (A) (A) (A) (A) (A) (A) (A) (A)
                 (A) (A) (A) (A) (A) (A) (A) (A) (A) (A) (A) (A)
                 (A) (A) (A) (A) (A) (A) (A) (A) (A) (A) (A) (A)
                 (A) (A) (A) (A) (A) (A) (A) (A) (A) (A) (A) (A)
                 (A) (A) (A) (A) (A) (A) (A) (A) (A) (A) (A) (A)
                 (A) (A) (A) (A) (A) (A) (A) (A) (A) (A) (A) (A)
                 (A) (A) (A) (A) (A) (A) (A) (A) (A) (A) (A) (A)
                 (A) (A) (A) (A) (A) (A) (A) (A) (A) (A) (A) (A)
                 (A) (A) (A) (A) (A) (A) (A) (A) (A) (A) (A) (A)
                 (A) (A) (A) (A) (A) (A) (A)
       Virtual   (A) (A) (A) (A) (A) (A) (A) (A) (A) (A) (A) (A)
                 (A) (A) (A) (A) (A) (A) (A) (A) (A) (A) (A) (A)
                 (A) (A) (A) (A) (A) (A) (A) (A) (A) (A) (A) (A)
                 (A) (A) (A) (A) (A) (A) (A) (A) (A) (A) (A) (A)
                 (A) (A) (A) (A) (A) (A) (A) (A) (A) (A) (A) (A)
                 (A) (A) (A) (A) (A) (A) (A) (A) (A) (A) (A) (A)
                 (A) (A) (A) (A) (A) (A) (A) (A) (A) (A) (A) (A)
                 (A) (A) (A) (A) (A) (A) (A) (A) (A) (A) (A) (A)
                 (A) (A) (A) (A) (A) (A) (A) (A) (A) (A) (A) (A)
                 (A) (A) (A) (A) (A) (A) (A) (A) (A) (A) (A) (A)
                 (A) (A) (A) (A) (A) (A) (A) (A) (A) (A) (A) (A)
                 (A) (A) (A) (A) (A) (A) (A) (A) (A) (A) (A) (A)
                 (A) (A) (A) (A) (A) (A) (A) (A) (A) (A) (A) (A)
                 (A) (A) (A) (A) (A) (A) (A) (A) (A) (A) (A) (A)
                 (A) (A) (A) (A) (A) (A) (A) (A) (A) (A) (A) (A)
                 (A) (A) (A) (A) (A) (A) (A) (A) (A) (A) (A) (A)
                 (A) (A) (A) (A) (A) (A) (A) (A) (A) (A) (A) (A)
                 (A) (A) (A) (A) (A) (A) (A) (A) (A) (A) (A) (A)
                 (A) (A) (A) (A) (A) (A) (A) (A) (A) (A) (A) (A)
                 (A) (A) (A) (A) (A) (A) (A) (A) (A) (A) (A) (A)
                 (A) (A) (A) (A) (A) (A) (A) (A) (A) (A) (A) (A)
                 (A) (A) (A) (A) (A) (A) (A) (A) (A) (A) (A) (A)
                 (A) (A) (A) (A) (A) (A) (A) (A) (A) (A) (A) (A)
                 (A) (A) (A) (A) (A) (A) (A) (A) (A) (A) (A) (A)
                 (A) (A) (A) (A) (A) (A) (A) (A) (A) (A) (A) (A)
                 (A) (A) (A) (A) (A) (A) (A) (A) (A) (A) (A) (A)
                 (A) (A) (A) (A) (A) (A) (A) (A) (A) (A) (A) (A)
                 (A) (A) (A) (A) (A) (A) (A) (A) (A) (A) (A) (A)
                 (A) (A) (A) (A) (A) (A) (A) (A) (A) (A) (A) (A)
                 (A) (A) (A) (A) (A) (A) (A) (A) (A) (A) (A) (A)
                 (A) (A) (A) (A) (A) (A) (A) (A) (A) (A) (A) (A)
                 (A) (A) (A) (A) (A) (A) (A) (A) (A) (A) (A) (A)
                 (A) (A) (A) (A) (A) (A) (A) (A) (A) (A) (A) (A)
                 (A) (A) (A) (A) (A) (A) (A) (A) (A) (A) (A) (A)
                 (A) (A) (A) (A) (A) (A) (A) (A) (A) (A) (A) (A)
                 (A) (A) (A) (A) (A) (A) (A) (A) (A) (A) (A) (A)
                 (A) (A) (A) (A) (A) (A) (A) (A) (A) (A) (A) (A)
                 (A) (A) (A) (A) (A) (A) (A) (A) (A) (A) (A) (A)
                 (A) (A) (A) (A) (A) (A) (A) (A) (A) (A) (A) (A)
                 (A) (A) (A) (A) (A) (A) (A) (A) (A) (A) (A) (A)
                 (A) (A) (A) (A) (A) (A) (A) (A) (A) (A) (A) (A)
                 (A) (A) (A) (A) (A) (A) (A) (A) (A) (A) (A) (A)
                 (A) (A) (A) (A) (A) (A) (A) (A) (A) (A) (A) (A)
                 (A) (A) (A) (A) (A) (A) (A) (A) (A) (A) (A) (A)
                 (A) (A) (A) (A) (A) (A) (A) (A) (A) (A) (A) (A)
                 (A) (A) (A) (A) (A) (A) (A) (A) (A) (A) (A) (A)
                 (A) (A) (A) (A) (A) (A) (A) (A) (A) (A) (A) (A)
                 (A) (A) (A) (A) (A) (A) (A) (A) (A) (A) (A) (A)
                 (A) (A) (A) (A) (A) (A) (A) (A) (A) (A) (A) (A)
                 (A) (A) (A) (A) (A) (A) (A) (A) (A) (A) (A) (A)
                 (A) (A) (A) (A) (A) (A) (A) (A) (A) (A) (A) (A)
                 (A) (A) (A) (A) (A) (A) (A) (A) (A) (A) (A) (A)
                 (A) (A) (A) (A) (A) (A) (A) (A) (A) (A) (A) (A)
                 (A) (A) (A) (A) (A) (A) (A) (A) (A) (A) (A) (A)
                 (A) (A) (A) (A) (A) (A)
 Harris functional with IExCor=  402 diagonalized for initial guess.
 ExpMin= 3.31D-02 ExpMax= 2.19D+04 ExpMxC= 3.30D+03 IAcc=3 IRadAn=         5 AccDes= 0.00D+00
 HarFok:  IExCor=  402 AccDes= 0.00D+00 IRadAn=         5 IDoV= 1
 ScaDFX=  1.000000  1.000000  1.000000  1.000000
 FoFCou: FMM=F IPFlag=           0 FMFlag=      100000 FMFlg1=        2001
         NFxFlg=           0 DoJE=T BraDBF=F KetDBF=T FulRan=T
         Omega=  0.000000  0.000000  1.000000  0.000000  0.000000 ICntrl=     500 IOpCl=  0
         NMat0=    1 NMatS0=    1 NMatT0=    0 NMatD0=    1 NMtDS0=    0 NMtDT0=    0
         I1Cent=           4 NGrid=           0.
 Petite list used in FoFCou.
 Requested convergence on RMS density matrix=1.00D-08 within 128 cycles.
 Requested convergence on MAX density matrix=1.00D-06.
 Requested convergence on             energy=1.00D-06.
 No special actions if energy rises.
 Restarting incremental Fock formation.
 SCF Done:  E(RB3LYP) =  -2311.29973577     A.U. after   22 cycles
             Convg  =    0.2768D-08             -V/T =  2.0067
 Calling FoFJK, ICntrl=      2127 FMM=T ISym2X=0 I1Cent= 0 IOpClX= 0 NMat=1 NMatS=1 NMatT=0.
 ***** Axes restored to original set *****
 -------------------------------------------------------------------
 Center     Atomic                   Forces (Hartrees/Bohr)
 Number     Number              X              Y              Z
 -------------------------------------------------------------------
      1       14           0.012092077   -0.000999053   -0.004116291
      2        1          -0.001078664   -0.001217614   -0.001296368
      3        1          -0.005892476    0.003974498    0.002414499
      4        6          -0.008964623   -0.001824818   -0.000092574
      5        6           0.001469075    0.000258939    0.002273283
      6        6           0.002795909    0.000806394    0.000597505
      7        6          -0.000450141    0.000098581   -0.001627213
      8        6           0.001649384   -0.001768637    0.001008073
      9        6           0.002053469   -0.000316968   -0.000499619
     10        6          -0.000642858   -0.000356696    0.001113722
     11        8           0.000003825    0.001906344   -0.000352265
     12        6          -0.000304344   -0.000801991   -0.000091243
     13        6           0.000240264   -0.000408343    0.000636860
     14        6          -0.000745817   -0.001690343   -0.001746410
     15        6           0.002610066   -0.001655831    0.000875689
     16        6          -0.000481246    0.001535254    0.001223191
     17        7           0.000561163   -0.001527097   -0.001122403
     18        6           0.000005429    0.000934268    0.001107301
     19        6          -0.000440847   -0.000042121    0.000477406
     20        6          -0.001436365   -0.001772123    0.000816752
     21       16           0.002967435    0.001638531    0.001374300
     22        6          -0.000303598    0.002145519   -0.000188674
     23        6          -0.003892504    0.000695126    0.003371237
     24        6           0.003874235    0.001857171   -0.005876698
     25        6          -0.008888996   -0.003241819   -0.000285252
     26        6          -0.002159186    0.000169268   -0.000472694
     27        6           0.001253022    0.000824734    0.001006803
     28        7           0.000474238   -0.000387000   -0.002133142
     29        6          -0.000896744   -0.000129635    0.000814176
     30        6           0.000008892    0.000854809    0.000031776
     31        7           0.001920073   -0.000066943   -0.000268658
     32       16          -0.004173722   -0.000961350    0.000829415
     33        7           0.004161701   -0.000215334    0.003683820
     34        6           0.003548110   -0.000817990   -0.000059567
     35        1          -0.001107811    0.000267087   -0.002969536
     36        1          -0.000164500   -0.000060170    0.000310113
     37        1          -0.000441481    0.000125611   -0.000135467
     38        1           0.000210533   -0.000551027    0.000469285
     39        1          -0.000574447    0.000501462   -0.000049305
     40        1          -0.000079421    0.000509393    0.000242068
     41        1          -0.000402158   -0.000251344    0.000201623
     42        1           0.000315207   -0.000386944   -0.000264881
     43        1          -0.000210213   -0.000242909    0.000087227
     44        1           0.000635608   -0.000332289   -0.000498340
     45        1           0.000109952   -0.000065321   -0.000053815
     46        1           0.000566554   -0.000165207    0.000688400
     47        1           0.000487069   -0.000463325   -0.000090989
     48        1           0.000750498   -0.000468449   -0.000457058
     49        1          -0.000294792    0.000690520   -0.000126192
     50        1           0.000460244    0.000067890   -0.000342089
     51        1           0.000253045    0.000281966    0.000277694
     52        1          -0.000191897   -0.000005106    0.000394429
     53        1          -0.000784549    0.000467627   -0.000135834
     54        1           0.000737812    0.000229740   -0.000812893
     55        1          -0.000640937    0.001791014    0.000553534
     56        1          -0.002306443    0.000502336   -0.000488793
     57        1           0.001382473   -0.000507274   -0.001633688
     58        1           0.000343402    0.000580882    0.001629900
     59        1           0.000102249    0.000046354   -0.000199518
     60        1          -0.000092236   -0.000060247   -0.000022610
 -------------------------------------------------------------------
 Cartesian Forces:  Max     0.012092077 RMS     0.001952263

 GradGradGradGradGradGradGradGradGradGradGradGradGradGradGradGradGradGrad
 Berny optimization.
 Using GEDIIS/GDIIS optimizer.
 NTrRot=    -1 NTRed=   426 NAtoms=    60 NSkip=   252 IsLin=F
 Error in internal coordinate system.
 Error termination via Lnk1e in /opt/gaussian/g09/l103.exe at Sun Dec 29 12:39:17 2013.
 Job cpu time:  5 days 22 hours  4 minutes 36.2 seconds.
 File lengths (MBytes):  RWF=    375 Int=      0 D2E=      0 Chk=     44 Scr=      1
