 Entering Gaussian System, Link 0=g09
 Initial command:
 /opt/gaussian/g09/l1.exe /panfs/panfs.cluster/home/shuo/Gau-13524.inp -scrdir=/panfs/panfs.cluster/home/shuo/
 Default is to use a total of  12 processors:
                               12 via shared-memory
                                1 via Linda
 Entering Link 1 = /opt/gaussian/g09/l1.exe PID=     13525.
  
 Copyright (c) 1988,1990,1992,1993,1995,1998,2003,2009,2011,
            Gaussian, Inc.  All Rights Reserved.
  
 This is part of the Gaussian(R) 09 program.  It is based on
 the Gaussian(R) 03 system (copyright 2003, Gaussian, Inc.),
 the Gaussian(R) 98 system (copyright 1998, Gaussian, Inc.),
 the Gaussian(R) 94 system (copyright 1995, Gaussian, Inc.),
 the Gaussian 92(TM) system (copyright 1992, Gaussian, Inc.),
 the Gaussian 90(TM) system (copyright 1990, Gaussian, Inc.),
 the Gaussian 88(TM) system (copyright 1988, Gaussian, Inc.),
 the Gaussian 86(TM) system (copyright 1986, Carnegie Mellon
 University), and the Gaussian 82(TM) system (copyright 1983,
 Carnegie Mellon University). Gaussian is a federally registered
 trademark of Gaussian, Inc.
  
 This software contains proprietary and confidential information,
 including trade secrets, belonging to Gaussian, Inc.
  
 This software is provided under written license and may be
 used, copied, transmitted, or stored only in accord with that
 written license.
  
 The following legend is applicable only to US Government
 contracts under FAR:
  
                    RESTRICTED RIGHTS LEGEND
  
 Use, reproduction and disclosure by the US Government is
 subject to restrictions as set forth in subparagraphs (a)
 and (c) of the Commercial Computer Software - Restricted
 Rights clause in FAR 52.227-19.
  
 Gaussian, Inc.
 340 Quinnipiac St., Bldg. 40, Wallingford CT 06492
  
  
 ---------------------------------------------------------------
 Warning -- This program may not be used in any manner that
 competes with the business of Gaussian, Inc. or will provide
 assistance to any competitor of Gaussian, Inc.  The licensee
 of this program is prohibited from giving any competitor of
 Gaussian, Inc. access to this program.  By using this program,
 the user acknowledges that Gaussian, Inc. is engaged in the
 business of creating and licensing software in the field of
 computational chemistry and represents and warrants to the
 licensee that it is not a competitor of Gaussian, Inc. and that
 it will not use this program in any manner prohibited above.
 ---------------------------------------------------------------
  

 Cite this work as:
 Gaussian 09, Revision C.01,
 M. J. Frisch, G. W. Trucks, H. B. Schlegel, G. E. Scuseria, 
 M. A. Robb, J. R. Cheeseman, G. Scalmani, V. Barone, B. Mennucci, 
 G. A. Petersson, H. Nakatsuji, M. Caricato, X. Li, H. P. Hratchian, 
 A. F. Izmaylov, J. Bloino, G. Zheng, J. L. Sonnenberg, M. Hada, 
 M. Ehara, K. Toyota, R. Fukuda, J. Hasegawa, M. Ishida, T. Nakajima, 
 Y. Honda, O. Kitao, H. Nakai, T. Vreven, J. A. Montgomery, Jr., 
 J. E. Peralta, F. Ogliaro, M. Bearpark, J. J. Heyd, E. Brothers, 
 K. N. Kudin, V. N. Staroverov, T. Keith, R. Kobayashi, J. Normand, 
 K. Raghavachari, A. Rendell, J. C. Burant, S. S. Iyengar, J. Tomasi, 
 M. Cossi, N. Rega, J. M. Millam, M. Klene, J. E. Knox, J. B. Cross, 
 V. Bakken, C. Adamo, J. Jaramillo, R. Gomperts, R. E. Stratmann, 
 O. Yazyev, A. J. Austin, R. Cammi, C. Pomelli, J. W. Ochterski, 
 R. L. Martin, K. Morokuma, V. G. Zakrzewski, G. A. Voth, 
 P. Salvador, J. J. Dannenberg, S. Dapprich, A. D. Daniels, 
 O. Farkas, J. B. Foresman, J. V. Ortiz, J. Cioslowski, 
 and D. J. Fox, Gaussian, Inc., Wallingford CT, 2010.
 
 ******************************************
 Gaussian 09:  EM64L-G09RevC.01 23-Sep-2011
                29-Dec-2013 
 ******************************************
 %chk=84_C23H12N4S4.chk
 %NProcShared=12
 Will use up to   12 processors via shared memory.
 %Mem=8000MB
 Default route:  MaxDisk=100GB
 --------------------------------------------
 #B3LYP/6-31++G(d,p) opt scf=direct freq test
 --------------------------------------------
 1/14=-1,18=20,19=15,26=3,38=1/1,3;
 2/9=110,12=2,17=6,18=5,40=1/2;
 3/5=1,6=6,7=1111,11=2,16=1,25=1,30=1,71=1,74=-5/1,2,3;
 4//1;
 5/5=2,38=5/2;
 6/7=2,8=2,9=2,10=2,28=1/1;
 7//1,2,3,16;
 1/14=-1,18=20,19=15/3(2);
 2/9=110/2;
 99//99;
 2/9=110/2;
 3/5=1,6=6,7=1111,11=2,16=1,25=1,30=1,71=1,74=-5/1,2,3;
 4/5=5,16=3/1;
 5/5=2,38=5/2;
 7//1,2,3,16;
 1/14=-1,18=20,19=15/3(-5);
 2/9=110/2;
 6/7=2,8=2,9=2,10=2,19=2,28=1/1;
 99/9=1/99;
 ----------------------------------------------------------------------
 Geom opt of No.84 candidate from the CEPDB database with SMILE code of
  C1ccc2csc(c12)-c1ccc(cn1)-c1sc(-c2cncc3nsnc23)c2cc[Se]c12, HPC, 20131
 227, Shuo Dai, Gaussian09
 ----------------------------------------------------------------------
 Charge =  0 Multiplicity = 2
 Symbolic Z-Matrix:
 C                    -1.249     1.158    -0.004 
 C                    -2.094    -0.044     0.002 
 C                    -1.292    -1.075     0. 
 C                    -0.015    -0.662     0. 
 C                     1.242    -1.078    -0.001 
 S                     2.041    -0.071     0. 
 C                     1.349     1.058     0.001 
 C                     0.021     0.714     0.002 
 C                     1.88961   2.39699   0.00103 
 C                     1.10007   3.51435   0.3913 
 C                     1.55347   4.81227   0.10427 
 C                     2.78735   5.00506  -0.25893 
 C                     3.66916   3.92027  -0.35425 
 N                     3.15616   2.60036  -0.36545 
 C                     3.24915   6.3387   -0.56433 
 S                     2.58935   7.44339  -0.18968 
 C                     3.26091   8.50952  -0.66261 
 C                     2.90203   9.89779  -0.49214 
 C                     3.76146   10.85226  -0.91349 
 N                     3.49107   12.17506  -0.75811 
 C                     2.34386   12.59986  -0.18548 
 C                     1.40499   11.65056   0.26981 
 N                     0.21311   11.71379   0.86151 
 S                    -0.22468   10.48005   1.06567 
 N                     0.64977   9.60071   0.62099 
 C                     1.69738   10.26704   0.10949 
 C                     4.35236   8.02371  -1.33802 
 C                     5.52732   8.47087  -2.09892 
 C                     6.01236   7.22782  -2.87666 
 Se                    5.48865   6.07669  -1.98915 
 C                     4.30678   6.6796   -1.25516 
 H                    -1.44005   1.75197   0.86525 
 H                    -1.44662   1.77375  -0.85646 
 H                    -3.12569  -0.06895   0.00687 
 H                    -1.59544  -2.06138  -0.00138 
 H                     1.53733  -2.06684  -0.00238 
 H                     0.20264   3.37247   0.8807 
 H                     0.90735   5.61326   0.18158 
 H                     4.6865    4.08224  -0.41593 
 H                     4.64543   10.5693  -1.36465 
 H                     2.15599   13.60933  -0.08203 
 H                     6.29174   8.81916  -1.43614 
 H                     5.29033   9.28225  -2.75496 
 H                     7.07949   7.20721  -2.95217 
 

 GradGradGradGradGradGradGradGradGradGradGradGradGradGradGradGradGradGrad
 Berny optimization.
 Initialization pass.
                           ----------------------------
                           !    Initial Parameters    !
                           ! (Angstroms and Degrees)  !
 --------------------------                            --------------------------
 ! Name  Definition              Value          Derivative Info.                !
 --------------------------------------------------------------------------------
 ! R1    R(1,2)                  1.4693         estimate D2E/DX2                !
 ! R2    R(1,8)                  1.3454         estimate D2E/DX2                !
 ! R3    R(1,32)                 1.07           estimate D2E/DX2                !
 ! R4    R(1,33)                 1.07           estimate D2E/DX2                !
 ! R5    R(2,3)                  1.3062         estimate D2E/DX2                !
 ! R6    R(2,34)                 1.032          estimate D2E/DX2                !
 ! R7    R(3,4)                  1.3421         estimate D2E/DX2                !
 ! R8    R(3,35)                 1.032          estimate D2E/DX2                !
 ! R9    R(4,5)                  1.324          estimate D2E/DX2                !
 ! R10   R(4,6)                  2.1393         estimate D2E/DX2                !
 ! R11   R(4,8)                  1.3765         estimate D2E/DX2                !
 ! R12   R(5,6)                  1.2855         estimate D2E/DX2                !
 ! R13   R(5,36)                 1.032          estimate D2E/DX2                !
 ! R14   R(6,7)                  1.3242         estimate D2E/DX2                !
 ! R15   R(6,8)                  2.1672         estimate D2E/DX2                !
 ! R16   R(7,8)                  1.3718         estimate D2E/DX2                !
 ! R17   R(7,9)                  1.444          estimate D2E/DX2                !
 ! R18   R(9,10)                 1.4227         estimate D2E/DX2                !
 ! R19   R(9,14)                 1.3341         estimate D2E/DX2                !
 ! R20   R(10,11)                1.4045         estimate D2E/DX2                !
 ! R21   R(10,37)                1.032          estimate D2E/DX2                !
 ! R22   R(11,12)                1.3006         estimate D2E/DX2                !
 ! R23   R(11,38)                1.032          estimate D2E/DX2                !
 ! R24   R(12,13)                1.4012         estimate D2E/DX2                !
 ! R25   R(12,15)                1.444          estimate D2E/DX2                !
 ! R26   R(13,14)                1.4161         estimate D2E/DX2                !
 ! R27   R(13,39)                1.032          estimate D2E/DX2                !
 ! R28   R(15,16)                1.3402         estimate D2E/DX2                !
 ! R29   R(15,31)                1.3084         estimate D2E/DX2                !
 ! R30   R(16,17)                1.3458         estimate D2E/DX2                !
 ! R31   R(16,31)                2.1606         estimate D2E/DX2                !
 ! R32   R(17,18)                1.444          estimate D2E/DX2                !
 ! R33   R(17,27)                1.3724         estimate D2E/DX2                !
 ! R34   R(18,19)                1.3517         estimate D2E/DX2                !
 ! R35   R(18,26)                1.3962         estimate D2E/DX2                !
 ! R36   R(19,20)                1.3591         estimate D2E/DX2                !
 ! R37   R(19,40)                1.032          estimate D2E/DX2                !
 ! R38   R(20,21)                1.3507         estimate D2E/DX2                !
 ! R39   R(21,22)                1.4107         estimate D2E/DX2                !
 ! R40   R(21,41)                1.032          estimate D2E/DX2                !
 ! R41   R(22,23)                1.3322         estimate D2E/DX2                !
 ! R42   R(22,24)                2.1585         estimate D2E/DX2                !
 ! R43   R(22,26)                1.4231         estimate D2E/DX2                !
 ! R44   R(23,24)                1.3249         estimate D2E/DX2                !
 ! R45   R(24,25)                1.3174         estimate D2E/DX2                !
 ! R46   R(24,26)                2.1573         estimate D2E/DX2                !
 ! R47   R(25,26)                1.3428         estimate D2E/DX2                !
 ! R48   R(27,28)                1.4695         estimate D2E/DX2                !
 ! R49   R(27,31)                1.3474         estimate D2E/DX2                !
 ! R50   R(28,29)                1.5444         estimate D2E/DX2                !
 ! R51   R(28,42)                1.07           estimate D2E/DX2                !
 ! R52   R(28,43)                1.07           estimate D2E/DX2                !
 ! R53   R(29,30)                1.545          estimate D2E/DX2                !
 ! R54   R(29,44)                1.07           estimate D2E/DX2                !
 ! R55   R(30,31)                1.5163         estimate D2E/DX2                !
 ! A1    A(2,1,8)              105.8357         estimate D2E/DX2                !
 ! A2    A(2,1,32)             110.3724         estimate D2E/DX2                !
 ! A3    A(2,1,33)             111.5808         estimate D2E/DX2                !
 ! A4    A(8,1,32)             110.3724         estimate D2E/DX2                !
 ! A5    A(8,1,33)             111.5806         estimate D2E/DX2                !
 ! A6    A(32,1,33)            107.1452         estimate D2E/DX2                !
 ! A7    A(1,2,3)              107.0136         estimate D2E/DX2                !
 ! A8    A(1,2,34)             126.4929         estimate D2E/DX2                !
 ! A9    A(3,2,34)             126.4935         estimate D2E/DX2                !
 ! A10   A(2,3,4)              109.9569         estimate D2E/DX2                !
 ! A11   A(2,3,35)             125.0218         estimate D2E/DX2                !
 ! A12   A(4,3,35)             125.0214         estimate D2E/DX2                !
 ! A13   A(3,4,5)              143.7662         estimate D2E/DX2                !
 ! A14   A(3,4,8)              109.4206         estimate D2E/DX2                !
 ! A15   A(5,4,8)              106.8132         estimate D2E/DX2                !
 ! A16   A(4,5,36)             124.9408         estimate D2E/DX2                !
 ! A17   A(6,5,36)             124.941          estimate D2E/DX2                !
 ! A18   A(4,6,7)               74.5319         estimate D2E/DX2                !
 ! A19   A(5,6,7)              110.0645         estimate D2E/DX2                !
 ! A20   A(5,6,8)               72.8068         estimate D2E/DX2                !
 ! A21   A(6,7,9)              126.5084         estimate D2E/DX2                !
 ! A22   A(8,7,9)              126.5086         estimate D2E/DX2                !
 ! A23   A(1,8,4)              107.7707         estimate D2E/DX2                !
 ! A24   A(1,8,7)              146.2064         estimate D2E/DX2                !
 ! A25   A(4,8,7)              106.0211         estimate D2E/DX2                !
 ! A26   A(7,9,10)             121.365          estimate D2E/DX2                !
 ! A27   A(7,9,14)             119.7868         estimate D2E/DX2                !
 ! A28   A(10,9,14)            118.8475         estimate D2E/DX2                !
 ! A29   A(9,10,11)            119.3777         estimate D2E/DX2                !
 ! A30   A(9,10,37)            120.3111         estimate D2E/DX2                !
 ! A31   A(11,10,37)           120.3112         estimate D2E/DX2                !
 ! A32   A(10,11,12)           120.0214         estimate D2E/DX2                !
 ! A33   A(10,11,38)           119.9894         estimate D2E/DX2                !
 ! A34   A(12,11,38)           119.9893         estimate D2E/DX2                !
 ! A35   A(11,12,13)           120.0841         estimate D2E/DX2                !
 ! A36   A(11,12,15)           119.9582         estimate D2E/DX2                !
 ! A37   A(13,12,15)           119.9576         estimate D2E/DX2                !
 ! A38   A(12,13,14)           119.6125         estimate D2E/DX2                !
 ! A39   A(12,13,39)           120.1943         estimate D2E/DX2                !
 ! A40   A(14,13,39)           120.1932         estimate D2E/DX2                !
 ! A41   A(9,14,13)            118.9351         estimate D2E/DX2                !
 ! A42   A(12,15,16)           123.0058         estimate D2E/DX2                !
 ! A43   A(12,15,31)           127.6469         estimate D2E/DX2                !
 ! A44   A(15,16,17)           108.0036         estimate D2E/DX2                !
 ! A45   A(17,16,31)            73.1485         estimate D2E/DX2                !
 ! A46   A(16,17,18)           126.5906         estimate D2E/DX2                !
 ! A47   A(16,17,27)           106.8198         estimate D2E/DX2                !
 ! A48   A(18,17,27)           126.5896         estimate D2E/DX2                !
 ! A49   A(17,18,19)           118.9497         estimate D2E/DX2                !
 ! A50   A(17,18,26)           121.302          estimate D2E/DX2                !
 ! A51   A(19,18,26)           119.7445         estimate D2E/DX2                !
 ! A52   A(18,19,20)           121.6775         estimate D2E/DX2                !
 ! A53   A(18,19,40)           119.1613         estimate D2E/DX2                !
 ! A54   A(20,19,40)           119.1612         estimate D2E/DX2                !
 ! A55   A(19,20,21)           121.5709         estimate D2E/DX2                !
 ! A56   A(20,21,22)           119.3712         estimate D2E/DX2                !
 ! A57   A(20,21,41)           120.3144         estimate D2E/DX2                !
 ! A58   A(22,21,41)           120.3144         estimate D2E/DX2                !
 ! A59   A(21,22,23)           134.9816         estimate D2E/DX2                !
 ! A60   A(21,22,26)           118.7584         estimate D2E/DX2                !
 ! A61   A(23,22,26)           106.26           estimate D2E/DX2                !
 ! A62   A(22,24,25)            74.7145         estimate D2E/DX2                !
 ! A63   A(23,24,25)           110.499          estimate D2E/DX2                !
 ! A64   A(23,24,26)            74.2913         estimate D2E/DX2                !
 ! A65   A(18,26,22)           118.8751         estimate D2E/DX2                !
 ! A66   A(18,26,25)           134.9119         estimate D2E/DX2                !
 ! A67   A(22,26,25)           106.213          estimate D2E/DX2                !
 ! A68   A(17,27,28)           141.5356         estimate D2E/DX2                !
 ! A69   A(17,27,31)           107.2144         estimate D2E/DX2                !
 ! A70   A(28,27,31)           111.2495         estimate D2E/DX2                !
 ! A71   A(27,28,29)           105.4823         estimate D2E/DX2                !
 ! A72   A(27,28,42)           110.4585         estimate D2E/DX2                !
 ! A73   A(27,28,43)           111.785          estimate D2E/DX2                !
 ! A74   A(29,28,42)           110.4591         estimate D2E/DX2                !
 ! A75   A(29,28,43)           111.7852         estimate D2E/DX2                !
 ! A76   A(42,28,43)           106.9287         estimate D2E/DX2                !
 ! A77   A(28,29,30)           101.7675         estimate D2E/DX2                !
 ! A78   A(28,29,44)           111.3616         estimate D2E/DX2                !
 ! A79   A(30,29,44)           111.3613         estimate D2E/DX2                !
 ! A80   A(29,30,31)           104.2425         estimate D2E/DX2                !
 ! A81   A(15,31,27)           108.6451         estimate D2E/DX2                !
 ! A82   A(15,31,30)           141.4468         estimate D2E/DX2                !
 ! A83   A(16,31,27)            72.8171         estimate D2E/DX2                !
 ! A84   A(27,31,30)           109.9081         estimate D2E/DX2                !
 ! A85   L(3,4,6,1,-1)         181.8846         estimate D2E/DX2                !
 ! A86   L(1,8,6,3,-1)         178.033          estimate D2E/DX2                !
 ! A87   L(21,22,24,15,-1)     189.4553         estimate D2E/DX2                !
 ! A88   L(18,26,24,1,-1)      170.4261         estimate D2E/DX2                !
 ! A89   L(16,31,30,27,-1)     182.7252         estimate D2E/DX2                !
 ! A90   L(3,4,6,1,-2)         180.0038         estimate D2E/DX2                !
 ! A91   L(1,8,6,3,-2)         179.68           estimate D2E/DX2                !
 ! A92   L(21,22,24,15,-2)     179.7654         estimate D2E/DX2                !
 ! A93   L(18,26,24,1,-2)      178.6417         estimate D2E/DX2                !
 ! A94   L(16,31,30,27,-2)     180.1307         estimate D2E/DX2                !
 ! D1    D(8,1,2,3)             -0.4953         estimate D2E/DX2                !
 ! D2    D(8,1,2,34)           179.5048         estimate D2E/DX2                !
 ! D3    D(32,1,2,3)          -119.9232         estimate D2E/DX2                !
 ! D4    D(32,1,2,34)           60.0769         estimate D2E/DX2                !
 ! D5    D(33,1,2,3)           121.0608         estimate D2E/DX2                !
 ! D6    D(33,1,2,34)          -58.9391         estimate D2E/DX2                !
 ! D7    D(2,1,6,5)              0.2845         estimate D2E/DX2                !
 ! D8    D(32,1,6,5)           119.4014         estimate D2E/DX2                !
 ! D9    D(33,1,6,5)          -120.7628         estimate D2E/DX2                !
 ! D10   D(2,1,8,4)              0.485          estimate D2E/DX2                !
 ! D11   D(2,1,8,7)            179.8588         estimate D2E/DX2                !
 ! D12   D(32,1,8,4)           119.9129         estimate D2E/DX2                !
 ! D13   D(32,1,8,7)           -60.7133         estimate D2E/DX2                !
 ! D14   D(33,1,8,4)          -121.0712         estimate D2E/DX2                !
 ! D15   D(33,1,8,7)            58.3026         estimate D2E/DX2                !
 ! D16   D(1,2,3,4)              0.3034         estimate D2E/DX2                !
 ! D17   D(1,2,3,35)          -179.6964         estimate D2E/DX2                !
 ! D18   D(34,2,3,4)          -179.6967         estimate D2E/DX2                !
 ! D19   D(34,2,3,35)            0.3035         estimate D2E/DX2                !
 ! D20   D(2,3,4,5)            179.9799         estimate D2E/DX2                !
 ! D21   D(2,3,4,8)             -0.0051         estimate D2E/DX2                !
 ! D22   D(35,3,4,5)            -0.0203         estimate D2E/DX2                !
 ! D23   D(35,3,4,8)           179.9947         estimate D2E/DX2                !
 ! D24   D(2,3,6,7)             -0.0493         estimate D2E/DX2                !
 ! D25   D(35,3,6,7)           179.9525         estimate D2E/DX2                !
 ! D26   D(3,4,5,36)             0.0042         estimate D2E/DX2                !
 ! D27   D(8,4,5,36)           179.9893         estimate D2E/DX2                !
 ! D28   D(3,4,8,1)             -0.3244         estimate D2E/DX2                !
 ! D29   D(3,4,8,7)           -179.962          estimate D2E/DX2                !
 ! D30   D(5,4,8,1)            179.6849         estimate D2E/DX2                !
 ! D31   D(5,4,8,7)              0.0473         estimate D2E/DX2                !
 ! D32   D(36,5,6,7)           179.9675         estimate D2E/DX2                !
 ! D33   D(36,5,6,8)          -179.9932         estimate D2E/DX2                !
 ! D34   D(4,6,7,9)           -179.9575         estimate D2E/DX2                !
 ! D35   D(5,6,7,9)           -179.9378         estimate D2E/DX2                !
 ! D36   D(9,7,8,1)              0.5542         estimate D2E/DX2                !
 ! D37   D(9,7,8,4)            179.9338         estimate D2E/DX2                !
 ! D38   D(6,7,9,10)          -161.3149         estimate D2E/DX2                !
 ! D39   D(6,7,9,14)            18.4005         estimate D2E/DX2                !
 ! D40   D(8,7,9,10)            18.6852         estimate D2E/DX2                !
 ! D41   D(8,7,9,14)          -161.5994         estimate D2E/DX2                !
 ! D42   D(7,9,10,11)         -166.1542         estimate D2E/DX2                !
 ! D43   D(7,9,10,37)           13.8458         estimate D2E/DX2                !
 ! D44   D(14,9,10,11)          14.1278         estimate D2E/DX2                !
 ! D45   D(14,9,10,37)        -165.8721         estimate D2E/DX2                !
 ! D46   D(7,9,14,13)         -179.7803         estimate D2E/DX2                !
 ! D47   D(10,9,14,13)          -0.0577         estimate D2E/DX2                !
 ! D48   D(9,10,11,12)         -13.9925         estimate D2E/DX2                !
 ! D49   D(9,10,11,38)         166.0074         estimate D2E/DX2                !
 ! D50   D(37,10,11,12)        166.0074         estimate D2E/DX2                !
 ! D51   D(37,10,11,38)        -13.9926         estimate D2E/DX2                !
 ! D52   D(10,11,12,13)         -0.5085         estimate D2E/DX2                !
 ! D53   D(10,11,12,15)        179.4918         estimate D2E/DX2                !
 ! D54   D(38,11,12,13)        179.4915         estimate D2E/DX2                !
 ! D55   D(38,11,12,15)         -0.5081         estimate D2E/DX2                !
 ! D56   D(11,12,13,14)         14.7998         estimate D2E/DX2                !
 ! D57   D(11,12,13,39)       -165.2002         estimate D2E/DX2                !
 ! D58   D(15,12,13,14)       -165.2006         estimate D2E/DX2                !
 ! D59   D(15,12,13,39)         14.7995         estimate D2E/DX2                !
 ! D60   D(11,12,15,16)         16.9587         estimate D2E/DX2                !
 ! D61   D(11,12,15,31)       -160.8141         estimate D2E/DX2                !
 ! D62   D(13,12,15,16)       -163.041          estimate D2E/DX2                !
 ! D63   D(13,12,15,31)         19.1862         estimate D2E/DX2                !
 ! D64   D(12,13,14,9)         -14.3286         estimate D2E/DX2                !
 ! D65   D(39,13,14,9)         165.6714         estimate D2E/DX2                !
 ! D66   D(12,15,16,17)       -178.2088         estimate D2E/DX2                !
 ! D67   D(12,15,31,27)        178.1626         estimate D2E/DX2                !
 ! D68   D(12,15,31,30)         -1.7712         estimate D2E/DX2                !
 ! D69   D(15,16,17,18)        179.9841         estimate D2E/DX2                !
 ! D70   D(15,16,17,27)         -0.0163         estimate D2E/DX2                !
 ! D71   D(31,16,17,18)        179.9379         estimate D2E/DX2                !
 ! D72   D(31,16,17,27)         -0.0624         estimate D2E/DX2                !
 ! D73   D(17,16,31,27)          0.0637         estimate D2E/DX2                !
 ! D74   D(16,17,18,19)        173.1809         estimate D2E/DX2                !
 ! D75   D(16,17,18,26)         -6.1169         estimate D2E/DX2                !
 ! D76   D(27,17,18,19)         -6.8187         estimate D2E/DX2                !
 ! D77   D(27,17,18,26)        173.8835         estimate D2E/DX2                !
 ! D78   D(16,17,27,28)       -179.6329         estimate D2E/DX2                !
 ! D79   D(16,17,27,31)          0.1003         estimate D2E/DX2                !
 ! D80   D(18,17,27,28)          0.3668         estimate D2E/DX2                !
 ! D81   D(18,17,27,31)       -179.9            estimate D2E/DX2                !
 ! D82   D(17,18,19,20)       -178.7621         estimate D2E/DX2                !
 ! D83   D(17,18,19,40)          1.238          estimate D2E/DX2                !
 ! D84   D(26,18,19,20)          0.5469         estimate D2E/DX2                !
 ! D85   D(26,18,19,40)       -179.4531         estimate D2E/DX2                !
 ! D86   D(17,18,24,23)        179.1201         estimate D2E/DX2                !
 ! D87   D(19,18,24,23)         -0.2329         estimate D2E/DX2                !
 ! D88   D(17,18,26,22)        179.048          estimate D2E/DX2                !
 ! D89   D(17,18,26,25)         -0.9948         estimate D2E/DX2                !
 ! D90   D(19,18,26,22)         -0.2442         estimate D2E/DX2                !
 ! D91   D(19,18,26,25)        179.713          estimate D2E/DX2                !
 ! D92   D(18,19,20,21)         -0.6082         estimate D2E/DX2                !
 ! D93   D(40,19,20,21)        179.3918         estimate D2E/DX2                !
 ! D94   D(19,20,21,22)          0.3473         estimate D2E/DX2                !
 ! D95   D(19,20,21,41)       -179.6529         estimate D2E/DX2                !
 ! D96   D(20,21,22,23)        179.9638         estimate D2E/DX2                !
 ! D97   D(20,21,22,26)         -0.0514         estimate D2E/DX2                !
 ! D98   D(41,21,22,23)         -0.0361         estimate D2E/DX2                !
 ! D99   D(41,21,22,26)        179.9487         estimate D2E/DX2                !
 ! D100  D(20,21,24,25)         -0.1035         estimate D2E/DX2                !
 ! D101  D(41,21,24,25)        179.9078         estimate D2E/DX2                !
 ! D102  D(21,22,26,18)          0.0026         estimate D2E/DX2                !
 ! D103  D(21,22,26,25)       -179.9659         estimate D2E/DX2                !
 ! D104  D(23,22,26,18)        179.9914         estimate D2E/DX2                !
 ! D105  D(23,22,26,25)          0.0229         estimate D2E/DX2                !
 ! D106  D(17,27,28,29)       -163.0737         estimate D2E/DX2                !
 ! D107  D(17,27,28,42)         77.556          estimate D2E/DX2                !
 ! D108  D(17,27,28,43)        -41.3769         estimate D2E/DX2                !
 ! D109  D(31,27,28,29)         17.1998         estimate D2E/DX2                !
 ! D110  D(31,27,28,42)       -102.1705         estimate D2E/DX2                !
 ! D111  D(31,27,28,43)        138.8966         estimate D2E/DX2                !
 ! D112  D(17,27,31,15)         -0.1494         estimate D2E/DX2                !
 ! D113  D(17,27,31,16)         -0.0626         estimate D2E/DX2                !
 ! D114  D(17,27,31,30)        179.8067         estimate D2E/DX2                !
 ! D115  D(28,27,31,15)        179.6725         estimate D2E/DX2                !
 ! D116  D(28,27,31,16)        179.7593         estimate D2E/DX2                !
 ! D117  D(28,27,31,30)         -0.3714         estimate D2E/DX2                !
 ! D118  D(27,28,29,30)        -25.7707         estimate D2E/DX2                !
 ! D119  D(27,28,29,44)       -144.5209         estimate D2E/DX2                !
 ! D120  D(42,28,29,30)         93.5992         estimate D2E/DX2                !
 ! D121  D(42,28,29,44)        -25.1511         estimate D2E/DX2                !
 ! D122  D(43,28,29,30)       -147.4674         estimate D2E/DX2                !
 ! D123  D(43,28,29,44)         93.7824         estimate D2E/DX2                !
 ! D124  D(28,29,30,31)         25.1738         estimate D2E/DX2                !
 ! D125  D(44,29,30,31)        143.9243         estimate D2E/DX2                !
 ! D126  D(29,30,31,15)        163.4297         estimate D2E/DX2                !
 ! D127  D(29,30,31,27)        -16.5037         estimate D2E/DX2                !
 --------------------------------------------------------------------------------
 Trust Radius=3.00D-01 FncErr=1.00D-07 GrdErr=1.00D-06
 Number of steps in this run=    264 maximum allowed number of steps=    264.
 GradGradGradGradGradGradGradGradGradGradGradGradGradGradGradGradGradGrad

                          Input orientation:                          
 ---------------------------------------------------------------------
 Center     Atomic      Atomic             Coordinates (Angstroms)
 Number     Number       Type             X           Y           Z
 ---------------------------------------------------------------------
      1          6           0       -1.249000    1.158000   -0.004000
      2          6           0       -2.094000   -0.044000    0.002000
      3          6           0       -1.292000   -1.075000    0.000000
      4          6           0       -0.015000   -0.662000    0.000000
      5          6           0        1.242000   -1.078000   -0.001000
      6         16           0        2.041000   -0.071000    0.000000
      7          6           0        1.349000    1.058000    0.001000
      8          6           0        0.021000    0.714000    0.002000
      9          6           0        1.889610    2.396990    0.001030
     10          6           0        1.100070    3.514350    0.391300
     11          6           0        1.553470    4.812270    0.104270
     12          6           0        2.787350    5.005060   -0.258930
     13          6           0        3.669160    3.920270   -0.354250
     14          7           0        3.156160    2.600360   -0.365450
     15          6           0        3.249150    6.338700   -0.564330
     16         16           0        2.589350    7.443390   -0.189680
     17          6           0        3.260910    8.509520   -0.662610
     18          6           0        2.902030    9.897790   -0.492140
     19          6           0        3.761460   10.852260   -0.913490
     20          7           0        3.491070   12.175060   -0.758110
     21          6           0        2.343860   12.599860   -0.185480
     22          6           0        1.404990   11.650560    0.269810
     23          7           0        0.213110   11.713790    0.861510
     24         16           0       -0.224680   10.480050    1.065670
     25          7           0        0.649770    9.600710    0.620990
     26          6           0        1.697380   10.267040    0.109490
     27          6           0        4.352360    8.023710   -1.338020
     28          6           0        5.527320    8.470870   -2.098920
     29          6           0        6.012360    7.227820   -2.876660
     30         34           0        5.488650    6.076690   -1.989150
     31          6           0        4.306780    6.679600   -1.255160
     32          1           0       -1.440050    1.751970    0.865250
     33          1           0       -1.446620    1.773750   -0.856460
     34          1           0       -3.125690   -0.068950    0.006870
     35          1           0       -1.595440   -2.061380   -0.001380
     36          1           0        1.537330   -2.066840   -0.002380
     37          1           0        0.202640    3.372470    0.880700
     38          1           0        0.907350    5.613260    0.181580
     39          1           0        4.686500    4.082240   -0.415930
     40          1           0        4.645430   10.569300   -1.364650
     41          1           0        2.155990   13.609330   -0.082030
     42          1           0        6.291740    8.819160   -1.436140
     43          1           0        5.290330    9.282250   -2.754960
     44          1           0        7.079490    7.207210   -2.952170
 ---------------------------------------------------------------------
                    Distance matrix (angstroms):
                    1          2          3          4          5
     1  C    0.000000
     2  C    1.469308   0.000000
     3  C    2.233418   1.306204   0.000000
     4  C    2.198902   2.168910   1.342124   0.000000
     5  C    3.347355   3.492572   2.534002   1.324049   0.000000
     6  S    3.512059   4.135089   3.480935   2.139256   1.285477
     7  C    2.599929   3.615059   3.394786   2.195199   2.138679
     8  C    1.345389   2.246729   2.219120   1.376472   2.168436
     9  C    3.374314   4.672000   4.709284   3.603465   3.534821
    10  C    3.350638   4.797446   5.190111   4.340322   4.611260
    11  C    4.606436   6.074360   6.539688   5.695490   5.899439
    12  C    5.581844   7.027707   7.326341   6.327383   6.281580
    13  C    5.651647   7.004025   7.049207   5.890308   5.567638
    14  N    4.649353   5.889978   5.781691   4.564296   4.162591
    15  C    6.883820   8.343191   8.712259   7.744866   7.704118
    16  S    7.367057   8.833545   9.362896   8.515631   8.629313
    17  C    8.649734  10.113331  10.631607   9.761527   9.820095
    18  C    9.687789  11.137490  11.757305  10.966332  11.111475
    19  C   10.950368  12.403750  12.985817  12.152131  12.227486
    20  N   12.017178  13.456456  14.107324  13.328817  13.463845
    21  C   11.994071  13.401379  14.151172  13.471286  13.723410
    22  C   10.826470  12.209725  13.011012  12.397109  12.732484
    23  N   10.691659  12.012791  12.905840  12.407837  12.862054
    24  S    9.438964  10.741572  11.653068  11.194860  11.699464
    25  N    8.676133  10.046485  10.868619  10.302949  10.713191
    26  C    9.574374  10.986522  11.729887  11.062918  11.354713
    27  C    8.960626  10.413412  10.790534   9.813546   9.710978
    28  C   10.187506  11.619010  11.917727  10.887244  10.674556
    29  C    9.890513  11.264063  11.426533  10.336997  10.000620
    30  Se   8.574979   9.946060  10.053885   8.925067   8.554319
    31  C    7.932223   9.367883   9.646532   8.611173   8.434818
    32  H    1.069998   2.097227   2.960124   2.933714   3.994060
    33  H    1.069995   2.111935   2.978726   2.952277   4.011604
    34  H    2.242206   1.032003   2.091555   3.166725   4.482740
    35  H    3.237968   2.078075   1.032000   2.110937   3.003016
    36  H    4.261834   4.156737   2.998143   2.093635   1.032001
    37  H    2.791743   4.209387   4.773842   4.135208   4.654498
    38  H    4.953143   6.406633   7.042935   6.345281   6.702111
    39  H    6.629557   7.948314   7.906490   6.692153   6.218105
    40  H   11.187861  12.646335  13.141730  12.236175  12.210752
    41  H   12.908744  14.299752  15.083929  14.435747  14.715964
    42  H   10.844683  12.285947  12.548706  11.477363  11.203271
    43  H   10.785827  12.210983  12.577341  11.602777  11.458973
    44  H   10.707399  12.060683  12.140517  10.998707  10.556060
                    6          7          8          9         10
     6  S    0.000000
     7  C    1.324200   0.000000
     8  C    2.167171   1.371831   0.000000
     9  C    2.472629   1.444006   2.514788   0.000000
    10  C    3.727358   2.499591   3.026203   1.422736   0.000000
    11  C    4.908654   3.761252   4.376613   2.440743   1.404476
    12  C    5.137165   4.209002   5.112140   2.770477   2.343487
    13  C    4.325117   3.701612   4.869923   2.369262   2.705705
    14  N    2.917756   2.403952   3.677309   1.334097   2.373932
    15  C    6.546934   5.640564   6.509910   4.207738   3.675422
    16  S    7.536758   6.507537   7.205404   5.098251   4.241798
    17  C    8.692097   7.721459   8.468108   6.299516   5.543616
    18  C   10.018001   8.988714   9.637765   7.584867   6.691475
    19  C   11.095587  10.128365  10.844975   8.708143   7.913937
    20  N   12.354895  11.346970  11.998960   9.937385   9.057920
    21  C   12.675836  11.586158  12.112163  10.214680   9.188372
    22  C   11.741903  10.596118  11.027035   9.270149   8.142828
    23  N   11.956783  10.750655  11.034992   9.505464   8.260667
    24  S   10.844059   9.611712   9.826876   8.422561   7.122550
    25  N    9.790972   8.593672   8.930404   7.335880   6.107316
    26  C   10.344329   9.216266   9.699607   7.873144   6.784911
    27  C    8.523908   7.702874   8.601639   6.286348   5.822565
    28  C    9.461682   8.764626   9.741789   7.384764   7.097100
    29  C    8.793159   8.251941   9.306607   6.972452   6.971371
    30  Se   7.323735   6.803282   7.913174   5.518523   5.611752
    31  C    7.230476   6.475244   7.452298   5.075576   4.797148
    32  H    4.023628   3.001220   1.989284   3.499938   3.127750
    33  H    4.037341   3.010486   2.003480   3.500592   3.327495
    34  H    5.166695   4.614423   3.242637   5.588750   5.553816
    35  H    4.145517   4.289553   3.211794   5.658855   6.205541
    36  H    2.058414   3.130512   3.167388   4.477710   5.612117
    37  H    4.001585   2.728513   2.805810   2.138048   1.031999
    38  H    5.799047   4.580181   4.982029   3.367763   2.118147
    39  H    4.941768   4.523137   5.769454   3.291887   3.719758
    40  H   11.039081  10.158557  10.971783   8.731911   8.088588
    41  H   13.681059  12.577520  13.071143  11.215811  10.161084
    42  H    9.958224   9.312983  10.348142   7.917605   7.644212
    43  H   10.277706   9.527208  10.429841   8.158871   7.792683
    44  H    9.331347   8.909125  10.035496   7.667755   7.782639
                   11         12         13         14         15
    11  C    0.000000
    12  C    1.300593   0.000000
    13  C    2.341378   1.401230   0.000000
    14  N    2.771606   2.435149   1.416142   0.000000
    15  C    2.377466   1.443996   2.463604   3.744781   0.000000
    16  S    2.842929   2.447336   3.688556   4.879253   1.340164
    17  C    4.144046   3.559278   4.617680   5.917554   2.173075
    18  C    5.294982   4.899627   6.028121   7.302953   3.576706
    19  C    6.510955   5.963815   6.955124   8.292201   4.555941
    20  N    7.662158   7.221724   8.266582   9.588599   5.844585
    21  C    7.832958   7.608092   8.781810  10.034053   6.337602
    22  C    6.841905   6.808315   8.079189   9.239928   5.684415
    23  N    7.071135   7.272493   8.611696   9.655132   6.335783
    24  S    6.017461   6.387676   7.759438   8.692968   5.645810
    25  N    4.900289   5.144269   6.506551   7.500664   4.336181
    26  C    5.456671   5.386298   6.662166   7.818669   4.277134
    27  C    4.497481   3.567343   4.274668   5.638219   2.157528
    28  C    5.833600   4.785900   5.215802   6.564313   3.477237
    29  C    5.882391   4.711036   4.774204   5.989778   3.711163
    30  Se   4.633229   3.382170   3.260918   4.490187   2.667231
    31  C    3.593840   2.470876   2.971885   4.330786   1.308450
    32  H    4.348067   5.451356   5.682669   4.833170   6.713448
    33  H    4.376773   5.359562   5.570545   4.702123   6.555484
    34  H    6.762421   7.796170   7.887602   6.835604   9.056646
    35  H    7.561340   8.319240   7.976256   6.666489   9.713306
    36  H    6.879956   7.186107   6.365061   4.953301   8.596465
    37  H    2.121464   3.262642   3.720477   3.297321   4.490864
    38  H    1.032004   2.024440   3.283432   3.799204   2.562552
    39  H    3.258747   2.117314   1.031998   2.130835   2.679479
    40  H    6.697861   5.969577   6.795853   8.168251   4.526377
    41  H    8.819637   8.629216   9.810284  11.057942   7.368153
    42  H    6.393687   5.311679   5.661054   7.046397   4.021205
    43  H    6.489995   5.548822   6.094459   7.410269   4.198781
    44  H    6.753848   5.524986   5.402177   6.580783   4.596476
                   16         17         18         19         20
    16  S    0.000000
    17  C    1.345841   0.000000
    18  C    2.492655   1.444004   0.000000
    19  C    3.676702   2.408718   1.351728   0.000000
    20  N    4.850249   3.674000   2.367207   1.359063   0.000000
    21  C    5.162312   4.218947   2.776108   2.365099   1.350722
    22  C    4.394783   3.765631   2.427735   2.755074   2.383999
    23  N    4.998783   4.677539   3.515752   4.060006   3.685236
    24  S    4.326196   4.361110   3.541485   4.465974   4.472810
    25  N    3.012173   3.107471   2.529820   3.688309   4.074577
    26  C    2.976258   2.475811   1.396240   2.376846   2.758730
    27  C    2.182581   1.372390   2.516177   2.920631   4.279232
    28  C    3.651381   2.683486   3.392638   3.192886   4.434536
    29  C    4.356986   3.757027   4.742239   4.696504   5.943092
    30  Se   3.675854   3.555446   4.851025   5.190982   6.534210
    31  C    2.160599   2.189422   3.593365   4.221990   5.577860
    32  H    7.052744   8.372447   9.330088  10.631787  11.644400
    33  H    6.991314   8.220037   9.221904  10.466456  11.514239
    34  H    9.441163  10.715737  11.658402  12.944216  13.938525
    35  H   10.386943  11.651836  12.786314  14.010368  15.136758
    36  H    9.570073  10.736201  12.052163  13.140777  14.395136
    37  H    4.838852   6.174472   7.193830   8.475351   9.538609
    38  H    2.513232   3.826254   4.773871   6.065661   7.114481
    39  H    3.968193   4.657678   6.083647   6.851017   8.187788
    40  H    3.921649   2.579234   2.061951   1.031995   2.068551
    41  H    6.182087   5.250332   3.807925   3.297013   2.072837
    42  H    4.141751   3.143272   3.680314   3.287701   4.423295
    43  H    4.154198   3.015557   3.347121   2.862409   3.948809
    44  H    5.277167   4.638928   5.544560   5.334035   6.509239
                   21         22         23         24         25
    21  C    0.000000
    22  C    1.410651   0.000000
    23  N    2.534049   1.332173   0.000000
    24  S    3.557579   2.158544   1.324936   0.000000
    25  N    3.537688   2.212593   2.171089   1.317438   0.000000
    26  C    2.438646   1.423138   2.204921   2.157306   1.342801
    27  C    5.128701   4.942282   5.965569   5.723690   4.475916
    28  C    5.553758   5.719695   6.893584   6.865635   5.697802
    29  C    7.039826   7.119604   8.229772   8.063475   6.827996
    30  Se   7.462887   7.269608   8.230096   7.833495   6.530414
    31  C    6.328250   5.954525   6.825064   6.353251   5.042474
    32  H   11.536842  10.316535  10.098060   8.814572   8.125868
    33  H   11.490109  10.341738  10.223039   8.999299   8.236444
    34  H   13.800425  12.567542  12.276439  10.991739  10.398729
    35  H   15.182356  14.038997  13.920156  12.661163  11.892546
    36  H   14.690000  13.720738  13.871036  12.714946  11.717853
    37  H    9.532381   8.387229   8.341349   7.122816   6.249668
    38  H    7.142190   6.058417   6.177438   5.074323   4.019849
    39  H    8.836907   8.277561   8.937764   8.200415   6.915483
    40  H    3.287984   3.786956   5.090295   5.443564   4.565767
    41  H    1.032001   2.127104   2.873695   4.095998   4.339582
    42  H    5.607459   5.899781   7.113917   7.175050   6.055942
    43  H    5.127421   5.463881   6.690994   6.815224   5.747456
    44  H    7.691647   7.894585   9.055418   8.955748   7.735478
                   26         27         28         29         30
    26  C    0.000000
    27  C    3.765200   0.000000
    28  C    4.771975   1.469507   0.000000
    29  C    6.064075   2.399261   1.544447   0.000000
    30  Se   6.028022   2.346489   2.397007   1.545007   0.000000
    31  C    4.641224   1.347433   2.326005   2.416363   1.516265
    32  H    9.106100   8.817093  10.122952   9.976234   8.652034
    33  H    9.107896   8.539442   9.748383   9.458566   8.239918
    34  H   11.406368  11.100500  12.338454  12.044150  10.768465
    35  H   12.761070  11.784395  12.886492  12.346461  10.971041
    36  H   12.335426  10.560659  11.461188  10.708785   9.266999
    37  H    7.096767   6.616414   7.951354   7.920500   6.594751
    38  H    4.720912   4.470743   5.891582   6.166098   5.090692
    39  H    6.889315   4.061660   4.774883   4.208060   2.663887
    40  H    3.309902   2.562543   2.391713   3.914098   4.613520
    41  H    3.379039   6.131941   6.468190   7.962739   8.454844
    42  H    5.058999   2.098467   1.070010   2.164605   2.910655
    43  H    4.699380   2.114576   1.069995   2.181014   3.301728
    44  H    6.906767   3.272521   2.175800   1.069997   2.176294
                   31         32         33         34         35
    31  C    0.000000
    32  H    7.861535   0.000000
    33  H    7.571521   1.721860   0.000000
    34  H   10.118165   2.625633   2.638211   0.000000
    35  H   10.621342   3.913672   3.932115   2.512272   0.000000
    36  H    9.259564   4.919439   4.937969   5.073008   3.132775
    37  H    5.687088   2.307529   2.879877   4.866696   5.791190
    38  H    3.841540   4.570257   4.621746   6.970183   8.074499
    39  H    2.755862   6.678787   6.567979   8.856718   8.796516
    40  H    3.905949  10.943072  10.711351  13.245518  14.154188
    41  H    7.350054  12.426819  12.395947  14.662858  16.113686
    42  H    2.924130  10.724838  10.481224  13.029534  13.514892
    43  H    3.160784  10.728889  10.264910  12.880297  13.552637
    44  H    3.293347  10.812719  10.325165  12.878048  13.033355
                   36         37         38         39         40
    36  H    0.000000
    37  H    5.669861   0.000000
    38  H    7.708090   2.450821   0.000000
    39  H    6.920945   4.721231   4.121045   0.000000
    40  H   13.083887   8.750677   6.397375   6.556196   0.000000
    41  H   15.688575  10.465932   8.097267   9.863083   4.133305
    42  H   11.965161   8.491838   6.471976   5.104511   2.403838
    43  H   12.266358   8.603959   6.426139   5.733740   2.001338
    44  H   11.199321   8.757122   7.103265   4.682345   4.443930
                   41         42         43         44
    41  H    0.000000
    42  H    6.471767   0.000000
    43  H    5.974300   1.719465   0.000000
    44  H    8.571213   2.348889   2.746958   0.000000
 Stoichiometry    C23H13N4S3Se(2)
 Framework group  C1[X(C23H13N4S3Se)]
 Deg. of freedom   126
 Full point group                 C1      NOp   1
 Largest Abelian subgroup         C1      NOp   1
 Largest concise Abelian subgroup C1      NOp   1
                         Standard orientation:                         
 ---------------------------------------------------------------------
 Center     Atomic      Atomic             Coordinates (Angstroms)
 Number     Number       Type             X           Y           Z
 ---------------------------------------------------------------------
      1          6           0       -5.363009   -2.467097    0.775411
      2          6           0       -6.713810   -2.979806    1.042493
      3          6           0       -7.554692   -2.047764    0.681406
      4          6           0       -6.885475   -0.987708    0.202108
      5          6           0       -7.030665    0.225381   -0.308227
      6         16           0       -5.880290    0.734221   -0.573120
      7          6           0       -4.920708   -0.118960   -0.249406
      8          6           0       -5.533126   -1.239335    0.252217
      9          6           0       -3.499531    0.090264   -0.396488
     10          6           0       -2.586168   -1.000577   -0.393027
     11          6           0       -1.212531   -0.748572   -0.244127
     12          6           0       -0.753935    0.460505   -0.383282
     13          6           0       -1.627308    1.511758   -0.692363
     14          7           0       -3.023677    1.327744   -0.544889
     15          6           0        0.657048    0.719893   -0.219065
     16         16           0        1.585590   -0.245885   -0.252563
     17          6           0        2.784986    0.322300   -0.029171
     18          6           0        4.060915   -0.351965    0.021006
     19          6           0        5.188309    0.387431    0.118199
     20          7           0        6.419211   -0.188103    0.144520
     21          6           0        6.574454   -1.528637    0.086921
     22          6           0        5.434326   -2.353632   -0.010173
     23          7           0        5.226158   -3.667301   -0.085188
     24         16           0        3.921598   -3.886028   -0.160936
     25          7           0        3.260573   -2.746698   -0.136150
     26          6           0        4.148833   -1.743942   -0.043464
     27          6           0        2.562360    1.665680    0.141769
     28          6           0        3.272206    2.925487    0.403415
     29          6           0        2.187163    3.921045    0.869101
     30         34           0        0.919925    3.340404    0.202760
     31          6           0        1.236015    1.868890    0.018931
     32          1           0       -4.854684   -3.101365    0.079562
     33          1           0       -4.770370   -2.436825    1.665777
     34          1           0       -6.952909   -3.901656    1.440053
     35          1           0       -8.581852   -2.116350    0.753949
     36          1           0       -7.935720    0.694194   -0.469830
     37          1           0       -2.929761   -1.967919   -0.498934
     38          1           0       -0.566869   -1.523038   -0.024226
     39          1           0       -1.255141    2.414818   -1.025521
     40          1           0        5.112423    1.415128    0.173834
     41          1           0        7.518201   -1.945352    0.113691
     42          1           0        3.746799    3.279437   -0.487877
     43          1           0        4.040526    2.803208    1.138005
     44          1           0        2.391743    4.911738    0.520436
 ---------------------------------------------------------------------
 Rotational constants (GHZ):      0.1869555      0.0556355      0.0434905
 Standard basis: 6-31++G(d,p) (6D, 7F)
 There are   694 symmetry adapted basis functions of A   symmetry.
 Integral buffers will be    131072 words long.
 Raffenetti 2 integral format.
 Two-electron integral symmetry is turned on.
   694 basis functions,  1223 primitive gaussians,   694 cartesian basis functions
   131 alpha electrons      130 beta electrons
       nuclear repulsion energy      4004.4314172082 Hartrees.
 NAtoms=   44 NActive=   44 NUniq=   44 SFac= 1.00D+00 NAtFMM=   60 NAOKFM=F Big=F
 One-electron integrals computed using PRISM.
 NBasis=   694 RedAO= T  NBF=   694
 NBsUse=   684 1.00D-06 NBFU=   684
 Harris functional with IExCor=  402 diagonalized for initial guess.
 ExpMin= 3.00D-02 ExpMax= 5.61D+05 ExpMxC= 5.42D+03 IAcc=3 IRadAn=         5 AccDes= 0.00D+00
 HarFok:  IExCor=  402 AccDes= 0.00D+00 IRadAn=         5 IDoV= 1
 ScaDFX=  1.000000  1.000000  1.000000  1.000000
 FoFCou: FMM=F IPFlag=           0 FMFlag=      100000 FMFlg1=           0
         NFxFlg=           0 DoJE=T BraDBF=F KetDBF=T FulRan=T
         Omega=  0.000000  0.000000  1.000000  0.000000  0.000000 ICntrl=     500 IOpCl=  0
         NMat0=    1 NMatS0=    1 NMatT0=    0 NMatD0=    1 NMtDS0=    0 NMtDT0=    0
         I1Cent=           4 NGrid=           0.
 Petite list used in FoFCou.
 Initial guess orbital symmetries:
 Alpha Orbitals:
       Occupied  (A) (A) (A) (A) (A) (A) (A) (A) (A) (A) (A) (A)
                 (A) (A) (A) (A) (A) (A) (A) (A) (A) (A) (A) (A)
                 (A) (A) (A) (A) (A) (A) (A) (A) (A) (A) (A) (A)
                 (A) (A) (A) (A) (A) (A) (A) (A) (A) (A) (A) (A)
                 (A) (A) (A) (A) (A) (A) (A) (A) (A) (A) (A) (A)
                 (A) (A) (A) (A) (A) (A) (A) (A) (A) (A) (A) (A)
                 (A) (A) (A) (A) (A) (A) (A) (A) (A) (A) (A) (A)
                 (A) (A) (A) (A) (A) (A) (A) (A) (A) (A) (A) (A)
                 (A) (A) (A) (A) (A) (A) (A) (A) (A) (A) (A) (A)
                 (A) (A) (A) (A) (A) (A) (A) (A) (A) (A) (A) (A)
                 (A) (A) (A) (A) (A) (A) (A) (A) (A) (A) (A)
       Virtual   (A) (A) (A) (A) (A) (A) (A) (A) (A) (A) (A) (A)
                 (A) (A) (A) (A) (A) (A) (A) (A) (A) (A) (A) (A)
                 (A) (A) (A) (A) (A) (A) (A) (A) (A) (A) (A) (A)
                 (A) (A) (A) (A) (A) (A) (A) (A) (A) (A) (A) (A)
                 (A) (A) (A) (A) (A) (A) (A) (A) (A) (A) (A) (A)
                 (A) (A) (A) (A) (A) (A) (A) (A) (A) (A) (A) (A)
                 (A) (A) (A) (A) (A) (A) (A) (A) (A) (A) (A) (A)
                 (A) (A) (A) (A) (A) (A) (A) (A) (A) (A) (A) (A)
                 (A) (A) (A) (A) (A) (A) (A) (A) (A) (A) (A) (A)
                 (A) (A) (A) (A) (A) (A) (A) (A) (A) (A) (A) (A)
                 (A) (A) (A) (A) (A) (A) (A) (A) (A) (A) (A) (A)
                 (A) (A) (A) (A) (A) (A) (A) (A) (A) (A) (A) (A)
                 (A) (A) (A) (A) (A) (A) (A) (A) (A) (A) (A) (A)
                 (A) (A) (A) (A) (A) (A) (A) (A) (A) (A) (A) (A)
                 (A) (A) (A) (A) (A) (A) (A) (A) (A) (A) (A) (A)
                 (A) (A) (A) (A) (A) (A) (A) (A) (A) (A) (A) (A)
                 (A) (A) (A) (A) (A) (A) (A) (A) (A) (A) (A) (A)
                 (A) (A) (A) (A) (A) (A) (A) (A) (A) (A) (A) (A)
                 (A) (A) (A) (A) (A) (A) (A) (A) (A) (A) (A) (A)
                 (A) (A) (A) (A) (A) (A) (A) (A) (A) (A) (A) (A)
                 (A) (A) (A) (A) (A) (A) (A) (A) (A) (A) (A) (A)
                 (A) (A) (A) (A) (A) (A) (A) (A) (A) (A) (A) (A)
                 (A) (A) (A) (A) (A) (A) (A) (A) (A) (A) (A) (A)
                 (A) (A) (A) (A) (A) (A) (A) (A) (A) (A) (A) (A)
                 (A) (A) (A) (A) (A) (A) (A) (A) (A) (A) (A) (A)
                 (A) (A) (A) (A) (A) (A) (A) (A) (A) (A) (A) (A)
                 (A) (A) (A) (A) (A) (A) (A) (A) (A) (A) (A) (A)
                 (A) (A) (A) (A) (A) (A) (A) (A) (A) (A) (A) (A)
                 (A) (A) (A) (A) (A) (A) (A) (A) (A) (A) (A) (A)
                 (A) (A) (A) (A) (A) (A) (A) (A) (A) (A) (A) (A)
                 (A) (A) (A) (A) (A) (A) (A) (A) (A) (A) (A) (A)
                 (A) (A) (A) (A) (A) (A) (A) (A) (A) (A) (A) (A)
                 (A) (A) (A) (A) (A) (A) (A) (A) (A) (A) (A) (A)
                 (A) (A) (A) (A) (A) (A) (A) (A) (A) (A) (A) (A)
                 (A) (A) (A) (A) (A) (A) (A) (A) (A) (A) (A) (A)
                 (A) (A) (A) (A) (A) (A) (A) (A) (A) (A) (A) (A)
                 (A) (A) (A) (A) (A) (A) (A) (A) (A) (A) (A) (A)
                 (A) (A) (A) (A) (A) (A) (A) (A) (A) (A) (A) (A)
                 (A) (A) (A) (A) (A) (A) (A) (A) (A) (A) (A) (A)
                 (A) (A) (A) (A) (A) (A) (A) (A) (A) (A) (A) (A)
                 (A) (A) (A) (A) (A) (A) (A) (A) (A) (A) (A) (A)
                 (A) (A) (A) (A) (A) (A) (A) (A) (A) (A) (A) (A)
                 (A) (A) (A) (A) (A) (A) (A) (A) (A) (A) (A) (A)
                 (A) (A) (A) (A) (A) (A) (A) (A) (A) (A) (A) (A)
                 (A) (A) (A) (A) (A) (A) (A) (A) (A) (A) (A) (A)
                 (A) (A) (A) (A) (A) (A) (A) (A) (A) (A) (A) (A)
                 (A)
 Beta  Orbitals:
       Occupied  (A) (A) (A) (A) (A) (A) (A) (A) (A) (A) (A) (A)
                 (A) (A) (A) (A) (A) (A) (A) (A) (A) (A) (A) (A)
                 (A) (A) (A) (A) (A) (A) (A) (A) (A) (A) (A) (A)
                 (A) (A) (A) (A) (A) (A) (A) (A) (A) (A) (A) (A)
                 (A) (A) (A) (A) (A) (A) (A) (A) (A) (A) (A) (A)
                 (A) (A) (A) (A) (A) (A) (A) (A) (A) (A) (A) (A)
                 (A) (A) (A) (A) (A) (A) (A) (A) (A) (A) (A) (A)
                 (A) (A) (A) (A) (A) (A) (A) (A) (A) (A) (A) (A)
                 (A) (A) (A) (A) (A) (A) (A) (A) (A) (A) (A) (A)
                 (A) (A) (A) (A) (A) (A) (A) (A) (A) (A) (A) (A)
                 (A) (A) (A) (A) (A) (A) (A) (A) (A) (A)
       Virtual   (A) (A) (A) (A) (A) (A) (A) (A) (A) (A) (A) (A)
                 (A) (A) (A) (A) (A) (A) (A) (A) (A) (A) (A) (A)
                 (A) (A) (A) (A) (A) (A) (A) (A) (A) (A) (A) (A)
                 (A) (A) (A) (A) (A) (A) (A) (A) (A) (A) (A) (A)
                 (A) (A) (A) (A) (A) (A) (A) (A) (A) (A) (A) (A)
                 (A) (A) (A) (A) (A) (A) (A) (A) (A) (A) (A) (A)
                 (A) (A) (A) (A) (A) (A) (A) (A) (A) (A) (A) (A)
                 (A) (A) (A) (A) (A) (A) (A) (A) (A) (A) (A) (A)
                 (A) (A) (A) (A) (A) (A) (A) (A) (A) (A) (A) (A)
                 (A) (A) (A) (A) (A) (A) (A) (A) (A) (A) (A) (A)
                 (A) (A) (A) (A) (A) (A) (A) (A) (A) (A) (A) (A)
                 (A) (A) (A) (A) (A) (A) (A) (A) (A) (A) (A) (A)
                 (A) (A) (A) (A) (A) (A) (A) (A) (A) (A) (A) (A)
                 (A) (A) (A) (A) (A) (A) (A) (A) (A) (A) (A) (A)
                 (A) (A) (A) (A) (A) (A) (A) (A) (A) (A) (A) (A)
                 (A) (A) (A) (A) (A) (A) (A) (A) (A) (A) (A) (A)
                 (A) (A) (A) (A) (A) (A) (A) (A) (A) (A) (A) (A)
                 (A) (A) (A) (A) (A) (A) (A) (A) (A) (A) (A) (A)
                 (A) (A) (A) (A) (A) (A) (A) (A) (A) (A) (A) (A)
                 (A) (A) (A) (A) (A) (A) (A) (A) (A) (A) (A) (A)
                 (A) (A) (A) (A) (A) (A) (A) (A) (A) (A) (A) (A)
                 (A) (A) (A) (A) (A) (A) (A) (A) (A) (A) (A) (A)
                 (A) (A) (A) (A) (A) (A) (A) (A) (A) (A) (A) (A)
                 (A) (A) (A) (A) (A) (A) (A) (A) (A) (A) (A) (A)
                 (A) (A) (A) (A) (A) (A) (A) (A) (A) (A) (A) (A)
                 (A) (A) (A) (A) (A) (A) (A) (A) (A) (A) (A) (A)
                 (A) (A) (A) (A) (A) (A) (A) (A) (A) (A) (A) (A)
                 (A) (A) (A) (A) (A) (A) (A) (A) (A) (A) (A) (A)
                 (A) (A) (A) (A) (A) (A) (A) (A) (A) (A) (A) (A)
                 (A) (A) (A) (A) (A) (A) (A) (A) (A) (A) (A) (A)
                 (A) (A) (A) (A) (A) (A) (A) (A) (A) (A) (A) (A)
                 (A) (A) (A) (A) (A) (A) (A) (A) (A) (A) (A) (A)
                 (A) (A) (A) (A) (A) (A) (A) (A) (A) (A) (A) (A)
                 (A) (A) (A) (A) (A) (A) (A) (A) (A) (A) (A) (A)
                 (A) (A) (A) (A) (A) (A) (A) (A) (A) (A) (A) (A)
                 (A) (A) (A) (A) (A) (A) (A) (A) (A) (A) (A) (A)
                 (A) (A) (A) (A) (A) (A) (A) (A) (A) (A) (A) (A)
                 (A) (A) (A) (A) (A) (A) (A) (A) (A) (A) (A) (A)
                 (A) (A) (A) (A) (A) (A) (A) (A) (A) (A) (A) (A)
                 (A) (A) (A) (A) (A) (A) (A) (A) (A) (A) (A) (A)
                 (A) (A) (A) (A) (A) (A) (A) (A) (A) (A) (A) (A)
                 (A) (A) (A) (A) (A) (A) (A) (A) (A) (A) (A) (A)
                 (A) (A) (A) (A) (A) (A) (A) (A) (A) (A) (A) (A)
                 (A) (A) (A) (A) (A) (A) (A) (A) (A) (A) (A) (A)
                 (A) (A) (A) (A) (A) (A) (A) (A) (A) (A) (A) (A)
                 (A) (A) (A) (A) (A) (A) (A) (A) (A) (A) (A) (A)
                 (A) (A)
 The electronic state of the initial guess is 2-A.
 Initial guess <Sx>= 0.0000 <Sy>= 0.0000 <Sz>= 0.5000 <S**2>= 0.7500 S= 0.5000
 Requested convergence on RMS density matrix=1.00D-08 within 128 cycles.
 Requested convergence on MAX density matrix=1.00D-06.
 Requested convergence on             energy=1.00D-06.
 No special actions if energy rises.
 EnCoef did     4 forward-backward iterations
 Restarting incremental Fock formation.
 SCF Done:  E(UB3LYP) =  -4696.00195722     A.U. after   29 cycles
             Convg  =    0.9174D-08             -V/T =  2.0023
 <Sx>= 0.0000 <Sy>= 0.0000 <Sz>= 0.5000 <S**2>= 0.7568 S= 0.5034
 <L.S>=  0.00000000000    
 Annihilation of the first spin contaminant:
 S**2 before annihilation     0.7568,   after     0.7500

 **********************************************************************

            Population analysis using the SCF density.

 **********************************************************************

 Orbital symmetries:
 Alpha Orbitals:
       Occupied  (A) (A) (A) (A) (A) (A) (A) (A) (A) (A) (A) (A)
                 (A) (A) (A) (A) (A) (A) (A) (A) (A) (A) (A) (A)
                 (A) (A) (A) (A) (A) (A) (A) (A) (A) (A) (A) (A)
                 (A) (A) (A) (A) (A) (A) (A) (A) (A) (A) (A) (A)
                 (A) (A) (A) (A) (A) (A) (A) (A) (A) (A) (A) (A)
                 (A) (A) (A) (A) (A) (A) (A) (A) (A) (A) (A) (A)
                 (A) (A) (A) (A) (A) (A) (A) (A) (A) (A) (A) (A)
                 (A) (A) (A) (A) (A) (A) (A) (A) (A) (A) (A) (A)
                 (A) (A) (A) (A) (A) (A) (A) (A) (A) (A) (A) (A)
                 (A) (A) (A) (A) (A) (A) (A) (A) (A) (A) (A) (A)
                 (A) (A) (A) (A) (A) (A) (A) (A) (A) (A) (A)
       Virtual   (A) (A) (A) (A) (A) (A) (A) (A) (A) (A) (A) (A)
                 (A) (A) (A) (A) (A) (A) (A) (A) (A) (A) (A) (A)
                 (A) (A) (A) (A) (A) (A) (A) (A) (A) (A) (A) (A)
                 (A) (A) (A) (A) (A) (A) (A) (A) (A) (A) (A) (A)
                 (A) (A) (A) (A) (A) (A) (A) (A) (A) (A) (A) (A)
                 (A) (A) (A) (A) (A) (A) (A) (A) (A) (A) (A) (A)
                 (A) (A) (A) (A) (A) (A) (A) (A) (A) (A) (A) (A)
                 (A) (A) (A) (A) (A) (A) (A) (A) (A) (A) (A) (A)
                 (A) (A) (A) (A) (A) (A) (A) (A) (A) (A) (A) (A)
                 (A) (A) (A) (A) (A) (A) (A) (A) (A) (A) (A) (A)
                 (A) (A) (A) (A) (A) (A) (A) (A) (A) (A) (A) (A)
                 (A) (A) (A) (A) (A) (A) (A) (A) (A) (A) (A) (A)
                 (A) (A) (A) (A) (A) (A) (A) (A) (A) (A) (A) (A)
                 (A) (A) (A) (A) (A) (A) (A) (A) (A) (A) (A) (A)
                 (A) (A) (A) (A) (A) (A) (A) (A) (A) (A) (A) (A)
                 (A) (A) (A) (A) (A) (A) (A) (A) (A) (A) (A) (A)
                 (A) (A) (A) (A) (A) (A) (A) (A) (A) (A) (A) (A)
                 (A) (A) (A) (A) (A) (A) (A) (A) (A) (A) (A) (A)
                 (A) (A) (A) (A) (A) (A) (A) (A) (A) (A) (A) (A)
                 (A) (A) (A) (A) (A) (A) (A) (A) (A) (A) (A) (A)
                 (A) (A) (A) (A) (A) (A) (A) (A) (A) (A) (A) (A)
                 (A) (A) (A) (A) (A) (A) (A) (A) (A) (A) (A) (A)
                 (A) (A) (A) (A) (A) (A) (A) (A) (A) (A) (A) (A)
                 (A) (A) (A) (A) (A) (A) (A) (A) (A) (A) (A) (A)
                 (A) (A) (A) (A) (A) (A) (A) (A) (A) (A) (A) (A)
                 (A) (A) (A) (A) (A) (A) (A) (A) (A) (A) (A) (A)
                 (A) (A) (A) (A) (A) (A) (A) (A) (A) (A) (A) (A)
                 (A) (A) (A) (A) (A) (A) (A) (A) (A) (A) (A) (A)
                 (A) (A) (A) (A) (A) (A) (A) (A) (A) (A) (A) (A)
                 (A) (A) (A) (A) (A) (A) (A) (A) (A) (A) (A) (A)
                 (A) (A) (A) (A) (A) (A) (A) (A) (A) (A) (A) (A)
                 (A) (A) (A) (A) (A) (A) (A) (A) (A) (A) (A) (A)
                 (A) (A) (A) (A) (A) (A) (A) (A) (A) (A) (A) (A)
                 (A) (A) (A) (A) (A) (A) (A) (A) (A) (A) (A) (A)
                 (A) (A) (A) (A) (A) (A) (A) (A) (A) (A) (A) (A)
                 (A) (A) (A) (A) (A) (A) (A) (A) (A) (A) (A) (A)
                 (A) (A) (A) (A) (A) (A) (A) (A) (A) (A) (A) (A)
                 (A) (A) (A) (A) (A) (A) (A) (A) (A) (A) (A) (A)
                 (A) (A) (A) (A) (A) (A) (A) (A) (A) (A) (A) (A)
                 (A) (A) (A) (A) (A) (A) (A) (A) (A) (A) (A) (A)
                 (A) (A) (A) (A) (A) (A) (A) (A) (A) (A) (A) (A)
                 (A) (A) (A) (A) (A) (A) (A) (A) (A) (A) (A) (A)
                 (A) (A) (A) (A) (A) (A) (A) (A) (A) (A) (A) (A)
                 (A) (A) (A) (A) (A) (A) (A) (A) (A) (A) (A) (A)
                 (A) (A) (A) (A) (A) (A) (A) (A) (A) (A) (A) (A)
                 (A) (A) (A) (A) (A) (A) (A) (A) (A) (A) (A) (A)
                 (A)
 Beta  Orbitals:
       Occupied  (A) (A) (A) (A) (A) (A) (A) (A) (A) (A) (A) (A)
                 (A) (A) (A) (A) (A) (A) (A) (A) (A) (A) (A) (A)
                 (A) (A) (A) (A) (A) (A) (A) (A) (A) (A) (A) (A)
                 (A) (A) (A) (A) (A) (A) (A) (A) (A) (A) (A) (A)
                 (A) (A) (A) (A) (A) (A) (A) (A) (A) (A) (A) (A)
                 (A) (A) (A) (A) (A) (A) (A) (A) (A) (A) (A) (A)
                 (A) (A) (A) (A) (A) (A) (A) (A) (A) (A) (A) (A)
                 (A) (A) (A) (A) (A) (A) (A) (A) (A) (A) (A) (A)
                 (A) (A) (A) (A) (A) (A) (A) (A) (A) (A) (A) (A)
                 (A) (A) (A) (A) (A) (A) (A) (A) (A) (A) (A) (A)
                 (A) (A) (A) (A) (A) (A) (A) (A) (A) (A)
       Virtual   (A) (A) (A) (A) (A) (A) (A) (A) (A) (A) (A) (A)
                 (A) (A) (A) (A) (A) (A) (A) (A) (A) (A) (A) (A)
                 (A) (A) (A) (A) (A) (A) (A) (A) (A) (A) (A) (A)
                 (A) (A) (A) (A) (A) (A) (A) (A) (A) (A) (A) (A)
                 (A) (A) (A) (A) (A) (A) (A) (A) (A) (A) (A) (A)
                 (A) (A) (A) (A) (A) (A) (A) (A) (A) (A) (A) (A)
                 (A) (A) (A) (A) (A) (A) (A) (A) (A) (A) (A) (A)
                 (A) (A) (A) (A) (A) (A) (A) (A) (A) (A) (A) (A)
                 (A) (A) (A) (A) (A) (A) (A) (A) (A) (A) (A) (A)
                 (A) (A) (A) (A) (A) (A) (A) (A) (A) (A) (A) (A)
                 (A) (A) (A) (A) (A) (A) (A) (A) (A) (A) (A) (A)
                 (A) (A) (A) (A) (A) (A) (A) (A) (A) (A) (A) (A)
                 (A) (A) (A) (A) (A) (A) (A) (A) (A) (A) (A) (A)
                 (A) (A) (A) (A) (A) (A) (A) (A) (A) (A) (A) (A)
                 (A) (A) (A) (A) (A) (A) (A) (A) (A) (A) (A) (A)
                 (A) (A) (A) (A) (A) (A) (A) (A) (A) (A) (A) (A)
                 (A) (A) (A) (A) (A) (A) (A) (A) (A) (A) (A) (A)
                 (A) (A) (A) (A) (A) (A) (A) (A) (A) (A) (A) (A)
                 (A) (A) (A) (A) (A) (A) (A) (A) (A) (A) (A) (A)
                 (A) (A) (A) (A) (A) (A) (A) (A) (A) (A) (A) (A)
                 (A) (A) (A) (A) (A) (A) (A) (A) (A) (A) (A) (A)
                 (A) (A) (A) (A) (A) (A) (A) (A) (A) (A) (A) (A)
                 (A) (A) (A) (A) (A) (A) (A) (A) (A) (A) (A) (A)
                 (A) (A) (A) (A) (A) (A) (A) (A) (A) (A) (A) (A)
                 (A) (A) (A) (A) (A) (A) (A) (A) (A) (A) (A) (A)
                 (A) (A) (A) (A) (A) (A) (A) (A) (A) (A) (A) (A)
                 (A) (A) (A) (A) (A) (A) (A) (A) (A) (A) (A) (A)
                 (A) (A) (A) (A) (A) (A) (A) (A) (A) (A) (A) (A)
                 (A) (A) (A) (A) (A) (A) (A) (A) (A) (A) (A) (A)
                 (A) (A) (A) (A) (A) (A) (A) (A) (A) (A) (A) (A)
                 (A) (A) (A) (A) (A) (A) (A) (A) (A) (A) (A) (A)
                 (A) (A) (A) (A) (A) (A) (A) (A) (A) (A) (A) (A)
                 (A) (A) (A) (A) (A) (A) (A) (A) (A) (A) (A) (A)
                 (A) (A) (A) (A) (A) (A) (A) (A) (A) (A) (A) (A)
                 (A) (A) (A) (A) (A) (A) (A) (A) (A) (A) (A) (A)
                 (A) (A) (A) (A) (A) (A) (A) (A) (A) (A) (A) (A)
                 (A) (A) (A) (A) (A) (A) (A) (A) (A) (A) (A) (A)
                 (A) (A) (A) (A) (A) (A) (A) (A) (A) (A) (A) (A)
                 (A) (A) (A) (A) (A) (A) (A) (A) (A) (A) (A) (A)
                 (A) (A) (A) (A) (A) (A) (A) (A) (A) (A) (A) (A)
                 (A) (A) (A) (A) (A) (A) (A) (A) (A) (A) (A) (A)
                 (A) (A) (A) (A) (A) (A) (A) (A) (A) (A) (A) (A)
                 (A) (A) (A) (A) (A) (A) (A) (A) (A) (A) (A) (A)
                 (A) (A) (A) (A) (A) (A) (A) (A) (A) (A) (A) (A)
                 (A) (A) (A) (A) (A) (A) (A) (A) (A) (A) (A) (A)
                 (A) (A) (A) (A) (A) (A) (A) (A) (A) (A) (A) (A)
                 (A) (A)
 The electronic state is 2-A.
 Alpha  occ. eigenvalues -- -453.89711 -88.98139 -88.89235 -88.86291 -57.49842
 Alpha  occ. eigenvalues --  -52.17080 -52.16827 -52.16770 -14.36089 -14.36034
 Alpha  occ. eigenvalues --  -14.35966 -14.34547 -10.26469 -10.25978 -10.24945
 Alpha  occ. eigenvalues --  -10.24519 -10.23785 -10.23706 -10.23424 -10.21147
 Alpha  occ. eigenvalues --  -10.21060 -10.20612 -10.20504 -10.20414 -10.20226
 Alpha  occ. eigenvalues --  -10.19806 -10.19658 -10.19062 -10.18209 -10.17547
 Alpha  occ. eigenvalues --  -10.17360 -10.17052 -10.16992 -10.16520 -10.16065
 Alpha  occ. eigenvalues --   -8.05538  -7.98632  -7.96270  -7.75069  -6.01960
 Alpha  occ. eigenvalues --   -6.01330  -6.01129  -5.94860  -5.94232  -5.94167
 Alpha  occ. eigenvalues --   -5.92502  -5.91797  -5.91708  -5.79228  -5.78634
 Alpha  occ. eigenvalues --   -5.78503  -2.15175  -2.14887  -2.14539  -2.14126
 Alpha  occ. eigenvalues --   -2.14037  -1.18039  -1.06102  -1.03688  -0.98141
 Alpha  occ. eigenvalues --   -0.96256  -0.95049  -0.94496  -0.89550  -0.87499
 Alpha  occ. eigenvalues --   -0.84808  -0.82584  -0.80952  -0.79071  -0.78078
 Alpha  occ. eigenvalues --   -0.76185  -0.74986  -0.73265  -0.72831  -0.70254
 Alpha  occ. eigenvalues --   -0.68866  -0.66776  -0.65582  -0.63967  -0.62151
 Alpha  occ. eigenvalues --   -0.60068  -0.59796  -0.57639  -0.57519  -0.57442
 Alpha  occ. eigenvalues --   -0.56334  -0.55327  -0.54707  -0.53828  -0.52622
 Alpha  occ. eigenvalues --   -0.52068  -0.50200  -0.49658  -0.49232  -0.48845
 Alpha  occ. eigenvalues --   -0.48056  -0.46640  -0.45818  -0.45071  -0.44916
 Alpha  occ. eigenvalues --   -0.44479  -0.43602  -0.42514  -0.42423  -0.42275
 Alpha  occ. eigenvalues --   -0.41815  -0.41535  -0.40370  -0.39316  -0.38866
 Alpha  occ. eigenvalues --   -0.38337  -0.37557  -0.37281  -0.35186  -0.34886
 Alpha  occ. eigenvalues --   -0.34211  -0.33972  -0.32085  -0.31745  -0.30662
 Alpha  occ. eigenvalues --   -0.30256  -0.30008  -0.29486  -0.28237  -0.27806
 Alpha  occ. eigenvalues --   -0.27604  -0.26472  -0.25562  -0.22962  -0.21305
 Alpha  occ. eigenvalues --   -0.15661
 Alpha virt. eigenvalues --   -0.08177  -0.05400  -0.03780  -0.03535  -0.01711
 Alpha virt. eigenvalues --   -0.01170  -0.00947  -0.00581  -0.00350   0.00364
 Alpha virt. eigenvalues --    0.00913   0.01358   0.01412   0.01710   0.01912
 Alpha virt. eigenvalues --    0.02024   0.02412   0.02683   0.03026   0.03226
 Alpha virt. eigenvalues --    0.03387   0.03687   0.03987   0.04418   0.04622
 Alpha virt. eigenvalues --    0.04896   0.05042   0.05559   0.05927   0.06538
 Alpha virt. eigenvalues --    0.06589   0.06840   0.07164   0.07371   0.07566
 Alpha virt. eigenvalues --    0.07744   0.08152   0.08500   0.08756   0.09183
 Alpha virt. eigenvalues --    0.09342   0.09805   0.09960   0.09979   0.10563
 Alpha virt. eigenvalues --    0.10735   0.10938   0.11015   0.11207   0.11600
 Alpha virt. eigenvalues --    0.11677   0.12019   0.12173   0.12325   0.12520
 Alpha virt. eigenvalues --    0.12654   0.12755   0.12888   0.13154   0.13256
 Alpha virt. eigenvalues --    0.13374   0.13832   0.14001   0.14018   0.14169
 Alpha virt. eigenvalues --    0.14368   0.14625   0.14808   0.14915   0.15119
 Alpha virt. eigenvalues --    0.15298   0.15513   0.15584   0.15686   0.15851
 Alpha virt. eigenvalues --    0.15951   0.16234   0.16503   0.16702   0.16832
 Alpha virt. eigenvalues --    0.17199   0.17631   0.17791   0.17972   0.18037
 Alpha virt. eigenvalues --    0.18257   0.18448   0.18733   0.19052   0.19086
 Alpha virt. eigenvalues --    0.19601   0.19756   0.19911   0.20056   0.20395
 Alpha virt. eigenvalues --    0.20686   0.20859   0.21076   0.21352   0.21462
 Alpha virt. eigenvalues --    0.21817   0.21966   0.22066   0.22323   0.22630
 Alpha virt. eigenvalues --    0.22876   0.22987   0.23180   0.23473   0.23839
 Alpha virt. eigenvalues --    0.24000   0.24230   0.24783   0.24883   0.25141
 Alpha virt. eigenvalues --    0.25201   0.25395   0.25722   0.26248   0.26383
 Alpha virt. eigenvalues --    0.26748   0.26934   0.27091   0.27189   0.27465
 Alpha virt. eigenvalues --    0.27584   0.27897   0.28202   0.28428   0.28670
 Alpha virt. eigenvalues --    0.29014   0.29386   0.29643   0.30046   0.30288
 Alpha virt. eigenvalues --    0.30392   0.30756   0.31157   0.31277   0.31405
 Alpha virt. eigenvalues --    0.31627   0.31768   0.32037   0.32693   0.32970
 Alpha virt. eigenvalues --    0.33335   0.33381   0.33859   0.34116   0.34552
 Alpha virt. eigenvalues --    0.35031   0.35100   0.35667   0.35867   0.36238
 Alpha virt. eigenvalues --    0.36434   0.36793   0.37159   0.37910   0.37983
 Alpha virt. eigenvalues --    0.38234   0.38864   0.39137   0.39589   0.39760
 Alpha virt. eigenvalues --    0.40762   0.41025   0.41192   0.41729   0.42211
 Alpha virt. eigenvalues --    0.42374   0.42685   0.43093   0.43461   0.43848
 Alpha virt. eigenvalues --    0.44992   0.45361   0.46497   0.47354   0.48641
 Alpha virt. eigenvalues --    0.49189   0.50101   0.51022   0.52242   0.53115
 Alpha virt. eigenvalues --    0.53672   0.54042   0.54715   0.55136   0.55566
 Alpha virt. eigenvalues --    0.56660   0.57578   0.58037   0.59568   0.60956
 Alpha virt. eigenvalues --    0.62179   0.62851   0.63764   0.65500   0.66469
 Alpha virt. eigenvalues --    0.67043   0.67628   0.68312   0.68660   0.69314
 Alpha virt. eigenvalues --    0.69775   0.70195   0.70558   0.70586   0.71023
 Alpha virt. eigenvalues --    0.71265   0.71833   0.72082   0.72261   0.72804
 Alpha virt. eigenvalues --    0.72889   0.73225   0.73856   0.74084   0.74900
 Alpha virt. eigenvalues --    0.75231   0.75531   0.75770   0.76406   0.76667
 Alpha virt. eigenvalues --    0.77009   0.77560   0.77653   0.78144   0.78727
 Alpha virt. eigenvalues --    0.79009   0.79200   0.79230   0.79806   0.80052
 Alpha virt. eigenvalues --    0.80574   0.80946   0.81446   0.82170   0.82508
 Alpha virt. eigenvalues --    0.82863   0.82912   0.84037   0.84436   0.85286
 Alpha virt. eigenvalues --    0.85556   0.85973   0.86486   0.86993   0.87883
 Alpha virt. eigenvalues --    0.88292   0.88998   0.90015   0.90567   0.90997
 Alpha virt. eigenvalues --    0.91992   0.92473   0.93310   0.93707   0.94606
 Alpha virt. eigenvalues --    0.94950   0.95276   0.95551   0.96012   0.96682
 Alpha virt. eigenvalues --    0.97220   0.97580   0.98123   0.98427   0.98913
 Alpha virt. eigenvalues --    0.99185   0.99714   1.00920   1.01726   1.02206
 Alpha virt. eigenvalues --    1.02459   1.03323   1.03473   1.04710   1.04885
 Alpha virt. eigenvalues --    1.05162   1.06563   1.07781   1.07923   1.08785
 Alpha virt. eigenvalues --    1.09276   1.10554   1.11356   1.12014   1.12509
 Alpha virt. eigenvalues --    1.13663   1.13960   1.14443   1.14971   1.16969
 Alpha virt. eigenvalues --    1.17232   1.17920   1.18707   1.19262   1.19998
 Alpha virt. eigenvalues --    1.20317   1.21355   1.21866   1.22086   1.22616
 Alpha virt. eigenvalues --    1.23194   1.24417   1.24650   1.24888   1.26136
 Alpha virt. eigenvalues --    1.27050   1.27167   1.27505   1.28595   1.29195
 Alpha virt. eigenvalues --    1.29743   1.30166   1.31090   1.31870   1.32150
 Alpha virt. eigenvalues --    1.32434   1.33143   1.33474   1.33759   1.34756
 Alpha virt. eigenvalues --    1.35695   1.36129   1.36430   1.37220   1.38295
 Alpha virt. eigenvalues --    1.39058   1.39619   1.40467   1.41735   1.41863
 Alpha virt. eigenvalues --    1.42570   1.43745   1.44929   1.46090   1.46644
 Alpha virt. eigenvalues --    1.47072   1.47946   1.49581   1.50728   1.52547
 Alpha virt. eigenvalues --    1.54142   1.55891   1.56790   1.58784   1.59911
 Alpha virt. eigenvalues --    1.60164   1.61373   1.62781   1.63568   1.65505
 Alpha virt. eigenvalues --    1.67518   1.68376   1.69093   1.70826   1.71270
 Alpha virt. eigenvalues --    1.73211   1.74317   1.74908   1.75601   1.76040
 Alpha virt. eigenvalues --    1.78819   1.79616   1.80138   1.81772   1.82687
 Alpha virt. eigenvalues --    1.82837   1.83525   1.84160   1.84729   1.86396
 Alpha virt. eigenvalues --    1.86723   1.88082   1.88606   1.90121   1.90787
 Alpha virt. eigenvalues --    1.92025   1.92464   1.93195   1.94098   1.94371
 Alpha virt. eigenvalues --    1.94871   1.95865   1.96520   1.97549   2.00217
 Alpha virt. eigenvalues --    2.00302   2.01225   2.02152   2.02946   2.04847
 Alpha virt. eigenvalues --    2.05039   2.05671   2.06579   2.06966   2.07172
 Alpha virt. eigenvalues --    2.08148   2.09013   2.09418   2.11231   2.11818
 Alpha virt. eigenvalues --    2.12459   2.13504   2.15924   2.16806   2.17395
 Alpha virt. eigenvalues --    2.17787   2.19228   2.19557   2.20595   2.21002
 Alpha virt. eigenvalues --    2.21646   2.22496   2.23584   2.26733   2.28593
 Alpha virt. eigenvalues --    2.29335   2.29511   2.31478   2.31699   2.32626
 Alpha virt. eigenvalues --    2.33187   2.34508   2.36732   2.37830   2.38164
 Alpha virt. eigenvalues --    2.39223   2.39878   2.40322   2.41321   2.41600
 Alpha virt. eigenvalues --    2.44061   2.44579   2.45687   2.46000   2.46301
 Alpha virt. eigenvalues --    2.46855   2.48695   2.49500   2.50615   2.51423
 Alpha virt. eigenvalues --    2.52775   2.54568   2.55099   2.56111   2.57702
 Alpha virt. eigenvalues --    2.58297   2.58860   2.59212   2.60220   2.61466
 Alpha virt. eigenvalues --    2.61868   2.62732   2.63564   2.64744   2.65244
 Alpha virt. eigenvalues --    2.66464   2.67081   2.68046   2.68320   2.68951
 Alpha virt. eigenvalues --    2.69537   2.70447   2.72141   2.72234   2.72724
 Alpha virt. eigenvalues --    2.74486   2.74890   2.75422   2.75984   2.77026
 Alpha virt. eigenvalues --    2.79231   2.79731   2.80949   2.81451   2.82314
 Alpha virt. eigenvalues --    2.82818   2.83149   2.83699   2.84078   2.87161
 Alpha virt. eigenvalues --    2.89347   2.89530   2.92046   2.95508   2.96022
 Alpha virt. eigenvalues --    2.97373   3.01890   3.03481   3.04181   3.08299
 Alpha virt. eigenvalues --    3.09120   3.11155   3.14127   3.14709   3.16994
 Alpha virt. eigenvalues --    3.21514   3.23324   3.26978   3.30093   3.34723
 Alpha virt. eigenvalues --    3.39255   3.39695   3.41260   3.43482   3.46341
 Alpha virt. eigenvalues --    3.48900   3.50058   3.54005   3.54672   3.55023
 Alpha virt. eigenvalues --    3.55928   3.59492   3.67729   3.77494   3.87504
 Alpha virt. eigenvalues --    3.89927   3.97523   4.08262   4.09742   4.20728
 Alpha virt. eigenvalues --    4.26237   4.29002   4.32873   4.34887   4.36425
 Alpha virt. eigenvalues --    4.37431   4.39854   4.40267   4.41015   4.41347
 Alpha virt. eigenvalues --    4.42558   4.44953   4.46583   4.48839   4.50021
 Alpha virt. eigenvalues --    4.53278   4.53983   4.58585   4.58825   4.63189
[...]
 0567,0.00000176,0.00001637,-0.00000595,0.00000049,-0.06805990,0.031887
 73,0.04230910,0.00000024,-0.00000100,0.00000056,0.00000243,-0.00000122
 ,0.00000017,-0.00000430,-0.00000062,-0.00000012,-0.00000975,0.00000907
 ,-0.00000322,0.00000968,0.00001065,0.00000075,0.00000390,-0.00000695,-
 0.00000010,0.00001377,0.00001357,0.00000256,-0.00001351,-0.00000513,0.
 00000013,-0.00000588,-0.00002379,-0.00000359,-0.00000695,0.00001885,-0
 .00000040,-0.00001877,0.00000661,-0.00000113,0.00001424,-0.00000435,0.
 00003540,0.00000427,-0.00000904,-0.00000728,0.00001851,0.00001839,-0.0
 0000116,0.00000762,0.00006962,0.00000332,-0.00006605,0.00012599,-0.000
 01824,0.00019210,0.00015387,-0.00038052,-0.00078870,0.00043719,0.00013
 930,-0.00187559,0.00254961,0.00345647,-0.00340011,0.03536232,0.0045537
 1,-0.05518393,-0.01683660,0.00153079,0.00374040,-0.02648015,-0.0032606
 5,0.00235051,0.00107842,-0.00073899,0.00002357,-0.00050868,-0.00024585
 ,-0.00099885,-0.00179350,0.00000377,-0.00408793,0.00007961,0.00201503,
 0.00004532,-0.00013616,0.00002157,-0.00005671,0.00002750,-0.00002501,0
 .00001502,-0.00000341,0.00001175,0.00000515,0.00000704,-0.00000796,0.0
 0005883,0.00002624,-0.00005187,0.00000083,-0.00000107,-0.00000020,0.00
 000075,-0.00000067,0.00000002,0.00000119,0.00000071,0.00000003,0.00000
 069,0.00000124,0.,0.00000030,0.00000046,-0.00000018,0.00000224,0.00000
 217,-0.00000014,-0.00000195,-0.00000175,-0.00000149,0.00000171,-0.0000
 0283,0.00000351,0.00001933,0.00086834,0.00022807,0.05995286,0.00000044
 ,-0.00000131,-0.00000021,0.00000039,0.00000116,0.00000026,-0.00000019,
 -0.00000039,0.00000159,-0.00000155,0.00000146,-0.00000197,0.00000138,0
 .00000066,-0.00000058,0.00000293,-0.00000091,0.00000096,0.00000002,0.0
 0000067,0.00000049,-0.00000359,-0.00000073,0.00000002,-0.00000746,0.00
 000140,-0.00000127,0.00000086,0.00000364,0.00000354,-0.00000846,0.0000
 0941,0.00000271,0.00002017,0.00000889,-0.00001523,0.00000857,-0.000010
 70,-0.00000666,0.00000555,0.00000099,0.00000731,-0.00010664,0.00002858
 ,0.00007218,-0.00004556,-0.00006581,0.00000121,-0.00007995,0.00018650,
 0.00038285,-0.00037609,-0.00057525,0.00004164,0.00048892,0.00278800,-0
 .00150532,0.01125665,-0.01297721,-0.00349202,-0.01575824,-0.33093646,-
 0.03942381,0.00183386,-0.01119477,-0.00310833,0.00043691,0.00106525,0.
 00027626,-0.00068884,-0.00084473,0.00012983,-0.00040625,-0.00030671,0.
 00001430,-0.00166482,0.00112906,-0.00003975,0.00012233,-0.00010787,-0.
 00005440,0.00003106,-0.00001196,-0.00000960,-0.00000654,-0.00000285,-0
 .00000664,0.00000575,-0.00002413,-0.00000960,0.00007911,0.00009633,-0.
 00008179,0.00000025,-0.00000010,-0.00000071,0.00000008,0.00000038,0.00
 000028,-0.00000018,0.00000017,-0.00000013,0.00000007,-0.00000026,-0.00
 000007,0.00000008,-0.00000055,-0.00000010,0.00000044,0.00000133,-0.000
 00048,0.00000250,0.00000152,0.00000022,0.00000116,-0.00000033,-0.00000
 016,-0.00005963,-0.00029825,-0.00010474,0.00494557,0.35204654,0.000001
 18,0.00000023,-0.00000075,-0.00000158,0.00000121,-0.00000031,0.0000015
 0,-0.00000010,-0.00000012,0.00000219,-0.00000205,-0.00000132,-0.000001
 39,-0.00000516,0.00000084,-0.00000076,0.00000241,-0.00000219,-0.000007
 11,-0.00000298,0.00000419,0.00000410,-0.00000022,0.00000169,-0.0000028
 1,0.00001712,-0.00000311,-0.00000044,-0.00001471,-0.00000029,0.0000019
 4,0.00000592,0.00000301,0.00006442,0.00004013,0.00010121,-0.00001517,-
 0.00002240,0.00001334,0.00000744,-0.00001710,-0.00001761,0.00017137,-0
 .00008842,-0.00012813,-0.00008986,0.00022108,-0.00017276,-0.00027304,-
 0.00007067,-0.00171236,0.00003034,0.00019394,-0.00039022,0.00308851,-0
 .00190963,0.01115164,0.00079524,-0.00882061,-0.00786631,0.00188174,-0.
 03937649,-0.04375716,0.00087013,0.00355855,0.00703901,-0.00076182,0.00
 007556,-0.00129379,-0.00026312,0.00007099,-0.00061596,0.00008938,0.000
 38801,0.00027061,0.00182041,-0.00072560,0.00378081,-0.00003133,-0.0000
 1196,0.00015106,-0.00009840,0.00000839,-0.00002398,0.00000744,0.000016
 01,-0.00002271,-0.00000594,0.00000591,0.00001188,-0.00011278,-0.000123
 94,0.00008076,0.00000009,0.00000056,-0.00000031,-0.00000030,0.00000069
 ,-0.00000010,-0.00000102,-0.00000054,0.00000038,-0.00000034,-0.0000007
 1,0.00000039,-0.00000036,-0.00000033,0.00000071,-0.00000141,-0.0000017
 5,0.00000074,0.00000126,0.00000103,0.00000056,-0.00000291,0.00000382,0
 .00000302,0.00006792,-0.00035726,0.00045142,-0.00726511,0.04691998,0.0
 3291842,-0.00000127,-0.00000002,-0.00000543,0.00000171,0.00000202,0.00
 000016,0.00000198,0.00000185,0.00000409,0.00000295,-0.00000845,-0.0000
 0531,-0.00000532,-0.00001942,0.00000513,-0.00000099,0.00000528,0.00000
 567,-0.00000615,-0.00000530,0.00000018,0.00001072,0.00000570,-0.000006
 07,0.00002457,0.00000979,-0.00001672,0.00001543,0.00003025,0.00007497,
 -0.00003211,-0.00004988,-0.00012609,0.00003970,0.00006907,0.00014762,-
 0.00009217,0.00000301,0.00003706,0.00000976,-0.00004605,-0.00001419,-0
 .00045092,-0.00017310,0.00059272,-0.00047454,-0.00125133,0.00125822,0.
 00143290,-0.00089965,0.00020894,-0.00006611,-0.00100606,-0.00071775,-0
 .00116006,0.00081129,0.00018372,0.00046913,-0.00061026,-0.00019800,0.0
 0005472,0.00007127,0.00000259,0.00003114,-0.00001941,0.00000321,0.0000
 4679,0.00005738,0.00000976,0.00008162,-0.00011774,-0.00005761,0.000028
 13,0.00003795,-0.00002699,-0.00003446,0.00040242,0.00011658,-0.0201517
 7,-0.00840330,-0.01005529,-0.17044606,-0.05205184,-0.10147730,0.010919
 84,0.00187995,0.00466528,0.00006549,0.00080661,-0.00071681,-0.00175346
 ,0.00164139,0.00103478,0.00000020,0.00000035,-0.00000180,0.00000011,0.
 00000101,0.00000082,-0.00000110,-0.00000053,0.00000027,-0.00000069,-0.
 00000200,0.00000001,-0.00000067,0.00000012,-0.00000038,-0.00000350,-0.
 00000250,-0.00000013,0.00003609,0.00001098,0.00000229,0.00002946,-0.00
 002316,-0.00000372,0.00010464,0.00125168,0.00045756,0.00003755,-0.0000
 3915,-0.00000572,0.18842726,0.00000162,0.00000078,-0.00001047,-0.00000
 454,0.00000269,0.00000074,0.00001323,0.00000176,0.00001393,0.00001601,
 -0.00001652,-0.00004496,-0.00002042,-0.00003226,0.00002501,-0.00000267
 ,0.00001421,-0.00000391,-0.00002679,-0.00001056,0.00000973,0.00002113,
 0.00000882,0.00002909,-0.00001998,0.00005402,-0.00008212,0.00000297,-0
 .00003508,0.00008025,0.00003509,-0.00001352,-0.00015546,-0.00006747,0.
 00009125,0.00010782,-0.00003484,-0.00001340,0.00006735,-0.00000190,-0.
 00001937,0.00005417,0.00024649,-0.00024582,0.00040599,-0.00038869,-0.0
 0005450,0.00054607,0.00109908,-0.00040306,-0.00093743,-0.00008786,0.00
 047227,-0.00036580,0.00067697,-0.00045260,0.00066920,-0.00012258,0.000
 05238,-0.00037521,-0.00005694,0.00001376,-0.00002891,0.00004939,0.0000
 2202,0.00008765,-0.00001764,0.00003598,0.00003318,0.00005115,-0.000034
 68,-0.00002483,-0.00012447,0.00000357,-0.00001788,0.00017942,-0.000003
 41,-0.00012781,-0.00973106,-0.00359564,-0.00329561,-0.05921613,-0.0618
 1925,-0.04489738,-0.01097962,-0.01356744,-0.01864477,-0.00039524,-0.00
 169404,-0.00033710,-0.00064098,-0.00071509,0.00021951,-0.00000177,0.00
 000213,-0.00000073,-0.00000019,0.00000174,0.00000047,-0.00000429,-0.00
 000210,0.00000003,-0.00000178,-0.00000364,-0.00000089,-0.00000111,-0.0
 0000099,-0.00000195,-0.00000916,-0.00000515,0.00000112,0.00001367,0.00
 000079,-0.00000046,-0.00000579,-0.00002372,-0.00009361,0.00085817,-0.0
 0101270,-0.00043347,0.00000307,-0.00000021,0.00002811,0.06036253,0.075
 92774,0.00000642,-0.00000013,-0.00000452,-0.00000866,0.00000716,0.0000
 0313,0.00000638,0.00000161,-0.00001017,0.00000697,-0.00001064,0.000048
 11,-0.00000258,-0.00001306,-0.00000871,-0.00000478,0.00001354,-0.00000
 847,-0.00002508,-0.00001833,-0.00000733,0.00002027,-0.00000697,-0.0000
 3709,-0.00001747,0.00009410,0.00003439,0.00000472,-0.00009917,-0.00000
 540,0.00006003,0.00006128,0.00015224,-0.00003925,-0.00000955,-0.000231
 65,0.00011300,0.00003905,-0.00006657,-0.00003354,-0.00001763,0.0000320
 2,0.00029129,0.00037867,-0.00042567,-0.00042858,0.00073910,-0.00057450
 ,0.00012502,-0.00038991,0.00005940,0.00054580,-0.00004119,0.00005802,-
 0.00027174,-0.00024467,0.00006941,0.00017175,-0.00015071,-0.00069424,0
 .00001146,-0.00009477,0.00007367,0.00001565,-0.00001669,-0.00001892,-0
 .00000351,-0.00000678,0.00002551,0.00014589,-0.00001730,-0.00004176,-0
 .00001623,0.00006775,-0.00002569,0.00003519,0.00002295,-0.00000571,0.0
 1404335,0.00665657,0.01312602,-0.10681473,-0.03978099,-0.12682648,-0.0
 0528957,-0.01201926,-0.01199597,-0.00069592,-0.00129683,-0.00070285,0.
 00093104,-0.00013974,-0.00123176,-0.00000068,0.00000423,-0.00000016,-0
 .00000074,0.00000140,0.00000047,-0.00000382,-0.00000216,-0.00000050,-0
 .00000173,-0.00000363,-0.00000025,-0.00000163,-0.00000170,0.00000010,-
 0.00000503,-0.00000186,-0.00000696,-0.00002130,-0.00000344,-0.00000042
 ,-0.00004600,0.00003364,-0.00002078,0.00063578,-0.00091233,0.00066321,
 0.00003157,-0.00002297,0.00004385,0.11245531,0.05153611,0.14020156,-0.
 00000427,0.00000248,0.00000367,0.00000274,-0.00000373,-0.00000225,-0.0
 0000194,-0.00000475,-0.00000022,0.00000623,-0.00000194,-0.00000542,-0.
 00000312,-0.00000573,0.00000450,-0.00000052,-0.00000286,-0.00000368,-0
 .00000137,-0.00000488,0.00001083,0.00000349,0.00000674,0.00000799,0.00
 000390,0.00000085,0.00000954,-0.00001298,-0.00001549,-0.00004584,-0.00
 002252,-0.00008378,0.00006741,-0.00020200,0.00000423,0.00011854,-0.000
 12899,-0.00000394,-0.00008972,0.00002614,-0.00002025,-0.00000588,-0.00
 048546,-0.00075176,-0.00047435,-0.00064134,-0.00059079,-0.00046210,0.0
 0058296,0.00045985,-0.00035664,0.00007034,-0.00073810,0.00029412,0.000
 75225,0.00005853,-0.00011560,-0.00030887,0.00041590,-0.00001790,0.0002
 4583,-0.00004057,-0.00005446,-0.00015476,-0.00007385,0.00001252,0.0000
 7173,0.00000393,-0.00002056,-0.00009231,0.00001061,0.00003500,0.000102
 86,0.00001918,-0.00001832,-0.00025362,0.00008888,0.00003736,0.00702912
 ,-0.02089417,0.01465588,-0.06291954,0.05500431,-0.03887849,-0.00033065
 ,0.00684571,-0.00182969,-0.00082549,0.00081714,-0.00034298,-0.00283917
 ,-0.00087366,0.00250156,0.00000023,-0.00000024,-0.00000113,0.00000075,
 0.00000049,0.,0.00000043,0.00000009,0.00000029,0.00000049,0.00000140,0
 .00000009,-0.00000080,0.00000029,-0.00000020,-0.00000259,-0.00000690,-
 0.00000127,0.00002559,-0.00000238,0.00001117,0.00002596,0.00001803,0.0
 0006868,-0.00029151,0.00023675,-0.00000361,0.00000058,0.00000729,0.000
 03121,-0.00757585,0.01782501,-0.01653616,0.06820424,-0.00000022,-0.000
 00177,-0.00000825,-0.00000885,0.00000326,-0.00000015,0.00000987,0.0000
 0138,0.00000132,0.00000833,-0.00001338,0.00000030,-0.00000419,-0.00002
 077,0.00000645,-0.00000442,0.00001564,-0.00000658,-0.00002805,-0.00001
 960,0.00000474,0.00002247,-0.00000058,0.00000090,-0.00002711,0.0000798
 6,-0.00004136,-0.00003130,-0.00006957,0.00004393,0.00006317,-0.0000119
 1,0.00000861,-0.00018759,0.00007438,0.00001707,0.00011054,-0.00003507,
 0.00001077,-0.00005483,-0.00003149,0.00005017,-0.00032222,-0.00027716,
 0.00008566,-0.00004752,-0.00001086,0.00004328,0.00098671,-0.00158173,-
 0.00179436,0.00018500,0.00195315,0.00036416,-0.00092560,0.00008812,0.0
 0067998,0.00026928,-0.00049567,-0.00009440,-0.00037112,0.00011646,0.00
 010677,0.00027085,0.00017875,-0.00006590,-0.00014180,0.00001789,0.0000
 3555,0.00016518,-0.00006006,-0.00001893,-0.00026906,-0.00000550,-0.000
 00585,0.00033873,-0.00003786,-0.00010469,-0.00201860,-0.00755001,0.006
 13487,0.05518429,-0.18971991,0.11575011,0.00509049,-0.02032946,0.00316
 604,0.00126301,-0.00277532,0.00043214,0.00002699,0.00002334,0.00080361
 ,-0.00000044,0.00000364,-0.00000107,-0.00000075,0.00000314,-0.00000031
 ,-0.00000434,-0.00000239,0.00000051,-0.00000218,-0.00000409,0.00000077
 ,-0.00000218,-0.00000216,-0.00000038,-0.00000914,-0.00000647,-0.000001
 36,-0.00000482,-0.00000100,0.00000238,-0.00004762,0.00004003,-0.000040
 23,0.00007419,-0.00024896,-0.00102425,-0.00000668,-0.00000686,-0.00000
 540,-0.00225269,0.00657760,-0.00431575,-0.05757449,0.21391062,-0.00000
 014,-0.00000047,0.00000119,-0.00000539,-0.00000149,-0.00000261,0.00000
 396,-0.00000211,-0.00000065,0.00000488,-0.00000020,-0.00000879,0.00000
 060,-0.00000568,0.00000641,-0.00000162,0.00000586,-0.00000462,-0.00001
 065,0.00000265,0.00001846,0.00000571,-0.00000371,0.00000726,-0.0000186
 8,0.00002741,-0.00005162,-0.00002358,-0.00004462,-0.00001494,0.0000865
 1,0.00008344,0.00000593,0.00003898,-0.00007057,0.00003016,0.00010471,-
 0.00004469,0.00004090,-0.00002770,0.00003007,0.00003880,0.00036463,0.0
 0028560,0.00017215,0.00080751,0.00072403,0.00003824,0.00003762,0.00004
 808,0.00127576,-0.00040472,0.00104428,-0.00021032,0.00057180,-0.000467
 02,0.00021831,-0.00011526,-0.00002409,0.00025860,-0.00020058,-0.000062
 52,-0.00000611,0.00003734,0.00009800,-0.00000405,-0.00007628,-0.000018
 40,0.00002885,-0.00003987,0.00008973,0.00003058,-0.00012328,-0.0000563
 4,0.00000037,0.00034997,-0.00032540,-0.00016767,-0.00407366,0.01186924
 ,-0.00903870,-0.03488724,0.10984015,-0.12391219,0.00341050,-0.01443339
 ,0.01074084,-0.00036057,-0.00388769,-0.00023725,0.00156135,-0.00060764
 ,-0.00196278,-0.00000094,0.00000227,0.00000060,-0.00000024,0.00000100,
 -0.00000088,-0.00000098,-0.00000075,-0.00000011,-0.00000092,-0.0000007
 1,0.00000063,-0.00000132,-0.00000082,-0.00000097,-0.00000064,0.0000036
 9,0.00000420,-0.00003758,-0.00000025,-0.00001057,-0.00004157,0.0000097
 9,-0.00004628,-0.00073515,-0.00013597,-0.00090418,-0.00002808,0.000030
 32,-0.00002252,-0.00761767,0.01521679,-0.01250736,0.04120460,-0.119981
 95,0.13609450,0.00000022,0.00000070,0.00000080,-0.00000392,0.00000669,
 0.00000031,0.00000448,0.00000299,0.00000025,0.00001160,-0.00001794,-0.
 00000011,-0.00000917,-0.00002170,0.00000058,-0.00000530,0.00001468,-0.
 00000009,-0.00002675,-0.00002214,0.00001369,0.00002284,0.00000539,-0.0
 0000383,0.00000474,0.00005332,-0.00003675,0.00000710,-0.00003447,0.000
 03058,0.00002530,0.00001702,-0.00004632,-0.00002842,0.00002712,0.00003
 845,0.00004612,0.00004066,0.00005069,-0.00003222,-0.00005578,-0.000001
 68,0.00046409,-0.00009783,0.00021058,-0.00024364,-0.00003799,-0.000069
 18,0.00039471,-0.00021694,0.00026500,-0.00004174,-0.00008541,-0.000000
 67,0.00006328,-0.00000391,-0.00000230,-0.00000772,0.00001314,-0.000005
 96,-0.00002794,0.00002213,0.00001159,0.00001075,0.00003002,0.00001157,
 0.00000069,0.00003897,0.00000096,-0.00001167,-0.00001920,0.00000698,-0
 .00002408,-0.00000178,-0.00000098,0.00002279,0.00001073,-0.00001169,0.
 00018461,0.00085875,0.00043842,-0.00253171,-0.00397612,-0.00267754,-0.
 24573825,-0.01746068,0.17143327,-0.00180149,0.00278209,-0.00012663,0.0
 0014543,-0.00000833,0.00027330,-0.00000071,0.00000156,-0.00000127,-0.0
 0000172,0.00000297,0.00000051,-0.00000227,-0.00000127,0.00000104,-0.00
 000145,-0.00000333,0.00000125,-0.00000111,-0.00000170,0.00000165,-0.00
 000497,-0.00000120,0.00000236,0.00000481,0.00000576,0.00001166,-0.0000
 1490,-0.00000482,-0.00001270,-0.00000214,-0.00002986,0.00000100,-0.000
 00461,0.00000078,0.00000493,0.00038533,0.00050889,0.00061187,-0.000056
 19,0.00027871,0.00024366,0.24882519,0.00000416,-0.00000109,-0.00000663
 ,-0.00000560,0.00000379,0.00000183,0.00000920,-0.00000223,0.00000799,0
 .00000942,-0.00000624,-0.00002583,-0.00000893,-0.00002001,0.00000823,0
 .00000026,0.00001674,-0.00000346,-0.00003310,-0.00000652,-0.00001218,0
 .00001339,0.00000042,0.00003222,-0.00004718,0.00009641,-0.00004178,-0.
 00003391,-0.00009657,-0.00002153,0.00014927,0.00005544,-0.00000550,-0.
 00005848,0.00009823,0.00003119,0.00024279,-0.00000228,0.00007564,-0.00
 004174,0.00000329,0.00005434,-0.00021637,0.00112002,0.00052755,0.00022
 710,0.00018616,0.00003100,0.00039241,0.00116663,-0.00036380,-0.0000076
 7,0.00001838,0.00003279,-0.00010849,0.00008611,0.00000924,0.00004029,-
 0.00005869,-0.00002366,0.00001412,-0.00001045,-0.00000829,-0.00000557,
 -0.00002799,0.00000617,0.00001124,-0.00000716,-0.00000294,0.00003239,-
 0.00000403,-0.00001133,0.00000115,0.00005239,-0.00001514,-0.00008311,-
 0.00000304,0.00002747,0.00033747,-0.00478790,-0.00209924,0.01776896,0.
 00692526,-0.01054074,-0.01839344,-0.04733245,0.00486786,-0.01504645,-0
 .00025068,0.01068677,-0.00181610,-0.00501401,0.00063681,-0.00000024,0.
 00000201,-0.00000153,0.00000052,0.00000291,0.00000084,-0.00000390,-0.0
 0000209,-0.00000020,-0.00000152,-0.00000271,-0.00000028,-0.00000172,-0
 .00000203,0.00000024,-0.00000650,-0.00000102,0.00000744,-0.00002033,0.
 00000014,-0.00001097,-0.00015504,0.00000142,-0.00005208,0.00006792,0.0
 0006190,0.00001069,0.00000748,-0.00000359,-0.00000160,-0.00048004,0.00
 049121,-0.00001900,-0.00013343,0.00023233,0.00076409,0.01737931,0.0470
 2159,0.00000198,0.00000053,-0.00000004,-0.00000441,-0.00000139,-0.0000
 0203,0.00000475,0.00000111,-0.00000411,0.00000002,-0.00000115,0.000003
 84,0.00000187,0.00000260,0.00000212,0.00000094,0.00000122,-0.00000167,
 -0.00000087,0.00000087,0.00001780,-0.00000198,-0.00000553,-0.00000539,
 0.00000678,0.00001104,-0.00005793,-0.00001442,-0.00000362,0.00005417,0
 .00001513,0.00000819,-0.00007799,-0.00005154,-0.00004659,0.00006062,0.
 00004367,0.00004037,0.00002389,-0.00002372,-0.00002168,0.00000871,0.00
 031667,-0.00003843,0.00016119,0.00009798,0.00013406,-0.00021393,0.0004
 4237,0.00051653,0.00002777,-0.00002720,0.00011752,0.00001928,-0.000017
 87,-0.00001595,-0.00002325,-0.00001430,0.00000305,-0.00000659,0.000011
 10,-0.00001321,0.00000123,0.00000015,-0.00000725,0.00000824,0.00000353
 ,-0.00001012,-0.00000478,0.00000446,0.00000560,0.00000248,-0.00000722,
 0.00000722,0.00000203,-0.00001550,-0.00002963,-0.00001310,0.00083219,-
 0.00285572,-0.00054069,0.00857372,0.00483696,-0.00561109,0.15845652,0.
 00272296,-0.11932338,0.00152377,-0.00124908,-0.00143544,0.00044674,-0.
 00006002,0.00026027,-0.00000045,0.00000121,0.00000064,-0.00000076,0.00
 000091,-0.00000064,-0.00000082,-0.00000058,0.00000075,-0.00000048,-0.0
 0000031,0.00000079,-0.00000046,0.00000033,0.00000016,-0.00000116,0.000
 00046,-0.00000249,-0.00001037,0.00000106,0.00001041,0.00001810,0.00000
 462,-0.00003032,0.00007992,-0.00001565,0.00000635,0.00000281,0.0000005
 8,0.00000244,-0.00021396,0.00074843,0.00086879,0.00019154,-0.00023889,
 0.00010241,-0.17066921,-0.00455265,0.12570846\\-0.00001285,0.00000280,
 -0.00001841,-0.00000193,0.00000038,-0.00000068,0.00001692,0.00000485,-
 0.00000463,-0.00001653,-0.00000991,0.00001607,-0.00001622,-0.00001621,
 -0.00000607,0.00002596,0.00001046,0.00000193,-0.00001482,0.00000033,-0
 .00002400,0.00001878,0.00000656,0.00001782,0.00000651,0.00000317,0.000
 01546,-0.00000281,-0.00000144,0.00000140,0.00000819,0.00000326,-0.0000
 0574,-0.00000783,-0.00000809,0.00000234,0.00000172,0.00000699,0.000001
 29,-0.00000534,-0.00000434,-0.00000151,-0.00001422,0.00002627,0.000010
 78,0.00001509,-0.00003253,-0.00001565,-0.00000870,0.00001894,0.0000053
 5,-0.00000023,-0.00001003,-0.00000516,-0.00000025,0.00000164,-0.000003
 82,-0.00000094,0.00000135,-0.00000069,-0.00000055,-0.00000091,-0.00000
 052,-0.00000525,-0.00000030,-0.00000199,-0.00001003,-0.00001510,-0.000
 00652,0.00001844,0.00000281,-0.00000677,-0.00000822,0.00001455,-0.0000
 0057,-0.00000477,0.00000258,0.00000242,0.00000635,-0.00003498,0.000000
 74,0.00000203,-0.00000189,-0.00000131,-0.00000468,0.00000020,-0.000002
 04,-0.00000116,0.00000156,0.00000385,0.00000853,0.00002637,0.00000269,
 -0.00000039,-0.00000501,0.00000404,0.00000297,0.00000273,0.00000176,0.
 00000035,-0.00000061,-0.00000247,-0.00000002,-0.00000138,0.00000304,0.
 00000231,0.00000107,0.00000823,0.00000076,-0.00000128,-0.00000282,-0.0
 0000047,0.00000047,0.00000188,-0.00000043,0.00000019,0.00000387,0.0000
 0030,0.00000034,0.00000111,-0.00000247,0.00000141,-0.00000333,0.000001
 29,0.00000137,0.00000015,-0.00000106,0.00000281,0.00000174,0.00000569,
 -0.00000146,0.00000675\\\@


 NEVER LISTEN TO CRITICISM
 OR YOU'LL BE DOIN' EVERYBODY ELSE'S THING BUT BUT YOUR OWN.

                                               -- ANDY CAPP
 Job cpu time:  2 days  9 hours 16 minutes 23.7 seconds.
 File lengths (MBytes):  RWF=   4571 Int=      0 D2E=      0 Chk=     45 Scr=      1
 Normal termination of Gaussian 09 at Mon Dec 30 14:53:27 2013.
