 Entering Gaussian System, Link 0=g09
 Initial command:
 /opt/gaussian/g09/l1.exe /panfs/panfs.cluster/home/shuo/Gau-21600.inp -scrdir=/panfs/panfs.cluster/home/shuo/
 Default is to use a total of  12 processors:
                               12 via shared-memory
                                1 via Linda
 Entering Link 1 = /opt/gaussian/g09/l1.exe PID=     21601.
  
 Copyright (c) 1988,1990,1992,1993,1995,1998,2003,2009,2011,
            Gaussian, Inc.  All Rights Reserved.
  
 This is part of the Gaussian(R) 09 program.  It is based on
 the Gaussian(R) 03 system (copyright 2003, Gaussian, Inc.),
 the Gaussian(R) 98 system (copyright 1998, Gaussian, Inc.),
 the Gaussian(R) 94 system (copyright 1995, Gaussian, Inc.),
 the Gaussian 92(TM) system (copyright 1992, Gaussian, Inc.),
 the Gaussian 90(TM) system (copyright 1990, Gaussian, Inc.),
 the Gaussian 88(TM) system (copyright 1988, Gaussian, Inc.),
 the Gaussian 86(TM) system (copyright 1986, Carnegie Mellon
 University), and the Gaussian 82(TM) system (copyright 1983,
 Carnegie Mellon University). Gaussian is a federally registered
 trademark of Gaussian, Inc.
  
 This software contains proprietary and confidential information,
 including trade secrets, belonging to Gaussian, Inc.
  
 This software is provided under written license and may be
 used, copied, transmitted, or stored only in accord with that
 written license.
  
 The following legend is applicable only to US Government
 contracts under FAR:
  
                    RESTRICTED RIGHTS LEGEND
  
 Use, reproduction and disclosure by the US Government is
 subject to restrictions as set forth in subparagraphs (a)
 and (c) of the Commercial Computer Software - Restricted
 Rights clause in FAR 52.227-19.
  
 Gaussian, Inc.
 340 Quinnipiac St., Bldg. 40, Wallingford CT 06492
  
  
 ---------------------------------------------------------------
 Warning -- This program may not be used in any manner that
 competes with the business of Gaussian, Inc. or will provide
 assistance to any competitor of Gaussian, Inc.  The licensee
 of this program is prohibited from giving any competitor of
 Gaussian, Inc. access to this program.  By using this program,
 the user acknowledges that Gaussian, Inc. is engaged in the
 business of creating and licensing software in the field of
 computational chemistry and represents and warrants to the
 licensee that it is not a competitor of Gaussian, Inc. and that
 it will not use this program in any manner prohibited above.
 ---------------------------------------------------------------
  

 Cite this work as:
 Gaussian 09, Revision C.01,
 M. J. Frisch, G. W. Trucks, H. B. Schlegel, G. E. Scuseria, 
 M. A. Robb, J. R. Cheeseman, G. Scalmani, V. Barone, B. Mennucci, 
 G. A. Petersson, H. Nakatsuji, M. Caricato, X. Li, H. P. Hratchian, 
 A. F. Izmaylov, J. Bloino, G. Zheng, J. L. Sonnenberg, M. Hada, 
 M. Ehara, K. Toyota, R. Fukuda, J. Hasegawa, M. Ishida, T. Nakajima, 
 Y. Honda, O. Kitao, H. Nakai, T. Vreven, J. A. Montgomery, Jr., 
 J. E. Peralta, F. Ogliaro, M. Bearpark, J. J. Heyd, E. Brothers, 
 K. N. Kudin, V. N. Staroverov, T. Keith, R. Kobayashi, J. Normand, 
 K. Raghavachari, A. Rendell, J. C. Burant, S. S. Iyengar, J. Tomasi, 
 M. Cossi, N. Rega, J. M. Millam, M. Klene, J. E. Knox, J. B. Cross, 
 V. Bakken, C. Adamo, J. Jaramillo, R. Gomperts, R. E. Stratmann, 
 O. Yazyev, A. J. Austin, R. Cammi, C. Pomelli, J. W. Ochterski, 
 R. L. Martin, K. Morokuma, V. G. Zakrzewski, G. A. Voth, 
 P. Salvador, J. J. Dannenberg, S. Dapprich, A. D. Daniels, 
 O. Farkas, J. B. Foresman, J. V. Ortiz, J. Cioslowski, 
 and D. J. Fox, Gaussian, Inc., Wallingford CT, 2010.
 
 ******************************************
 Gaussian 09:  EM64L-G09RevC.01 23-Sep-2011
                29-Dec-2013 
 ******************************************
 %chk=66_C17H7N3OS2Se.chk
 %NProcShared=12
 Will use up to   12 processors via shared memory.
 %Mem=8000MB
 Default route:  MaxDisk=100GB
 --------------------------------------------
 #B3LYP/6-31++G(d,p) opt scf=direct freq test
 --------------------------------------------
 1/14=-1,18=20,19=15,26=3,38=1/1,3;
 2/9=110,12=2,17=6,18=5,40=1/2;
 3/5=1,6=6,7=1111,11=2,16=1,25=1,30=1,71=1,74=-5/1,2,3;
 4//1;
 5/5=2,38=5/2;
 6/7=2,8=2,9=2,10=2,28=1/1;
 7//1,2,3,16;
 1/14=-1,18=20,19=15/3(2);
 2/9=110/2;
 99//99;
 2/9=110/2;
 3/5=1,6=6,7=1111,11=2,16=1,25=1,30=1,71=1,74=-5/1,2,3;
 4/5=5,16=3/1;
 5/5=2,38=5/2;
 7//1,2,3,16;
 1/14=-1,18=20,19=15/3(-5);
 2/9=110/2;
 6/7=2,8=2,9=2,10=2,19=2,28=1/1;
 99/9=1/99;
 ----------------------------------------------------------------------
 Geom opt of No.66 candidate from the CEPDB database with SMILE code of
  [SiH2]1cc2c(ccc(-c3ncc(s3)-c3cccc4nsnc34)c2c1)-c1cncs1, HPC, 20131227
 , Shuo Dai, Gaussian09
 ----------------------------------------------------------------------
 Charge =  0 Multiplicity = 1
 Symbolic Z-Matrix:
 Si                   -2.91294  -0.48862   0.00974 
 H                    -3.66809  -0.8644   -1.21686 
 H                    -3.58836  -0.85541   1.28874 
 C                    -1.8818    1.09079   0.01433 
 C                    -0.38842   0.73832  -0.00577 
 C                     0.69798   1.62408  -0.00143 
 C                     2.02225   1.10131  -0.00098 
 C                     2.29753  -0.26038  -0.01274 
 C                     1.24555  -1.1441   -0.02392 
 C                     1.59912  -2.56889   0.00291 
 N                     2.74933  -3.19686  -0.09857 
 C                     2.50354  -4.59125  -0.06398 
 C                     1.17235  -4.95662   0.02425 
 S                     0.34553  -3.58488   0.35161 
 C                     0.35637  -6.15363   0.02924 
 C                     0.98463  -7.39338   0.01197 
 C                     0.2592   -8.59042   0.04269 
 C                    -1.1473   -8.65101   0.09768 
 C                    -1.85374  -7.4304    0.11858 
 N                    -3.19084  -7.29942   0.17454 
 S                    -3.51175  -5.67788   0.17921 
 N                    -1.97521  -5.09671   0.09333 
 C                    -1.11018  -6.1373    0.07762 
 C                    -0.10826  -0.64228  -0.02509 
 C                    -1.36852  -1.49641  -0.03985 
 C                     0.5167    3.08341  -0.00391 
 C                    -0.62421   3.86391   0.00226 
 N                    -0.43764   5.23111  -0.00289 
 C                     0.8383    5.47548  -0.01462 
 S                     1.88277   4.14097  -0.02748 
 H                    -2.14219   1.61989   0.93468 
 H                    -2.16761   1.64162  -0.8842 
 H                     2.90042   1.73621   0.00988 
 H                     3.3291   -0.60905  -0.00416 
 H                     3.34928  -5.26456  -0.1183 
 H                     2.07269  -7.42716  -0.02003 
 H                     0.83056  -9.51323   0.0243 
 H                    -1.67883  -9.58964   0.12177 
 H                    -1.45066  -2.06347   0.89063 
 H                    -1.40761  -2.09198  -0.95555 
 H                    -1.64343   3.5128    0.01194 
 H                     1.24409   6.47879  -0.01692 
 

 GradGradGradGradGradGradGradGradGradGradGradGradGradGradGradGradGradGrad
 Berny optimization.
 Initialization pass.
                           ----------------------------
                           !    Initial Parameters    !
                           ! (Angstroms and Degrees)  !
 --------------------------                            --------------------------
 ! Name  Definition              Value          Derivative Info.                !
 --------------------------------------------------------------------------------
 ! R1    R(1,2)                  1.4886         estimate D2E/DX2                !
 ! R2    R(1,3)                  1.4922         estimate D2E/DX2                !
 ! R3    R(1,4)                  1.8862         estimate D2E/DX2                !
 ! R4    R(1,25)                 1.8448         estimate D2E/DX2                !
 ! R5    R(4,5)                  1.5345         estimate D2E/DX2                !
 ! R6    R(4,31)                 1.0931         estimate D2E/DX2                !
 ! R7    R(4,32)                 1.092          estimate D2E/DX2                !
 ! R8    R(5,6)                  1.4017         estimate D2E/DX2                !
 ! R9    R(5,24)                 1.4089         estimate D2E/DX2                !
 ! R10   R(6,7)                  1.4237         estimate D2E/DX2                !
 ! R11   R(6,26)                 1.4705         estimate D2E/DX2                !
 ! R12   R(7,8)                  1.3893         estimate D2E/DX2                !
 ! R13   R(7,33)                 1.0837         estimate D2E/DX2                !
 ! R14   R(8,9)                  1.374          estimate D2E/DX2                !
 ! R15   R(8,34)                 1.0889         estimate D2E/DX2                !
 ! R16   R(9,10)                 1.4683         estimate D2E/DX2                !
 ! R17   R(9,24)                 1.4438         estimate D2E/DX2                !
 ! R18   R(10,11)                1.3144         estimate D2E/DX2                !
 ! R19   R(10,14)                1.6509         estimate D2E/DX2                !
 ! R20   R(11,12)                1.4163         estimate D2E/DX2                !
 ! R21   R(12,13)                1.3832         estimate D2E/DX2                !
 ! R22   R(12,35)                1.0824         estimate D2E/DX2                !
 ! R23   R(13,14)                1.6348         estimate D2E/DX2                !
 ! R24   R(13,15)                1.4487         estimate D2E/DX2                !
 ! R25   R(15,16)                1.39           estimate D2E/DX2                !
 ! R26   R(15,23)                1.4674         estimate D2E/DX2                !
 ! R27   R(16,17)                1.4            estimate D2E/DX2                !
 ! R28   R(16,36)                1.0891         estimate D2E/DX2                !
 ! R29   R(17,18)                1.4089         estimate D2E/DX2                !
 ! R30   R(17,37)                1.0855         estimate D2E/DX2                !
 ! R31   R(18,19)                1.4105         estimate D2E/DX2                !
 ! R32   R(18,38)                1.0789         estimate D2E/DX2                !
 ! R33   R(19,20)                1.3447         estimate D2E/DX2                !
 ! R34   R(19,23)                1.4922         estimate D2E/DX2                !
 ! R35   R(20,21)                1.653          estimate D2E/DX2                !
 ! R36   R(21,22)                1.645          estimate D2E/DX2                !
 ! R37   R(22,23)                1.3533         estimate D2E/DX2                !
 ! R38   R(24,25)                1.5225         estimate D2E/DX2                !
 ! R39   R(25,39)                1.0927         estimate D2E/DX2                !
 ! R40   R(25,40)                1.093          estimate D2E/DX2                !
 ! R41   R(26,27)                1.3824         estimate D2E/DX2                !
 ! R42   R(26,30)                1.7278         estimate D2E/DX2                !
 ! R43   R(27,28)                1.3799         estimate D2E/DX2                !
 ! R44   R(27,41)                1.078          estimate D2E/DX2                !
 ! R45   R(28,29)                1.2992         estimate D2E/DX2                !
 ! R46   R(29,30)                1.6947         estimate D2E/DX2                !
 ! R47   R(29,42)                1.0823         estimate D2E/DX2                !
 ! A1    A(2,1,3)              114.4942         estimate D2E/DX2                !
 ! A2    A(2,1,4)              119.3862         estimate D2E/DX2                !
 ! A3    A(2,1,25)             105.3449         estimate D2E/DX2                !
 ! A4    A(3,1,4)              116.82           estimate D2E/DX2                !
 ! A5    A(3,1,25)             105.5273         estimate D2E/DX2                !
 ! A6    A(4,1,25)              89.9906         estimate D2E/DX2                !
 ! A7    A(1,4,5)              109.8553         estimate D2E/DX2                !
 ! A8    A(1,4,31)             106.0895         estimate D2E/DX2                !
 ! A9    A(1,4,32)             106.0987         estimate D2E/DX2                !
 ! A10   A(5,4,31)             110.7346         estimate D2E/DX2                !
 ! A11   A(5,4,32)             111.0876         estimate D2E/DX2                !
 ! A12   A(31,4,32)            112.7244         estimate D2E/DX2                !
 ! A13   A(4,5,6)              127.5221         estimate D2E/DX2                !
 ! A14   A(4,5,24)             114.7576         estimate D2E/DX2                !
 ! A15   A(6,5,24)             117.7197         estimate D2E/DX2                !
 ! A16   A(5,6,7)              119.2668         estimate D2E/DX2                !
 ! A17   A(5,6,26)             122.1093         estimate D2E/DX2                !
 ! A18   A(7,6,26)             118.6232         estimate D2E/DX2                !
 ! A19   A(6,7,8)              122.9696         estimate D2E/DX2                !
 ! A20   A(6,7,33)             122.59           estimate D2E/DX2                !
 ! A21   A(8,7,33)             114.4404         estimate D2E/DX2                !
 ! A22   A(7,8,9)              118.6055         estimate D2E/DX2                !
 ! A23   A(7,8,34)             120.0975         estimate D2E/DX2                !
 ! A24   A(9,8,34)             121.2948         estimate D2E/DX2                !
 ! A25   A(8,9,10)             116.0802         estimate D2E/DX2                !
 ! A26   A(8,9,24)             119.6289         estimate D2E/DX2                !
 ! A27   A(10,9,24)            124.2696         estimate D2E/DX2                !
 ! A28   A(9,10,11)            132.2946         estimate D2E/DX2                !
 ! A29   A(9,10,14)            114.7219         estimate D2E/DX2                !
 ! A30   A(11,10,14)           112.7544         estimate D2E/DX2                !
 ! A31   A(10,11,12)           108.4586         estimate D2E/DX2                !
 ! A32   A(11,12,13)           115.3802         estimate D2E/DX2                !
 ! A33   A(11,12,35)           118.3987         estimate D2E/DX2                !
 ! A34   A(13,12,35)           126.2174         estimate D2E/DX2                !
 ! A35   A(12,13,14)           106.1333         estimate D2E/DX2                !
 ! A36   A(12,13,15)           139.5114         estimate D2E/DX2                !
 ! A37   A(14,13,15)           114.0643         estimate D2E/DX2                !
 ! A38   A(10,14,13)            95.1666         estimate D2E/DX2                !
 ! A39   A(13,15,16)           118.8388         estimate D2E/DX2                !
 ! A40   A(13,15,23)           123.6304         estimate D2E/DX2                !
 ! A41   A(16,15,23)           117.5201         estimate D2E/DX2                !
 ! A42   A(15,16,17)           121.8793         estimate D2E/DX2                !
 ! A43   A(15,16,36)           118.6604         estimate D2E/DX2                !
 ! A44   A(17,16,36)           119.4591         estimate D2E/DX2                !
 ! A45   A(16,17,18)           123.7041         estimate D2E/DX2                !
 ! A46   A(16,17,37)           116.9844         estimate D2E/DX2                !
 ! A47   A(18,17,37)           119.3115         estimate D2E/DX2                !
 ! A48   A(17,18,19)           117.6051         estimate D2E/DX2                !
 ! A49   A(17,18,38)           122.0115         estimate D2E/DX2                !
 ! A50   A(19,18,38)           120.3833         estimate D2E/DX2                !
 ! A51   A(18,19,20)           125.6586         estimate D2E/DX2                !
 ! A52   A(18,19,23)           119.9966         estimate D2E/DX2                !
 ! A53   A(20,19,23)           114.3447         estimate D2E/DX2                !
 ! A54   A(19,20,21)           106.7812         estimate D2E/DX2                !
 ! A55   A(20,21,22)            99.5021         estimate D2E/DX2                !
 ! A56   A(21,22,23)           109.0265         estimate D2E/DX2                !
 ! A57   A(15,23,19)           119.2918         estimate D2E/DX2                !
 ! A58   A(15,23,22)           130.3733         estimate D2E/DX2                !
 ! A59   A(19,23,22)           110.3349         estimate D2E/DX2                !
 ! A60   A(5,24,9)             121.8053         estimate D2E/DX2                !
 ! A61   A(5,24,25)            112.6609         estimate D2E/DX2                !
 ! A62   A(9,24,25)            125.5332         estimate D2E/DX2                !
 ! A63   A(1,25,24)            112.721          estimate D2E/DX2                !
 ! A64   A(1,25,39)            101.4005         estimate D2E/DX2                !
 ! A65   A(1,25,40)            106.8721         estimate D2E/DX2                !
 ! A66   A(24,25,39)           110.1872         estimate D2E/DX2                !
 ! A67   A(24,25,40)           110.0842         estimate D2E/DX2                !
 ! A68   A(39,25,40)           115.3351         estimate D2E/DX2                !
 ! A69   A(6,26,27)            131.4561         estimate D2E/DX2                !
 ! A70   A(6,26,30)            120.6629         estimate D2E/DX2                !
 ! A71   A(27,26,30)           107.8799         estimate D2E/DX2                !
 ! A72   A(26,27,28)           116.6039         estimate D2E/DX2                !
 ! A73   A(26,27,41)           126.6163         estimate D2E/DX2                !
 ! A74   A(28,27,41)           116.7797         estimate D2E/DX2                !
 ! A75   A(27,28,29)           108.6139         estimate D2E/DX2                !
 ! A76   A(28,29,30)           117.2092         estimate D2E/DX2                !
 ! A77   A(28,29,42)           122.8627         estimate D2E/DX2                !
 ! A78   A(30,29,42)           119.928          estimate D2E/DX2                !
 ! A79   A(26,30,29)            89.6909         estimate D2E/DX2                !
 ! D1    D(2,1,4,5)           -108.3669         estimate D2E/DX2                !
 ! D2    D(2,1,4,31)           131.9027         estimate D2E/DX2                !
 ! D3    D(2,1,4,32)            11.79           estimate D2E/DX2                !
 ! D4    D(3,1,4,5)            106.7585         estimate D2E/DX2                !
 ! D5    D(3,1,4,31)           -12.972          estimate D2E/DX2                !
 ! D6    D(3,1,4,32)          -133.0847         estimate D2E/DX2                !
 ! D7    D(25,1,4,5)            -0.6921         estimate D2E/DX2                !
 ! D8    D(25,1,4,31)         -120.4225         estimate D2E/DX2                !
 ! D9    D(25,1,4,32)          119.4648         estimate D2E/DX2                !
 ! D10   D(2,1,25,24)          121.6911         estimate D2E/DX2                !
 ! D11   D(2,1,25,39)         -120.5282         estimate D2E/DX2                !
 ! D12   D(2,1,25,40)            0.6242         estimate D2E/DX2                !
 ! D13   D(3,1,25,24)         -116.8118         estimate D2E/DX2                !
 ! D14   D(3,1,25,39)            0.9689         estimate D2E/DX2                !
 ! D15   D(3,1,25,40)          122.1213         estimate D2E/DX2                !
 ! D16   D(4,1,25,24)            1.1079         estimate D2E/DX2                !
 ! D17   D(4,1,25,39)          118.8886         estimate D2E/DX2                !
 ! D18   D(4,1,25,40)         -119.959          estimate D2E/DX2                !
 ! D19   D(1,4,5,6)           -179.6192         estimate D2E/DX2                !
 ! D20   D(1,4,5,24)             0.0999         estimate D2E/DX2                !
 ! D21   D(31,4,5,6)           -62.7623         estimate D2E/DX2                !
 ! D22   D(31,4,5,24)          116.9568         estimate D2E/DX2                !
 ! D23   D(32,4,5,6)            63.301          estimate D2E/DX2                !
 ! D24   D(32,4,5,24)         -116.9799         estimate D2E/DX2                !
 ! D25   D(4,5,6,7)            178.9961         estimate D2E/DX2                !
 ! D26   D(4,5,6,26)            -1.3079         estimate D2E/DX2                !
 ! D27   D(24,5,6,7)            -0.7157         estimate D2E/DX2                !
 ! D28   D(24,5,6,26)          178.9802         estimate D2E/DX2                !
 ! D29   D(4,5,24,9)          -178.9939         estimate D2E/DX2                !
 ! D30   D(4,5,24,25)            0.7381         estimate D2E/DX2                !
 ! D31   D(6,5,24,9)             0.7544         estimate D2E/DX2                !
 ! D32   D(6,5,24,25)         -179.5136         estimate D2E/DX2                !
 ! D33   D(5,6,7,8)              0.3966         estimate D2E/DX2                !
 ! D34   D(5,6,7,33)          -179.5233         estimate D2E/DX2                !
 ! D35   D(26,6,7,8)          -179.31           estimate D2E/DX2                !
 ! D36   D(26,6,7,33)            0.7701         estimate D2E/DX2                !
 ! D37   D(5,6,26,27)            0.6967         estimate D2E/DX2                !
 ! D38   D(5,6,26,30)         -178.8785         estimate D2E/DX2                !
 ! D39   D(7,6,26,27)         -179.6055         estimate D2E/DX2                !
 ! D40   D(7,6,26,30)            0.8193         estimate D2E/DX2                !
 ! D41   D(6,7,8,9)             -0.0696         estimate D2E/DX2                !
 ! D42   D(6,7,8,34)          -179.5332         estimate D2E/DX2                !
 ! D43   D(33,7,8,9)           179.8563         estimate D2E/DX2                !
 ! D44   D(33,7,8,34)            0.3927         estimate D2E/DX2                !
 ! D45   D(7,8,9,10)          -178.3077         estimate D2E/DX2                !
 ! D46   D(7,8,9,24)             0.0864         estimate D2E/DX2                !
 ! D47   D(34,8,9,10)            1.1492         estimate D2E/DX2                !
 ! D48   D(34,8,9,24)          179.5433         estimate D2E/DX2                !
 ! D49   D(8,9,10,11)           -7.9828         estimate D2E/DX2                !
 ! D50   D(8,9,10,14)          166.0147         estimate D2E/DX2                !
 ! D51   D(24,9,10,11)         173.7063         estimate D2E/DX2                !
 ! D52   D(24,9,10,14)         -12.2962         estimate D2E/DX2                !
 ! D53   D(8,9,24,5)            -0.4434         estimate D2E/DX2                !
 ! D54   D(8,9,24,25)          179.8605         estimate D2E/DX2                !
 ! D55   D(10,9,24,5)          177.8112         estimate D2E/DX2                !
 ! D56   D(10,9,24,25)          -1.8848         estimate D2E/DX2                !
 ! D57   D(9,10,11,12)        -177.4975         estimate D2E/DX2                !
 ! D58   D(14,10,11,12)          8.4147         estimate D2E/DX2                !
 ! D59   D(9,10,14,13)         171.5087         estimate D2E/DX2                !
 ! D60   D(11,10,14,13)        -13.3028         estimate D2E/DX2                !
 ! D61   D(10,11,12,13)          1.7549         estimate D2E/DX2                !
 ! D62   D(10,11,12,35)       -178.8908         estimate D2E/DX2                !
 ! D63   D(11,12,13,14)        -10.7905         estimate D2E/DX2                !
 ! D64   D(11,12,13,15)        176.1973         estimate D2E/DX2                !
 ! D65   D(35,12,13,14)        169.9136         estimate D2E/DX2                !
 ! D66   D(35,12,13,15)         -3.0987         estimate D2E/DX2                !
 ! D67   D(12,13,14,10)         13.0931         estimate D2E/DX2                !
 ! D68   D(15,13,14,10)       -171.8698         estimate D2E/DX2                !
 ! D69   D(12,13,15,16)          4.4841         estimate D2E/DX2                !
 ! D70   D(12,13,15,23)       -176.7325         estimate D2E/DX2                !
 ! D71   D(14,13,15,16)       -168.1625         estimate D2E/DX2                !
 ! D72   D(14,13,15,23)         10.6209         estimate D2E/DX2                !
 ! D73   D(13,15,16,17)        178.6936         estimate D2E/DX2                !
 ! D74   D(13,15,16,36)         -0.9125         estimate D2E/DX2                !
 ! D75   D(23,15,16,17)         -0.1643         estimate D2E/DX2                !
 ! D76   D(23,15,16,36)       -179.7703         estimate D2E/DX2                !
 ! D77   D(13,15,23,19)       -178.2359         estimate D2E/DX2                !
 ! D78   D(13,15,23,22)          1.7536         estimate D2E/DX2                !
 ! D79   D(16,15,23,19)          0.5625         estimate D2E/DX2                !
 ! D80   D(16,15,23,22)       -179.4481         estimate D2E/DX2                !
 ! D81   D(15,16,17,18)         -0.2295         estimate D2E/DX2                !
 ! D82   D(15,16,17,37)        179.8908         estimate D2E/DX2                !
 ! D83   D(36,16,17,18)        179.3735         estimate D2E/DX2                !
 ! D84   D(36,16,17,37)         -0.5062         estimate D2E/DX2                !
 ! D85   D(16,17,18,19)          0.1919         estimate D2E/DX2                !
 ! D86   D(16,17,18,38)       -179.9088         estimate D2E/DX2                !
 ! D87   D(37,17,18,19)       -179.931          estimate D2E/DX2                !
 ! D88   D(37,17,18,38)         -0.0318         estimate D2E/DX2                !
 ! D89   D(17,18,19,20)       -179.7539         estimate D2E/DX2                !
 ! D90   D(17,18,19,23)          0.2266         estimate D2E/DX2                !
 ! D91   D(38,18,19,20)          0.3451         estimate D2E/DX2                !
 ! D92   D(38,18,19,23)       -179.6744         estimate D2E/DX2                !
 ! D93   D(18,19,20,21)        179.884          estimate D2E/DX2                !
 ! D94   D(23,19,20,21)         -0.0975         estimate D2E/DX2                !
 ! D95   D(18,19,23,15)         -0.605          estimate D2E/DX2                !
 ! D96   D(18,19,23,22)        179.4035         estimate D2E/DX2                !
 ! D97   D(20,19,23,15)        179.3776         estimate D2E/DX2                !
 ! D98   D(20,19,23,22)         -0.6138         estimate D2E/DX2                !
 ! D99   D(19,20,21,22)          0.6189         estimate D2E/DX2                !
 ! D100  D(20,21,22,23)         -0.9941         estimate D2E/DX2                !
 ! D101  D(21,22,23,15)       -178.9783         estimate D2E/DX2                !
 ! D102  D(21,22,23,19)          1.0119         estimate D2E/DX2                !
 ! D103  D(5,24,25,1)           -1.2832         estimate D2E/DX2                !
 ! D104  D(5,24,25,39)        -113.7582         estimate D2E/DX2                !
 ! D105  D(5,24,25,40)         117.9348         estimate D2E/DX2                !
 ! D106  D(9,24,25,1)          178.4369         estimate D2E/DX2                !
 ! D107  D(9,24,25,39)          65.9619         estimate D2E/DX2                !
 ! D108  D(9,24,25,40)         -62.3451         estimate D2E/DX2                !
 ! D109  D(6,26,27,28)        -179.9876         estimate D2E/DX2                !
 ! D110  D(6,26,27,41)           0.0961         estimate D2E/DX2                !
 ! D111  D(30,26,27,28)         -0.3716         estimate D2E/DX2                !
 ! D112  D(30,26,27,41)        179.7121         estimate D2E/DX2                !
 ! D113  D(6,26,30,29)        -179.9205         estimate D2E/DX2                !
 ! D114  D(27,26,30,29)          0.4141         estimate D2E/DX2                !
 ! D115  D(26,27,28,29)          0.0807         estimate D2E/DX2                !
 ! D116  D(41,27,28,29)       -179.9945         estimate D2E/DX2                !
 ! D117  D(27,28,29,30)          0.2743         estimate D2E/DX2                !
 ! D118  D(27,28,29,42)       -179.7594         estimate D2E/DX2                !
 ! D119  D(28,29,30,26)         -0.4212         estimate D2E/DX2                !
 ! D120  D(42,29,30,26)        179.6115         estimate D2E/DX2                !
 --------------------------------------------------------------------------------
 Trust Radius=3.00D-01 FncErr=1.00D-07 GrdErr=1.00D-06
 Number of steps in this run=    252 maximum allowed number of steps=    252.
 GradGradGradGradGradGradGradGradGradGradGradGradGradGradGradGradGradGrad

                          Input orientation:                          
 ---------------------------------------------------------------------
 Center     Atomic      Atomic             Coordinates (Angstroms)
 Number     Number       Type             X           Y           Z
 ---------------------------------------------------------------------
      1         14           0       -2.912940   -0.488620    0.009740
      2          1           0       -3.668090   -0.864400   -1.216860
      3          1           0       -3.588360   -0.855410    1.288740
      4          6           0       -1.881800    1.090790    0.014330
      5          6           0       -0.388420    0.738320   -0.005770
      6          6           0        0.697980    1.624080   -0.001430
      7          6           0        2.022250    1.101310   -0.000980
      8          6           0        2.297530   -0.260380   -0.012740
      9          6           0        1.245550   -1.144100   -0.023920
     10          6           0        1.599120   -2.568890    0.002910
     11          7           0        2.749330   -3.196860   -0.098570
     12          6           0        2.503540   -4.591250   -0.063980
     13          6           0        1.172350   -4.956620    0.024250
     14         16           0        0.345530   -3.584880    0.351610
     15          6           0        0.356370   -6.153630    0.029240
     16          6           0        0.984630   -7.393380    0.011970
     17          6           0        0.259200   -8.590420    0.042690
     18          6           0       -1.147300   -8.651010    0.097680
     19          6           0       -1.853740   -7.430400    0.118580
     20          7           0       -3.190840   -7.299420    0.174540
     21         16           0       -3.511750   -5.677880    0.179210
     22          7           0       -1.975210   -5.096710    0.093330
     23          6           0       -1.110180   -6.137300    0.077620
     24          6           0       -0.108260   -0.642280   -0.025090
     25          6           0       -1.368520   -1.496410   -0.039850
     26          6           0        0.516700    3.083410   -0.003910
     27          6           0       -0.624210    3.863910    0.002260
     28          7           0       -0.437640    5.231110   -0.002890
     29          6           0        0.838300    5.475480   -0.014620
     30         16           0        1.882770    4.140970   -0.027480
     31          1           0       -2.142190    1.619890    0.934680
     32          1           0       -2.167610    1.641620   -0.884200
     33          1           0        2.900420    1.736210    0.009880
     34          1           0        3.329100   -0.609050   -0.004160
     35          1           0        3.349280   -5.264560   -0.118300
     36          1           0        2.072690   -7.427160   -0.020030
     37          1           0        0.830560   -9.513230    0.024300
     38          1           0       -1.678830   -9.589640    0.121770
     39          1           0       -1.450660   -2.063470    0.890630
     40          1           0       -1.407610   -2.091980   -0.955550
     41          1           0       -1.643430    3.512800    0.011940
     42          1           0        1.244090    6.478790   -0.016920
 ---------------------------------------------------------------------
                    Distance matrix (angstroms):
                    1          2          3          4          5
     1  Si   0.000000
     2  H    1.488627   0.000000
     3  H    1.492169   2.506884   0.000000
     4  C    1.886215   2.920519   2.885162   0.000000
     5  C    2.806924   3.845996   3.802019   1.534543   0.000000
     6  C    4.183583   5.170336   5.117140   2.634371   1.401733
     7  C    5.184987   6.141852   6.080384   3.904094   2.437850
     8  C    5.215515   6.115829   6.057360   4.392402   2.865620
     9  C    4.209967   5.064109   5.017281   3.844023   2.492728
    10  C    4.968526   5.668918   5.612426   5.050762   3.858501
    11  N    6.277547   6.919120   6.897342   6.312215   5.033858
    12  C    6.795238   7.301203   7.273073   7.177947   6.063921
    13  C    6.054158   6.458829   6.409619   6.774887   5.905019
    14  S    4.507918   5.096102   4.878905   5.190053   4.399598
    15  C    6.540727   6.762026   6.724461   7.582298   6.932165
    16  C    7.928857   8.110820   8.080064   8.955309   8.246825
    17  C    8.700731   8.757937   8.728501   9.915166   9.351318
    18  C    8.351636   8.289372   8.255227   9.769806   9.420516
    19  C    7.022967   6.941730   6.899904   8.521874   8.300037
    20  N    6.818459   6.601003   6.551697   8.493225   8.514184
    21  S    5.226444   5.014284   4.949055   6.964109   7.138419
    22  N    4.703277   4.742878   4.692535   6.188709   6.047752
    23  C    5.929767   6.001838   5.958737   7.269435   6.913902
    24  C    2.809102   3.760591   3.725945   2.480026   1.408872
    25  C    1.844812   2.659476   2.665281   2.638180   2.440446
    26  C    4.951971   5.879534   5.834104   3.118280   2.513701
    27  C    4.917607   5.753988   5.719545   3.044975   3.134481
    28  N    6.232382   7.004625   6.974315   4.384991   4.493061
    29  C    7.045771   7.870642   7.834171   5.159970   4.893425
    30  S    6.665833   7.568382   7.525258   4.845341   4.091064
    31  H    2.428041   3.623423   2.888577   1.093066   2.176539
    32  H    2.427461   2.939769   3.602132   1.091997   2.180162
    33  H    6.224550   7.170313   7.103256   4.825579   3.436931
    34  H    6.243217   7.106090   7.041558   5.481175   3.954158
    35  H    7.876636   8.355341   8.339737   8.232391   7.072315
    36  H    8.544046   8.801067   8.772016   9.391200   8.528325
    37  H    9.770240   9.827542   9.802220  10.945421  10.323812
    38  H    9.184996   9.048696   9.016368  10.682899  10.409043
    39  H    2.322581   3.285769   2.487501   3.301990   3.127605
    40  H    2.401784   2.585538   3.364761   3.360885   3.154588
    41  H    4.197978   4.976854   4.949165   2.433713   3.045177
    42  H    8.113348   8.915818   8.879629   6.229182   5.968099
                    6          7          8          9         10
     6  C    0.000000
     7  C    1.423720   0.000000
     8  C    2.471817   1.389287   0.000000
     9  C    2.821907   2.376059   1.373953   0.000000
    10  C    4.288714   3.694512   2.411895   1.468250   0.000000
    11  N    5.240127   4.360325   2.972273   2.545732   1.314392
    12  C    6.472580   5.713217   4.336070   3.669739   2.216391
    13  C    6.597825   6.117310   4.829293   3.813527   2.425663
    14  S    5.232793   4.989598   3.872384   2.628396   1.650853
    15  C    7.785269   7.443804   6.204858   5.088109   3.794138
    16  C    9.022025   8.557837   7.252862   6.254828   4.863474
    17  C   10.224015   9.850882   8.575980   7.511658   6.168938
    18  C   10.439940  10.254927   9.070927   7.879988   6.674128
    19  C    9.407937   9.371642   8.286101   7.010241   5.964051
    20  N    9.735643   9.888346   8.927786   7.590053   6.734322
    21  S    8.430485   8.753002   7.945683   6.574825   5.984805
    22  N    7.233529   7.375909   6.454273   5.100017   4.378799
    23  C    7.969612   7.887697   6.794030   5.521940   4.481009
    24  C    2.405612   2.753136   2.435945   1.443823   2.574443
    25  C    3.742907   4.271649   3.868905   2.637752   3.155777
    26  C    1.470548   2.489058   3.788452   4.289926   5.755013
    27  C    2.600969   3.825666   5.054360   5.345732   6.806182
    28  N    3.781574   4.806902   6.134958   6.593700   8.061540
    29  C    3.853978   4.531588   5.918568   6.632102   8.080287
    30  S    2.781931   3.042974   4.420874   5.323347   6.715922
    31  H    2.990466   4.299645   4.913668   4.476085   5.693108
    32  H    2.998532   4.315894   4.930976   4.488873   5.718707
    33  H    2.205322   1.083697   2.085752   3.322036   4.497479
    34  H    3.451039   2.152487   1.088936   2.151244   2.614164
    35  H    7.382168   6.503774   5.114601   4.627394   3.216269
    36  H    9.155060   8.528640   7.170310   6.337272   4.881350
    37  H   11.138129  10.681256   9.368490   8.379551   6.986773
    38  H   11.463504  11.314127  10.142220   8.938701   7.749194
    39  H    4.360097   4.782458   4.256306   2.991854   3.216311
    40  H    4.376409   4.782494   4.239306   2.967435   3.191632
    41  H    3.008262   4.387785   5.456067   5.480348   6.892109
    42  H    4.885354   5.433514   6.821009   7.622893   9.054665
                   11         12         13         14         15
    11  N    0.000000
    12  C    1.416310   0.000000
    13  C    2.366158   1.383238   0.000000
    14  S    2.476182   2.417127   1.634768   0.000000
    15  C    3.805927   2.657077   1.448683   2.588922   0.000000
    16  C    4.553808   3.188227   2.444011   3.876658   1.389960
    17  C    5.942322   4.587134   3.746823   5.015807   2.438764
    18  C    6.705967   5.462272   4.362876   5.287598   2.915924
    19  C    6.257657   5.203844   3.909694   4.436115   2.553960
    20  N    7.224348   6.310074   4.954667   5.131771   3.730502
    21  S    6.740456   6.117485   4.741837   4.391922   3.900151
    22  N    5.095835   4.509927   3.151433   2.781757   2.560752
    23  C    4.855208   3.933102   2.570369   2.951103   1.467439
    24  C    3.833680   4.734699   4.500658   3.001120   5.531167
    25  C    4.455521   4.956961   4.293388   2.730003   4.966862
    26  C    6.665987   7.927897   8.066768   6.679954   9.238491
    27  C    7.825945   9.015372   9.001659   7.519768  10.065454
    28  N    9.010916  10.253440  10.314196   8.857805  11.412440
    29  C    8.880798  10.203652  10.437519   9.081138  11.639174
    30  S    7.389163   8.754333   9.125432   7.886417  10.407300
    31  H    6.942309   7.820383   7.420616   5.798134   8.215244
    32  H    6.942939   7.832054   7.450999   5.929536   8.244439
    33  H    4.936575   6.340325   6.912337   5.912549   8.289882
    34  H    2.653640   4.067314   4.853220   4.228927   6.291312
    35  H    2.153070   1.082392   2.203219   3.473421   3.125656
    36  H    4.284793   2.868789   2.629856   4.228985   2.137770
    37  H    6.602523   5.199283   4.569411   5.957157   3.392903
    38  H    7.779768   6.520017   5.440920   6.340978   3.994592
    39  H    4.461278   4.789222   4.000139   2.414856   4.553763
    40  H    4.385809   4.726346   3.977734   2.647814   4.536346
    41  H    8.020479   9.103777   8.925236   7.378916   9.871138
    42  H    9.792375  11.141554  11.435709  10.110424  12.663657
                   16         17         18         19         20
    16  C    0.000000
    17  C    1.400035   0.000000
    18  C    2.476713   1.408878   0.000000
    19  C    2.840613   2.411622   1.410455   0.000000
    20  N    4.179690   3.686033   2.451277   1.344665   0.000000
    21  S    4.815428   4.766717   3.799575   2.413296   1.652996
    22  N    3.747261   4.147428   3.649452   2.336986   2.517197
    23  C    2.443415   2.809665   2.514064   1.492202   2.385176
    24  C    6.839089   7.956918   8.076784   7.010415   7.338914
    25  C    6.349351   7.278823   7.159340   5.955903   6.086192
    26  C   10.487247  11.676763  11.852250  10.778413  11.026371
    27  C   11.371677  12.485687  12.526211  11.361633  11.455881
    28  N   12.704362  13.839160  13.900611  12.741033  12.830658
    29  C   12.869719  14.077933  14.265796  13.184330  13.396560
    30  S   11.569332  12.834687  13.146549  12.160569  12.516583
    31  H    9.584750  10.526764  10.352862   9.091588   9.012856
    32  H    9.610981  10.556665  10.389579   9.132668   9.061464
    33  H    9.328433  10.659100  11.148367  10.326693  10.898310
    34  H    7.178017   8.551535   9.204436   8.567830   9.343586
    35  H    3.184402   4.542671   5.633287   5.640779   6.855624
    36  H    1.089054   2.155424   3.446738   3.928877   5.268674
    37  H    2.125477   1.085527   2.158874   3.398902   4.592949
    38  H    3.453930   2.181892   1.078949   2.166315   2.744825
    39  H    5.925422   6.800272   6.642024   5.437138   5.563828
    40  H    5.896079   6.782659   6.648152   5.463654   5.619114
    41  H   11.218354  12.251893  12.174226  10.945740  10.923599
    42  H   13.874626  15.101478  15.318052  14.250631  14.475646
                   21         22         23         24         25
    21  S    0.000000
    22  N    1.645019   0.000000
    23  C    2.447228   1.353274   0.000000
    24  C    6.081344   4.831301   5.586559   0.000000
    25  C    4.703840   3.653487   4.649559   1.522502   0.000000
    26  C    9.644799   8.551809   9.363486   3.777802   4.952787
    27  C    9.970705   9.062351  10.013294   4.535714   5.411913
    28  N   11.335315  10.442090  11.388570   5.882660   6.791718
    29  C   11.973218  10.940690  11.775472   6.190563   7.312861
    30  S   11.205061  10.011660  10.705682   5.181089   6.507772
    31  H    7.463503   6.771150   7.872331   3.189897   3.355533
    32  H    7.517489   6.811584   7.909163   3.192991   3.346446
    33  H    9.803740   8.394494   8.836383   3.835439   5.355012
    34  H    8.516096   6.948691   7.090518   3.437584   4.780828
    35  H    6.879904   5.331337   4.548279   5.773105   6.038439
    36  H    5.855395   4.672188   3.435686   7.126792   6.856830
    37  H    5.795650   5.232854   3.894383   8.920626   8.313211
    38  H    4.320273   4.502785   3.499138   9.085346   8.100789
    39  H    4.221157   3.179840   4.168093   2.158787   1.092747
    40  H    4.309729   3.232758   4.185752   2.157706   1.093041
    41  H    9.380149   8.616285   9.665045   4.429764   5.017015
    42  H   13.055310  12.015334  12.834222   7.248348   8.392263
                   26         27         28         29         30
    26  C    0.000000
    27  C    1.382351   0.000000
    28  N    2.350187   1.379881   0.000000
    29  C    2.413616   2.176322   1.299183   0.000000
    30  S    1.727755   2.522419   2.563847   1.694698   0.000000
    31  H    3.176876   2.865187   4.101882   4.964883   4.845813
    32  H    3.171622   2.847186   4.080924   4.948752   4.835938
    33  H    2.738112   4.117060   4.832922   4.270255   2.611490
    34  H    4.641536   5.969596   6.949518   6.574625   4.965391
    35  H    8.816190   9.956512  11.158547  11.030151   9.519606
    36  H   10.625133  11.608705  12.904799  12.961553  11.569691
    37  H   12.600581  13.456029  14.798805  14.988763  13.694780
    38  H   12.862439  13.495352  14.873154  15.274567  14.185800
    39  H    5.582211   6.050294   7.418590   7.930610   7.102799
    40  H    5.602968   6.083070   7.448225   7.949586   7.108979
    41  H    2.202451   1.078045   2.099223   3.164143   3.581932
    42  H    3.472445   3.213800   2.094067   1.082267   2.423515
                   31         32         33         34         35
    31  H    0.000000
    32  H    1.819187   0.000000
    33  H    5.128031   5.147160   0.000000
    34  H    5.982024   6.004482   2.384158   0.000000
    35  H    8.869085   8.872317   7.016316   4.656953   0.000000
    36  H   10.026255  10.048368   9.200727   6.932924   2.513201
    37  H   11.559083  11.586418  11.438288   9.248131   4.941202
    38  H   11.248515  11.286810  12.217075  10.283298   6.636704
    39  H    3.747972   4.170339   5.843388   5.075637   5.856991
    40  H    4.229723   3.810835   5.843476   5.053775   5.778776
    41  H    2.164098   2.139894   4.878816   6.458789  10.098820
    42  H    5.998445   5.982482   5.023566   7.388160  11.930984
                   36         37         38         39         40
    36  H    0.000000
    37  H    2.428279   0.000000
    38  H    4.332474   2.512444   0.000000
    39  H    6.481702   7.839223   7.568781   0.000000
    40  H    6.438310   7.813096   7.579517   1.846902   0.000000
    41  H   11.553930  13.258893  13.102948   5.648366   5.692557
    42  H   13.930615  15.997419  16.332702   9.003084   9.020567
                   41         42
    41  H    0.000000
    42  H    4.139529   0.000000
 Stoichiometry    C20H14N4S3Si
 Framework group  C1[X(C20H14N4S3Si)]
 Deg. of freedom   120
 Full point group                 C1      NOp   1
 Largest Abelian subgroup         C1      NOp   1
 Largest concise Abelian subgroup C1      NOp   1
                         Standard orientation:                         
 ---------------------------------------------------------------------
 Center     Atomic      Atomic             Coordinates (Angstroms)
 Number     Number       Type             X           Y           Z
 ---------------------------------------------------------------------
      1         14           0       -1.059726    2.888110    0.071674
      2          1           0       -0.586851    3.557612    1.314319
      3          1           0       -0.579615    3.519397   -1.192264
      4          6           0       -2.777993    2.110899    0.035511
      5          6           0       -2.658100    0.581049    0.033036
      6          6           0       -3.699354   -0.356873    0.002257
      7          6           0       -3.385100   -1.745353   -0.016364
      8          6           0       -2.081683   -2.225835    0.002607
      9          6           0       -1.047782   -1.321719    0.039615
     10          6           0        0.306463   -1.888608    0.019211
     11          7           0        0.750120   -3.122784    0.106415
     12          6           0        2.165994   -3.092670    0.088286
     13          6           0        2.731452   -1.831819    0.026153
     14         16           0        1.505944   -0.799883   -0.298970
     15          6           0        4.039066   -1.208566    0.045686
     16          6           0        5.167985   -2.019264    0.063031
     17          6           0        6.462083   -1.485086    0.055283
     18          6           0        6.737492   -0.103721    0.025005
     19          6           0        5.639474    0.781356    0.005542
     20          7           0        5.714981    2.123466   -0.028579
     21         16           0        4.161675    2.688672   -0.041957
     22          7           0        3.351614    1.257961    0.012405
     23          6           0        4.247564    0.243798    0.022374
     24          6           0       -1.336828    0.092734    0.059648
     25          6           0       -0.300382    1.207124    0.103554
     26          6           0       -5.113782    0.045440   -0.004948
     27          6           0       -5.710665    1.292268    0.001643
     28          7           0       -7.090288    1.316970   -0.008407
     29          6           0       -7.526869    0.093401   -0.020749
     30         16           0       -6.367856   -1.142983   -0.014135
     31          1           0       -3.250662    2.463522   -0.884834
     32          1           0       -3.288797    2.463514    0.933954
     33          1           0       -4.146565   -2.515792   -0.047882
     34          1           0       -1.894657   -3.298337   -0.020640
     35          1           0        2.701511   -4.032195    0.133968
     36          1           0        5.034749   -3.100052    0.076623
     37          1           0        7.286486   -2.191097    0.071945
     38          1           0        7.746529    0.278287    0.018287
     39          1           0        0.283044    1.216100   -0.820367
     40          1           0        0.283785    1.140324    1.024979
     41          1           0       -5.207855    2.245810    0.012559
     42          1           0       -8.580363   -0.154128   -0.034223
 ---------------------------------------------------------------------
 Rotational constants (GHZ):      0.3638059      0.0644444      0.0548691
 Standard basis: 6-31++G(d,p) (6D, 7F)
 There are   632 symmetry adapted basis functions of A   symmetry.
 Integral buffers will be    131072 words long.
 Raffenetti 2 integral format.
 Two-electron integral symmetry is turned on.
   632 basis functions,  1104 primitive gaussians,   632 cartesian basis functions
   112 alpha electrons      112 beta electrons
       nuclear repulsion energy      2997.6340257951 Hartrees.
 NAtoms=   42 NActive=   42 NUniq=   42 SFac= 1.00D+00 NAtFMM=   60 NAOKFM=F Big=F
 One-electron integrals computed using PRISM.
 NBasis=   632 RedAO= T  NBF=   632
 NBsUse=   622 1.00D-06 NBFU=   622
 Harris functional with IExCor=  402 diagonalized for initial guess.
 ExpMin= 3.31D-02 ExpMax= 2.19D+04 ExpMxC= 3.30D+03 IAcc=3 IRadAn=         5 AccDes= 0.00D+00
 HarFok:  IExCor=  402 AccDes= 0.00D+00 IRadAn=         5 IDoV= 1
 ScaDFX=  1.000000  1.000000  1.000000  1.000000
 FoFCou: FMM=F IPFlag=           0 FMFlag=      100000 FMFlg1=           0
         NFxFlg=           0 DoJE=T BraDBF=F KetDBF=T FulRan=T
         Omega=  0.000000  0.000000  1.000000  0.000000  0.000000 ICntrl=     500 IOpCl=  0
         NMat0=    1 NMatS0=    1 NMatT0=    0 NMatD0=    1 NMtDS0=    0 NMtDT0=    0
         I1Cent=           4 NGrid=           0.
 Petite list used in FoFCou.
 Initial guess orbital symmetries:
       Occupied  (A) (A) (A) (A) (A) (A) (A) (A) (A) (A) (A) (A)
                 (A) (A) (A) (A) (A) (A) (A) (A) (A) (A) (A) (A)
                 (A) (A) (A) (A) (A) (A) (A) (A) (A) (A) (A) (A)
                 (A) (A) (A) (A) (A) (A) (A) (A) (A) (A) (A) (A)
                 (A) (A) (A) (A) (A) (A) (A) (A) (A) (A) (A) (A)
                 (A) (A) (A) (A) (A) (A) (A) (A) (A) (A) (A) (A)
                 (A) (A) (A) (A) (A) (A) (A) (A) (A) (A) (A) (A)
                 (A) (A) (A) (A) (A) (A) (A) (A) (A) (A) (A) (A)
                 (A) (A) (A) (A) (A) (A) (A) (A) (A) (A) (A) (A)
                 (A) (A) (A) (A)
       Virtual   (A) (A) (A) (A) (A) (A) (A) (A) (A) (A) (A) (A)
                 (A) (A) (A) (A) (A) (A) (A) (A) (A) (A) (A) (A)
                 (A) (A) (A) (A) (A) (A) (A) (A) (A) (A) (A) (A)
                 (A) (A) (A) (A) (A) (A) (A) (A) (A) (A) (A) (A)
                 (A) (A) (A) (A) (A) (A) (A) (A) (A) (A) (A) (A)
                 (A) (A) (A) (A) (A) (A) (A) (A) (A) (A) (A) (A)
                 (A) (A) (A) (A) (A) (A) (A) (A) (A) (A) (A) (A)
                 (A) (A) (A) (A) (A) (A) (A) (A) (A) (A) (A) (A)
                 (A) (A) (A) (A) (A) (A) (A) (A) (A) (A) (A) (A)
                 (A) (A) (A) (A) (A) (A) (A) (A) (A) (A) (A) (A)
                 (A) (A) (A) (A) (A) (A) (A) (A) (A) (A) (A) (A)
                 (A) (A) (A) (A) (A) (A) (A) (A) (A) (A) (A) (A)
                 (A) (A) (A) (A) (A) (A) (A) (A) (A) (A) (A) (A)
                 (A) (A) (A) (A) (A) (A) (A) (A) (A) (A) (A) (A)
                 (A) (A) (A) (A) (A) (A) (A) (A) (A) (A) (A) (A)
                 (A) (A) (A) (A) (A) (A) (A) (A) (A) (A) (A) (A)
                 (A) (A) (A) (A) (A) (A) (A) (A) (A) (A) (A) (A)
                 (A) (A) (A) (A) (A) (A) (A) (A) (A) (A) (A) (A)
                 (A) (A) (A) (A) (A) (A) (A) (A) (A) (A) (A) (A)
                 (A) (A) (A) (A) (A) (A) (A) (A) (A) (A) (A) (A)
                 (A) (A) (A) (A) (A) (A) (A) (A) (A) (A) (A) (A)
                 (A) (A) (A) (A) (A) (A) (A) (A) (A) (A) (A) (A)
                 (A) (A) (A) (A) (A) (A) (A) (A) (A) (A) (A) (A)
                 (A) (A) (A) (A) (A) (A) (A) (A) (A) (A) (A) (A)
                 (A) (A) (A) (A) (A) (A) (A) (A) (A) (A) (A) (A)
                 (A) (A) (A) (A) (A) (A) (A) (A) (A) (A) (A) (A)
                 (A) (A) (A) (A) (A) (A) (A) (A) (A) (A) (A) (A)
                 (A) (A) (A) (A) (A) (A) (A) (A) (A) (A) (A) (A)
                 (A) (A) (A) (A) (A) (A) (A) (A) (A) (A) (A) (A)
                 (A) (A) (A) (A) (A) (A) (A) (A) (A) (A) (A) (A)
                 (A) (A) (A) (A) (A) (A) (A) (A) (A) (A) (A) (A)
                 (A) (A) (A) (A) (A) (A) (A) (A) (A) (A) (A) (A)
                 (A) (A) (A) (A) (A) (A) (A) (A) (A) (A) (A) (A)
                 (A) (A) (A) (A) (A) (A) (A) (A) (A) (A) (A) (A)
                 (A) (A) (A) (A) (A) (A) (A) (A) (A) (A) (A) (A)
                 (A) (A) (A) (A) (A) (A) (A) (A) (A) (A) (A) (A)
                 (A) (A) (A) (A) (A) (A) (A) (A) (A) (A) (A) (A)
                 (A) (A) (A) (A) (A) (A) (A) (A) (A) (A) (A) (A)
                 (A) (A) (A) (A) (A) (A) (A) (A) (A) (A) (A) (A)
                 (A) (A) (A) (A) (A) (A) (A) (A) (A) (A) (A) (A)
                 (A) (A) (A) (A) (A) (A) (A) (A) (A) (A) (A) (A)
                 (A) (A) (A) (A) (A) (A) (A) (A) (A) (A) (A) (A)
                 (A) (A) (A) (A) (A) (A)
 The electronic state of the initial guess is 1-A.
 Requested convergence on RMS density matrix=1.00D-08 within 128 cycles.
 Requested convergence on MAX density matrix=1.00D-06.
 Requested convergence on             energy=1.00D-06.
 No special actions if energy rises.
 SCF Done:  E(RB3LYP) =  -2473.58750464     A.U. after   19 cycles
             Convg  =    0.6292D-08             -V/T =  2.0056

 **********************************************************************

            Population analysis using the SCF density.

 **********************************************************************

 Orbital symmetries:
       Occupied  (A) (A) (A) (A) (A) (A) (A) (A) (A) (A) (A) (A)
                 (A) (A) (A) (A) (A) (A) (A) (A) (A) (A) (A) (A)
                 (A) (A) (A) (A) (A) (A) (A) (A) (A) (A) (A) (A)
                 (A) (A) (A) (A) (A) (A) (A) (A) (A) (A) (A) (A)
                 (A) (A) (A) (A) (A) (A) (A) (A) (A) (A) (A) (A)
                 (A) (A) (A) (A) (A) (A) (A) (A) (A) (A) (A) (A)
                 (A) (A) (A) (A) (A) (A) (A) (A) (A) (A) (A) (A)
                 (A) (A) (A) (A) (A) (A) (A) (A) (A) (A) (A) (A)
                 (A) (A) (A) (A) (A) (A) (A) (A) (A) (A) (A) (A)
                 (A) (A) (A) (A)
       Virtual   (A) (A) (A) (A) (A) (A) (A) (A) (A) (A) (A) (A)
                 (A) (A) (A) (A) (A) (A) (A) (A) (A) (A) (A) (A)
                 (A) (A) (A) (A) (A) (A) (A) (A) (A) (A) (A) (A)
                 (A) (A) (A) (A) (A) (A) (A) (A) (A) (A) (A) (A)
                 (A) (A) (A) (A) (A) (A) (A) (A) (A) (A) (A) (A)
                 (A) (A) (A) (A) (A) (A) (A) (A) (A) (A) (A) (A)
                 (A) (A) (A) (A) (A) (A) (A) (A) (A) (A) (A) (A)
                 (A) (A) (A) (A) (A) (A) (A) (A) (A) (A) (A) (A)
                 (A) (A) (A) (A) (A) (A) (A) (A) (A) (A) (A) (A)
                 (A) (A) (A) (A) (A) (A) (A) (A) (A) (A) (A) (A)
                 (A) (A) (A) (A) (A) (A) (A) (A) (A) (A) (A) (A)
                 (A) (A) (A) (A) (A) (A) (A) (A) (A) (A) (A) (A)
                 (A) (A) (A) (A) (A) (A) (A) (A) (A) (A) (A) (A)
                 (A) (A) (A) (A) (A) (A) (A) (A) (A) (A) (A) (A)
                 (A) (A) (A) (A) (A) (A) (A) (A) (A) (A) (A) (A)
                 (A) (A) (A) (A) (A) (A) (A) (A) (A) (A) (A) (A)
                 (A) (A) (A) (A) (A) (A) (A) (A) (A) (A) (A) (A)
                 (A) (A) (A) (A) (A) (A) (A) (A) (A) (A) (A) (A)
                 (A) (A) (A) (A) (A) (A) (A) (A) (A) (A) (A) (A)
                 (A) (A) (A) (A) (A) (A) (A) (A) (A) (A) (A) (A)
                 (A) (A) (A) (A) (A) (A) (A) (A) (A) (A) (A) (A)
                 (A) (A) (A) (A) (A) (A) (A) (A) (A) (A) (A) (A)
                 (A) (A) (A) (A) (A) (A) (A) (A) (A) (A) (A) (A)
                 (A) (A) (A) (A) (A) (A) (A) (A) (A) (A) (A) (A)
                 (A) (A) (A) (A) (A) (A) (A) (A) (A) (A) (A) (A)
                 (A) (A) (A) (A) (A) (A) (A) (A) (A) (A) (A) (A)
                 (A) (A) (A) (A) (A) (A) (A) (A) (A) (A) (A) (A)
                 (A) (A) (A) (A) (A) (A) (A) (A) (A) (A) (A) (A)
                 (A) (A) (A) (A) (A) (A) (A) (A) (A) (A) (A) (A)
                 (A) (A) (A) (A) (A) (A) (A) (A) (A) (A) (A) (A)
                 (A) (A) (A) (A) (A) (A) (A) (A) (A) (A) (A) (A)
                 (A) (A) (A) (A) (A) (A) (A) (A) (A) (A) (A) (A)
                 (A) (A) (A) (A) (A) (A) (A) (A) (A) (A) (A) (A)
                 (A) (A) (A) (A) (A) (A) (A) (A) (A) (A) (A) (A)
                 (A) (A) (A) (A) (A) (A) (A) (A) (A) (A) (A) (A)
                 (A) (A) (A) (A) (A) (A) (A) (A) (A) (A) (A) (A)
                 (A) (A) (A) (A) (A) (A) (A) (A) (A) (A) (A) (A)
                 (A) (A) (A) (A) (A) (A) (A) (A) (A) (A) (A) (A)
                 (A) (A) (A) (A) (A) (A) (A) (A) (A) (A) (A) (A)
                 (A) (A) (A) (A) (A) (A) (A) (A) (A) (A) (A) (A)
                 (A) (A) (A) (A) (A) (A) (A) (A) (A) (A) (A) (A)
                 (A) (A) (A) (A) (A) (A) (A) (A) (A) (A) (A) (A)
                 (A) (A) (A) (A) (A) (A)
 The electronic state is 1-A.
 Alpha  occ. eigenvalues --  -88.99408 -88.92755 -88.90375 -66.13287 -14.39161
 Alpha  occ. eigenvalues --  -14.38834 -14.34817 -14.34633 -10.27285 -10.26327
 Alpha  occ. eigenvalues --  -10.25434 -10.25217 -10.24831 -10.23970 -10.23602
 Alpha  occ. eigenvalues --  -10.23009 -10.22775 -10.22706 -10.22652 -10.22449
 Alpha  occ. eigenvalues --  -10.22389 -10.22039 -10.21902 -10.21839 -10.20506
 Alpha  occ. eigenvalues --  -10.20018 -10.19589 -10.17194  -8.04672  -7.98910
 Alpha  occ. eigenvalues --   -7.96959  -6.01245  -6.00653  -6.00422  -5.95287
 Alpha  occ. eigenvalues --   -5.94930  -5.94646  -5.93322  -5.92877  -5.92687
 Alpha  occ. eigenvalues --   -5.28291  -3.64197  -3.64127  -3.64045  -1.02875
 Alpha  occ. eigenvalues --   -0.98017  -0.97750  -0.90664  -0.88585  -0.88054
 Alpha  occ. eigenvalues --   -0.83285  -0.83142  -0.80555  -0.79347  -0.78215
 Alpha  occ. eigenvalues --   -0.77002  -0.75299  -0.72665  -0.71007  -0.69663
 Alpha  occ. eigenvalues --   -0.67356  -0.64536  -0.63140  -0.62759  -0.60442
 Alpha  occ. eigenvalues --   -0.58279  -0.57584  -0.56682  -0.56018  -0.53456
 Alpha  occ. eigenvalues --   -0.52569  -0.51539  -0.51091  -0.50559  -0.48973
 Alpha  occ. eigenvalues --   -0.47638  -0.47023  -0.46466  -0.46261  -0.45057
 Alpha  occ. eigenvalues --   -0.44388  -0.43886  -0.43023  -0.42937  -0.42377
 Alpha  occ. eigenvalues --   -0.42186  -0.42033  -0.40576  -0.40004  -0.39461
 Alpha  occ. eigenvalues --   -0.38406  -0.38206  -0.37260  -0.36919  -0.36378
 Alpha  occ. eigenvalues --   -0.35311  -0.35146  -0.34683  -0.33681  -0.33308
 Alpha  occ. eigenvalues --   -0.31813  -0.31648  -0.29525  -0.28989  -0.28641
 Alpha  occ. eigenvalues --   -0.28438  -0.28357  -0.27479  -0.25794  -0.25429
 Alpha  occ. eigenvalues --   -0.24306  -0.21253
 Alpha virt. eigenvalues --   -0.11336  -0.07160  -0.04145  -0.02540  -0.02445
 Alpha virt. eigenvalues --   -0.01841  -0.01630  -0.01352  -0.01273  -0.01020
 Alpha virt. eigenvalues --   -0.00286   0.00418   0.00645   0.00819   0.01031
 Alpha virt. eigenvalues --    0.01071   0.01677   0.02107   0.02893   0.03018
 Alpha virt. eigenvalues --    0.03181   0.03472   0.03744   0.04062   0.04223
 Alpha virt. eigenvalues --    0.04656   0.04932   0.04997   0.05492   0.05742
 Alpha virt. eigenvalues --    0.06178   0.06248   0.06569   0.06812   0.07124
 Alpha virt. eigenvalues --    0.07730   0.07949   0.08443   0.08603   0.08722
 Alpha virt. eigenvalues --    0.09039   0.09482   0.09702   0.09851   0.10248
 Alpha virt. eigenvalues --    0.10591   0.10733   0.10952   0.11252   0.11404
 Alpha virt. eigenvalues --    0.11625   0.11708   0.11989   0.12093   0.12181
 Alpha virt. eigenvalues --    0.12541   0.12802   0.12813   0.12992   0.13083
 Alpha virt. eigenvalues --    0.13377   0.13537   0.13706   0.13970   0.14068
 Alpha virt. eigenvalues --    0.14201   0.14792   0.14840   0.14926   0.15659
 Alpha virt. eigenvalues --    0.15796   0.15960   0.16239   0.16339   0.16495
 Alpha virt. eigenvalues --    0.16877   0.17020   0.17194   0.17319   0.17363
 Alpha virt. eigenvalues --    0.17725   0.18092   0.18254   0.18360   0.18700
 Alpha virt. eigenvalues --    0.18838   0.19425   0.19854   0.19970   0.20133
 Alpha virt. eigenvalues --    0.20209   0.20315   0.20758   0.21034   0.21176
 Alpha virt. eigenvalues --    0.21478   0.21594   0.22022   0.22263   0.22568
 Alpha virt. eigenvalues --    0.22890   0.23256   0.23467   0.24251   0.24283
 Alpha virt. eigenvalues --    0.24459   0.24896   0.25013   0.25046   0.25167
 Alpha virt. eigenvalues --    0.25723   0.25849   0.26086   0.26242   0.26609
 Alpha virt. eigenvalues --    0.26757   0.27044   0.27387   0.27524   0.27776
 Alpha virt. eigenvalues --    0.27942   0.28381   0.28547   0.28820   0.28993
 Alpha virt. eigenvalues --    0.29670   0.29822   0.30455   0.30666   0.30798
 Alpha virt. eigenvalues --    0.30922   0.31470   0.31913   0.32075   0.32164
 Alpha virt. eigenvalues --    0.32807   0.32838   0.32987   0.33257   0.33509
 Alpha virt. eigenvalues --    0.34074   0.34208   0.34461   0.35054   0.35474
 Alpha virt. eigenvalues --    0.35568   0.36521   0.36970   0.37390   0.37739
 Alpha virt. eigenvalues --    0.37867   0.38498   0.39316   0.39640   0.40054
 Alpha virt. eigenvalues --    0.40756   0.41066   0.41183   0.41560   0.41742
 Alpha virt. eigenvalues --    0.42165   0.42459   0.43303   0.43515   0.43816
 Alpha virt. eigenvalues --    0.45333   0.46503   0.47843   0.48891   0.49125
 Alpha virt. eigenvalues --    0.50158   0.50374   0.50813   0.51412   0.52546
 Alpha virt. eigenvalues --    0.53551   0.54826   0.55788   0.56520   0.57778
 Alpha virt. eigenvalues --    0.57909   0.59064   0.59322   0.60113   0.60982
 Alpha virt. eigenvalues --    0.61527   0.62871   0.63274   0.63909   0.65071
 Alpha virt. eigenvalues --    0.65582   0.65832   0.65913   0.66218   0.66779
 Alpha virt. eigenvalues --    0.67263   0.67655   0.68200   0.68550   0.69254
 Alpha virt. eigenvalues --    0.69577   0.70488   0.70758   0.71286   0.71570
 Alpha virt. eigenvalues --    0.71797   0.73053   0.73765   0.73867   0.74277
 Alpha virt. eigenvalues --    0.74912   0.75161   0.75384   0.76070   0.76978
 Alpha virt. eigenvalues --    0.77376   0.77925   0.78255   0.79214   0.79722
 Alpha virt. eigenvalues --    0.79875   0.80514   0.80785   0.82127   0.82673
 Alpha virt. eigenvalues --    0.82812   0.83655   0.84697   0.84792   0.86077
 Alpha virt. eigenvalues --    0.87423   0.87810   0.88413   0.88891   0.89173
 Alpha virt. eigenvalues --    0.90630   0.91359   0.92330   0.93585   0.93946
 Alpha virt. eigenvalues --    0.94149   0.95572   0.95948   0.96218   0.97389
 Alpha virt. eigenvalues --    0.97729   0.98240   0.99313   0.99895   1.00513
 Alpha virt. eigenvalues --    1.00737   1.01255   1.01561   1.01845   1.02352
 Alpha virt. eigenvalues --    1.02957   1.03866   1.04665   1.05459   1.06208
 Alpha virt. eigenvalues --    1.06403   1.06417   1.06657   1.07364   1.08758
 Alpha virt. eigenvalues --    1.09094   1.09860   1.11563   1.11864   1.12446
 Alpha virt. eigenvalues --    1.12754   1.13260   1.13592   1.14359   1.14541
 Alpha virt. eigenvalues --    1.15890   1.16530   1.17168   1.17439   1.18607
 Alpha virt. eigenvalues --    1.18843   1.19259   1.20177   1.20348   1.21196
 Alpha virt. eigenvalues --    1.21933   1.22453   1.22834   1.24101   1.24596
 Alpha virt. eigenvalues --    1.25512   1.25832   1.25872   1.26882   1.27593
 Alpha virt. eigenvalues --    1.28097   1.28877   1.29808   1.30733   1.31646
 Alpha virt. eigenvalues --    1.31983   1.32996   1.33116   1.33878   1.35166
 Alpha virt. eigenvalues --    1.35278   1.35863   1.37046   1.38040   1.38120
 Alpha virt. eigenvalues --    1.38343   1.38551   1.38899   1.39608   1.40298
 Alpha virt. eigenvalues --    1.41482   1.42025   1.42374   1.43428   1.44841
 Alpha virt. eigenvalues --    1.46226   1.48382   1.49410   1.50808   1.52847
 Alpha virt. eigenvalues --    1.55215   1.57543   1.57822   1.62537   1.63970
 Alpha virt. eigenvalues --    1.65432   1.67901   1.68042   1.68838   1.69670
 Alpha virt. eigenvalues --    1.70199   1.71116   1.73088   1.73581   1.75395
 Alpha virt. eigenvalues --    1.75505   1.77453   1.77753   1.79296   1.80147
 Alpha virt. eigenvalues --    1.80428   1.81875   1.82729   1.83709   1.84556
 Alpha virt. eigenvalues --    1.84716   1.86053   1.87572   1.88026   1.88765
 Alpha virt. eigenvalues --    1.89722   1.91001   1.92029   1.94169   1.95244
 Alpha virt. eigenvalues --    1.95597   1.95956   1.96959   1.97196   1.98162
 Alpha virt. eigenvalues --    2.00725   2.01355   2.02440   2.02792   2.03451
 Alpha virt. eigenvalues --    2.03763   2.06053   2.07046   2.08743   2.09989
 Alpha virt. eigenvalues --    2.12207   2.12789   2.13505   2.14106   2.16025
 Alpha virt. eigenvalues --    2.16430   2.16651   2.17482   2.18957   2.21011
 Alpha virt. eigenvalues --    2.21615   2.21807   2.22376   2.24532   2.25137
 Alpha virt. eigenvalues --    2.26027   2.26679   2.27244   2.27439   2.27797
 Alpha virt. eigenvalues --    2.28342   2.29307   2.30390   2.31955   2.32725
 Alpha virt. eigenvalues --    2.33105   2.35103   2.36800   2.37950   2.38175
 Alpha virt. eigenvalues --    2.38571   2.38977   2.39583   2.41337   2.42196
 Alpha virt. eigenvalues --    2.42827   2.43297   2.44162   2.44751   2.46900
 Alpha virt. eigenvalues --    2.47612   2.48136   2.49783   2.50817   2.51819
 Alpha virt. eigenvalues --    2.52141   2.52959   2.55532   2.55885   2.57941
 Alpha virt. eigenvalues --    2.58139   2.58904   2.59552   2.61128   2.61586
 Alpha virt. eigenvalues --    2.62117   2.62410   2.62871   2.63335   2.64079
 Alpha virt. eigenvalues --    2.64438   2.65388   2.66095   2.68092   2.68180
 Alpha virt. eigenvalues --    2.69494   2.70518   2.71494   2.73702   2.74651
 Alpha virt. eigenvalues --    2.74684   2.76692   2.76962   2.79982   2.80665
 Alpha virt. eigenvalues --    2.81178   2.82988   2.85582   2.87136   2.89022
 Alpha virt. eigenvalues --    2.92330   2.97118   2.99331   3.01394   3.03471
 Alpha virt. eigenvalues --    3.04917   3.05950   3.06484   3.10233   3.12054
 Alpha virt. eigenvalues --    3.15023   3.18399   3.20687   3.25864   3.30299
 Alpha virt. eigenvalues --    3.30791   3.32174   3.35430   3.38689   3.40836
 Alpha virt. eigenvalues --    3.41785   3.43082   3.45509   3.49147   3.53473
 Alpha virt. eigenvalues --    3.55822   3.73262   3.76440   3.97061   3.98847
 Alpha virt. eigenvalues --    4.04551   4.13561   4.22222   4.23167   4.25464
 Alpha virt. eigenvalues --    4.28846   4.30253   4.32557   4.32912   4.35946
 Alpha virt. eigenvalues --    4.37670   4.39305   4.41410   4.43470   4.47447
 Alpha virt. eigenvalues --    4.49040   4.53346   4.53780   4.55570   4.60951
 Alpha virt. eigenvalues --    4.61641   4.64221   4.65781   4.85140   4.86967
          Condensed to atoms (all electrons):
              1          2          3          4          5          6
     1  Si  14.906768   0.247171   0.395622  -0.481031   0.092694  -0.250028
     2  H    0.247171   0.745482  -0.029710   0.028251  -0.027334   0.002575
     3  H    0.395622  -0.029710   0.725343   0.020446   0.023011   0.019066
     4  C   -0.481031   0.028251   0.020446  13.356436  -2.487154  -1.788135
     5  C    0.092694  -0.027334   0.023011  -2.487154   9.486488  -1.795002
     6  C   -0.250028   0.002575   0.019066  -1.788135  -1.795002  13.987751
     7  C   -0.091990   0.003569  -0.002205   0.509652  -0.762850   0.813373
     8  C   -0.138408   0.001264   0.002063   1.014760   1.303176  -4.829292
     9  C   -0.086011   0.008509   0.013533  -2.376328   0.076564   0.946190
    10  C    0.016456  -0.001176   0.003114  -0.106912  -0.197586   0.537079
    11  N    0.002029   0.000108  -0.000066  -0.029407  -0.099891   0.070481
    12  C   -0.145070   0.002012   0.004535   0.040005   0.219293  -0.000168
    13  C   -0.067902  -0.000240   0.003573   0.124445  -0.064715  -0.035531
    14  S   -0.004709   0.026222  -0.026252  -0.823282  -0.484633  -0.174877
    15  C    0.005740  -0.000111   0.000730   0.045746   0.023550  -0.006002
    16  C    0.002289  -0.000637   0.000412   0.018226   0.010993   0.001641
    17  C   -0.001002  -0.000000   0.000052   0.001479  -0.000284   0.000179
    18  C   -0.006131   0.001398  -0.000070  -0.001022  -0.000489  -0.001178
    19  C    0.070968   0.004002  -0.004937  -0.004216  -0.001353  -0.005485
    20  N    0.000106  -0.000726   0.000544   0.000263   0.000345   0.000093
    21  S    0.013856  -0.001033  -0.003118  -0.002758  -0.009933  -0.000218
    22  N   -0.045213   0.001803   0.004303   0.004955   0.001081   0.005088
    23  C    0.108239  -0.006990  -0.000851  -0.008511  -0.010376  -0.020151
    24  C   -0.132716   0.005872  -0.014549   1.597679   1.217489  -4.220354
    25  C   -0.227768   0.039396  -0.078086  -1.508653  -0.478874   0.026341
    26  C   -0.026309   0.001287   0.004787  -0.790281  -0.826532   3.007864
    27  C    0.088221  -0.008020   0.002039  -0.716236   0.945022  -0.797761
    28  N    0.003089  -0.000108  -0.000169   0.033062  -0.043412   0.066352
    29  C   -0.008865  -0.000580   0.000293  -0.204130   0.033634  -0.107205
    30  S    0.004421  -0.000095  -0.000118   0.118492  -0.167708   0.258072
    31  H   -0.252553   0.021538  -0.019283   0.553578  -0.216508   0.041725
    32  H   -0.190257  -0.015926   0.014176   0.422681  -0.151609   0.063024
    33  H   -0.005100   0.000309   0.000033   0.004056   0.107282  -0.523183
    34  H    0.000978  -0.000234  -0.000035   0.038694   0.100860  -0.125041
    35  H   -0.001268   0.000027   0.000047  -0.000177   0.002117   0.000804
    36  H   -0.000094   0.000015  -0.000002   0.000237   0.000248  -0.000579
    37  H    0.000058  -0.000003   0.000000  -0.000006  -0.000009   0.000015
    38  H   -0.000070   0.000008   0.000001   0.000006  -0.000007  -0.000005
    39  H   -0.459544   0.020587  -0.012778   0.286283   0.024096   0.055737
    40  H   -0.360136  -0.003833   0.017610   0.176227  -0.014242  -0.003912
    41  H    0.131506  -0.006544  -0.002856   0.095009   0.033333  -0.204499
    42  H   -0.000337  -0.000021   0.000008  -0.007956   0.001864  -0.019821
              7          8          9         10         11         12
     1  Si  -0.091990  -0.138408  -0.086011   0.016456   0.002029  -0.145070
     2  H    0.003569   0.001264   0.008509  -0.001176   0.000108   0.002012
     3  H   -0.002205   0.002063   0.013533   0.003114  -0.000066   0.004535
     4  C    0.509652   1.014760  -2.376328  -0.106912  -0.029407   0.040005
     5  C   -0.762850   1.303176   0.076564  -0.197586  -0.099891   0.219293
     6  C    0.813373  -4.829292   0.946190   0.537079   0.070481  -0.000168
     7  C    9.533054   0.227077  -1.552512   0.117218   0.176565  -0.273262
     8  C    0.227077  10.375623  -0.614029  -0.358531   0.204231  -0.106839
     9  C   -1.552512  -0.614029   9.838720   0.105360  -0.473148   0.746639
    10  C    0.117218  -0.358531   0.105360   9.910593   0.152667  -0.328965
    11  N    0.176565   0.204231  -0.473148   0.152667   7.101761  -0.573325
    12  C   -0.273262  -0.106839   0.746639  -0.328965  -0.573325  15.710005
    13  C    0.056032  -0.671348   0.232171  -2.611106   0.685394  -4.852411
    14  S    0.341890   0.135704  -0.802343  -1.120864   0.391056  -1.686544
    15  C   -0.021320  -0.012371   0.022199   0.633487  -0.039668  -0.858140
    16  C   -0.015286  -0.081804   0.078152  -0.333344  -0.102706   0.408710
    17  C   -0.001471  -0.011705   0.000289  -0.258730  -0.008467   0.202579
    18  C    0.000165  -0.004521   0.007436  -0.165325  -0.006576  -0.056124
    19  C    0.002841   0.005986  -0.008816   0.418971  -0.029274  -0.971054
    20  N   -0.000001   0.000229   0.000940  -0.000426   0.000279   0.001149
    21  S   -0.000168  -0.001658  -0.005424  -0.024409   0.002456  -0.037391
    22  N    0.001492   0.013193   0.021597  -0.017239   0.008933   0.090111
    23  C    0.011471  -0.016932  -0.054408   0.359281  -0.013796  -2.604714
    24  C   -0.641954   1.450052  -0.994998  -0.842713  -0.154229   0.106734
    25  C   -0.110324  -0.553879   0.573758   0.467561  -0.052902  -0.292835
    26  C   -0.974199  -1.630894   0.596122  -0.025479   0.004647  -0.019877
    27  C   -1.037396   0.040004  -0.194081  -0.058411  -0.000838  -0.009800
    28  N    0.015104  -0.000202   0.001022  -0.001208   0.000007  -0.000008
    29  C   -0.408239  -0.040658  -0.030877  -0.000119  -0.000064  -0.000303
    30  S    0.214621  -0.102816   0.008163   0.005563   0.000052   0.001264
    31  H    0.058461   0.014978  -0.015037   0.006971   0.000067   0.003698
    32  H    0.059229   0.009176   0.014206   0.006313   0.000293   0.005398
    33  H    0.391696   0.329966   0.037166   0.010198   0.003005  -0.004705
    34  H   -0.149318   0.459795  -0.037206  -0.022711  -0.035405   0.019883
    35  H   -0.006174   0.005609   0.013548   0.072336  -0.127369   0.881492
    36  H   -0.000208  -0.002126   0.001703   0.006434  -0.000989  -0.156451
    37  H    0.000003   0.000181  -0.000285   0.005421   0.000045  -0.001680
    38  H   -0.000001  -0.000048   0.000083  -0.002340  -0.000074   0.000819
    39  H    0.006563   0.040476  -0.003099  -0.031373  -0.007071   0.102571
    40  H    0.015481   0.042713  -0.024593  -0.014753  -0.006021   0.069275
    41  H   -0.134616   0.020755  -0.059461  -0.008853  -0.000238  -0.001949
    42  H   -0.013208   0.001181  -0.000877  -0.000160  -0.000001  -0.000007
             13         14         15         16         17         18
     1  Si  -0.067902  -0.004709   0.005740   0.002289  -0.001002  -0.006131
     2  H   -0.000240   0.026222  -0.000111  -0.000637  -0.000000   0.001398
     3  H    0.003573  -0.026252   0.000730   0.000412   0.000052  -0.000070
     4  C    0.124445  -0.823282   0.045746   0.018226   0.001479  -0.001022
     5  C   -0.064715  -0.484633   0.023550   0.010993  -0.000284  -0.000489
     6  C   -0.035531  -0.174877  -0.006002   0.001641   0.000179  -0.001178
     7  C    0.056032   0.341890  -0.021320  -0.015286  -0.001471   0.000165
     8  C   -0.671348   0.135704  -0.012371  -0.081804  -0.011705  -0.004521
     9  C    0.232171  -0.802343   0.022199   0.078152   0.000289   0.007436
    10  C   -2.611106  -1.120864   0.633487  -0.333344  -0.258730  -0.165325
    11  N    0.685394   0.391056  -0.039668  -0.102706  -0.008467  -0.006576
    12  C   -4.852411  -1.686544  -0.858140   0.408710   0.202579  -0.056124
    13  C   17.753811  -0.134795   2.435296  -2.357500  -0.404518  -0.784160
    14  S   -0.134795  26.454258  -0.777331  -2.028363  -0.277549  -0.061950
    15  C    2.435296  -0.777331  10.815928  -2.874226  -2.325395   1.290678
    16  C   -2.357500  -2.028363  -2.874226  12.128883   0.442052  -2.717214
    17  C   -0.404518  -0.277549  -2.325395   0.442052   8.053583   0.615161
    18  C   -0.784160  -0.061950   1.290678  -2.717214   0.615161  15.039055
    19  C   -3.966754  -0.834238  -4.342503   3.626828  -0.446415  -0.658480
    20  N    0.161143  -0.005931   0.092288  -0.032542   0.036917  -0.530407
    21  S    0.032190   0.153210  -0.015428  -0.024600  -0.033575  -0.286124
    22  N    0.012577  -0.061134  -0.248247   0.037021   0.048253   0.112849
    23  C    0.902934  -0.544563   1.526282  -0.265560   0.501642  -5.528666
    24  C    0.338365  -0.262568  -0.006116   0.015760   0.010939  -0.008642
    25  C    0.078041  -1.108013   0.143106   0.120478  -0.001648  -0.004865
    26  C   -0.028012  -0.025943   0.003024  -0.000975  -0.000097  -0.000061
    27  C    0.014097  -0.062210   0.001234   0.000157   0.000006  -0.000000
    28  N   -0.000048   0.000068   0.000001  -0.000000  -0.000000  -0.000000
    29  C    0.000897  -0.004043   0.000067   0.000008   0.000000  -0.000000
    30  S   -0.001308  -0.000703   0.000002   0.000017   0.000000  -0.000002
    31  H    0.000386   0.005339   0.000558   0.000344   0.000027   0.000019
    32  H   -0.004424   0.011761  -0.000370  -0.000113   0.000026  -0.000001
    33  H    0.008631   0.020930  -0.000892  -0.000126   0.000018   0.000025
    34  H   -0.015163  -0.086645   0.008365   0.002652  -0.000215  -0.000050
    35  H   -0.562293   0.016996  -0.110648   0.050427   0.014430  -0.003936
    36  H    0.019032  -0.040322  -0.170945   0.463150   0.029862  -0.023906
    37  H   -0.004525   0.000024  -0.063934   0.158294   0.292328  -0.178370
    38  H   -0.008050  -0.003815   0.067363  -0.080427  -0.104628   0.531699
    39  H    0.077171  -0.360021  -0.000545   0.024087   0.004090  -0.009037
    40  H    0.078402  -0.221119   0.014109   0.021058   0.006478   0.000565
    41  H    0.002764  -0.013653   0.000261   0.000044   0.000001  -0.000002
    42  H    0.000015  -0.000105   0.000002   0.000000   0.000000  -0.000000
             19         20         21         22         23         24
     1  Si   0.070968   0.000106   0.013856  -0.045213   0.108239  -0.132716
     2  H    0.004002  -0.000726  -0.001033   0.001803  -0.006990   0.005872
     3  H   -0.004937   0.000544  -0.003118   0.004303  -0.000851  -0.014549
     4  C   -0.004216   0.000263  -0.002758   0.004955  -0.008511   1.597679
     5  C   -0.001353   0.000345  -0.009933   0.001081  -0.010376   1.217489
     6  C   -0.005485   0.000093  -0.000218   0.005088  -0.020151  -4.220354
     7  C    0.002841  -0.000001  -0.000168   0.001492   0.011471  -0.641954
     8  C    0.005986   0.000229  -0.001658   0.013193  -0.016932   1.450052
     9  C   -0.008816   0.000940  -0.005424   0.021597  -0.054408  -0.994998
    10  C    0.418971  -0.000426  -0.024409  -0.017239   0.359281  -0.842713
    11  N   -0.029274   0.000279   0.002456   0.008933  -0.013796  -0.154229
    12  C   -0.971054   0.001149  -0.037391   0.090111  -2.604714   0.106734
    13  C   -3.966754   0.161143   0.032190   0.012577   0.902934   0.338365
    14  S   -0.834238  -0.005931   0.153210  -0.061134  -0.544563  -0.262568
    15  C   -4.342503   0.092288  -0.015428  -0.248247   1.526282  -0.006116
    16  C    3.626828  -0.032542  -0.024600   0.037021  -0.265560   0.015760
    17  C   -0.446415   0.036917  -0.033575   0.048253   0.501642   0.010939
    18  C   -0.658480  -0.530407  -0.286124   0.112849  -5.528666  -0.008642
    19  C   20.295069  -0.490406  -0.478044   0.530414  -6.480969  -0.146820
    20  N   -0.490406   7.478241   0.097412  -0.152884   0.733882   0.002015
    21  S   -0.478044   0.097412  15.714908  -0.162460   0.239627   0.007267
    22  N    0.530414  -0.152884  -0.162460   7.830767  -0.752847   0.029766
    23  C   -6.480969   0.733882   0.239627  -0.752847  17.478256  -0.123073
    24  C   -0.146820   0.002015   0.007267   0.029766  -0.123073  10.085582
    25  C    0.213518   0.006467   0.003626  -0.032374   0.285554  -0.822731
    26  C    0.000522   0.000005  -0.000249  -0.000541   0.003888  -0.869371
    27  C    0.000230  -0.000001  -0.000060  -0.000178   0.001609  -0.098504
    28  N    0.000000  -0.000000   0.000000  -0.000000   0.000002   0.001590
    29  C    0.000003   0.000000  -0.000006  -0.000008   0.000046   0.003277
    30  S   -0.000022   0.000000  -0.000008  -0.000007  -0.000099  -0.041440
    31  H    0.000159   0.000001  -0.000988   0.000598  -0.001047   0.018151
    32  H   -0.000748  -0.000001  -0.000243   0.001063  -0.003663  -0.025363
    33  H   -0.000004  -0.000000   0.000019   0.000087   0.000111   0.122027
    34  H    0.001083  -0.000012  -0.000105  -0.000587   0.001710   0.086360
    35  H   -0.010504  -0.000046  -0.000314  -0.000989  -0.064115   0.000865
    36  H    0.074785   0.001085  -0.000613  -0.003621   0.095861   0.000688
    37  H    0.075308  -0.002041   0.001362   0.002934   0.003965  -0.000067
    38  H   -0.085636  -0.022700  -0.005992  -0.006445  -0.012094   0.000074
    39  H   -0.055035   0.003510  -0.018773   0.034499  -0.040036   0.033813
    40  H   -0.020019  -0.001179  -0.008371   0.020188  -0.054944   0.055352
    41  H    0.000075   0.000000   0.000040  -0.000116   0.000630   0.001799
    42  H    0.000000   0.000000  -0.000000  -0.000000   0.000001   0.000333
             25         26         27         28         29         30
     1  Si  -0.227768  -0.026309   0.088221   0.003089  -0.008865   0.004421
[...]
 -0.00108800,0.00000534,-0.00008561,-0.00007620,-0.00007655,-0.00040049
 ,-0.00075559,0.00012597,0.00088996,0.00824092,-0.00032954,0.00099417,0
 .00364343,0.00722663,0.04002549,-0.03910312,0.00089233,0.00228157,0.00
 286996,0.00014241,-0.00046612,-0.00223180,-0.00003634,0.00000822,-0.00
 053449,-0.00012187,0.00018320,0.00065618,-0.00017398,0.00059570,0.0041
 1601,-0.00000188,0.00000023,-0.00000087,-0.00000185,0.00000243,0.00000
 798,-0.00000232,-0.00000221,0.00000316,-0.00000043,0.00000031,0.000000
 97,0.00000157,0.00000189,-0.00000167,-0.00000003,0.00000165,0.00000013
 ,-0.00000047,0.00000072,-0.00000075,-0.00000040,-0.00000056,0.00000007
 ,0.00000028,0.00000104,0.00000023,-0.00000009,0.00000066,0.00000092,-0
 .00000161,-0.00000038,0.00000628,0.00005641,0.00001872,0.00008125,-0.0
 0010222,0.00001074,0.00011463,0.00009980,-0.00081518,-0.00513522,-0.00
 773760,-0.04350062,0.02915756,0.00314070,0.00363092,-0.01390374,-0.001
 79831,0.00290899,-0.00061428,0.00055982,-0.00120609,0.00078696,0.00042
 227,0.00012623,0.00151285,-0.00203866,0.00115541,0.00009937,-0.0004007
 6,-0.00022187,-0.00137520,-0.00027342,-0.00021175,0.00025696,-0.000207
 22,-0.00024376,-0.00149199,0.00010764,-0.00061687,-0.00059508,-0.00065
 125,-0.00082992,0.00093764,0.00009609,0.00012977,-0.00002473,0.0004041
 6,-0.00013757,-0.00019224,-0.00023432,0.00069543,-0.00022552,-0.000465
 87,0.00101569,0.00071884,0.00006924,-0.00001719,-0.00006078,-0.0000285
 7,0.00001321,-0.00001596,-0.00000200,-0.00001602,0.00003098,0.00001056
 ,-0.00000278,0.00000189,-0.00003199,0.00001104,-0.00001195,-0.00000472
 ,-0.00006096,0.00001520,0.00003588,-0.00001463,-0.00000895,-0.00005977
 ,-0.00002242,-0.00001496,-0.00000553,0.00005270,0.00000372,-0.01017626
 ,-0.01402773,0.02591185,-0.05213269,-0.02589082,0.05175475,-0.00014891
 ,0.00013865,-0.00000385,0.00001544,-0.00002462,0.00003051,0.00002142,-
 0.00003911,-0.00005044,-0.00002621,0.00000204,0.00003695,-0.00000592,-
 0.00002132,0.00000101,0.00018354,0.00002027,0.00006031,0.00005348,-0.0
 0000313,0.00010622,0.00000537,0.00000149,0.00013650,-0.00006835,-0.000
 01171,-0.00005357,0.00007618,0.00004687,0.00002908,0.00000031,0.000007
 19,-0.00001039,0.00000046,-0.00000527,-0.00000065,-0.00000029,-0.00000
 270,-0.00000024,0.06363011,-0.00372635,-0.00552813,0.01441713,0.001494
 86,-0.00166612,0.00025001,-0.00049462,0.00136169,-0.00102074,-0.000432
 29,-0.00010674,-0.00071646,-0.00180598,-0.00070122,-0.00020940,0.00013
 126,-0.00026448,-0.00103327,-0.00024983,0.00030905,0.00011599,-0.00035
 874,-0.00060714,-0.00031488,0.00158434,-0.00066446,0.00010923,0.000146
 31,0.00108045,0.00036871,0.00005952,-0.00037013,0.00007668,0.00008140,
 0.00042908,-0.00001212,-0.00030338,-0.00003793,0.00000497,0.00098828,-
 0.00125223,-0.00083339,-0.00007354,-0.00008147,0.00006606,-0.00001000,
 0.00005658,-0.00000958,0.00000445,-0.00003619,-0.00000338,0.00001945,0
 .00002711,-0.00000044,-0.00000267,0.00003548,-0.00001090,-0.00000096,0
 .00007558,-0.00001532,-0.00003008,-0.00006145,0.00000572,0.00001151,0.
 00003635,0.00003682,0.00004250,-0.00000375,-0.00000916,-0.00443336,-0.
 00661640,0.00916097,-0.03222960,-0.08240634,0.10036505,-0.00006289,0.0
 0011585,0.00011505,0.00000407,-0.00006558,0.00002168,0.00002550,-0.000
 01958,-0.00006069,-0.00002000,0.00000132,0.00003149,-0.00000996,-0.000
 02000,-0.00000851,-0.00008056,-0.00045679,-0.00018692,0.00020284,-0.00
 017841,-0.00024884,-0.00000599,-0.00000915,0.00008793,-0.00000194,0.00
 000961,-0.00001701,-0.00002620,0.00000235,0.00000938,0.00000563,-0.000
 00976,0.00000248,-0.00000447,0.00000708,-0.00000057,0.00000229,0.00000
 165,-0.00000061,0.03327299,0.08839167,0.00112365,0.00051559,-0.0051934
 8,-0.00064172,0.00087287,0.00046041,-0.00014853,-0.00033415,0.00068468
 ,-0.00007051,0.00050629,0.00014764,-0.00024118,-0.00126976,-0.00021956
 ,0.00035095,0.00004067,-0.00028320,-0.00017082,-0.00002760,-0.00004025
 ,0.00025824,-0.00001837,-0.00005122,-0.00054019,0.00073805,0.00043984,
 0.00050774,0.00016465,-0.00022371,-0.00035676,0.00001981,0.00013160,-0
 .00029792,0.00021295,-0.00004641,-0.00024789,-0.00062379,-0.00005230,0
 .00065773,0.00085489,0.00012206,-0.00011782,-0.00000559,-0.00002915,0.
 00003565,0.00002705,0.00000010,-0.00001791,0.00001487,0.00000262,-0.00
 000269,-0.00000172,-0.00000472,0.00001937,0.00000403,0.00000064,-0.000
 00803,0.00007898,-0.00000563,-0.00005191,-0.00008204,-0.00000326,0.000
 02765,0.00007434,0.00003897,0.00006036,0.00000149,-0.00000467,0.000966
 96,-0.00120380,0.00582071,0.05813789,0.08860232,-0.24402419,0.00000461
 ,-0.00000172,0.00005425,0.00000825,-0.00000409,0.00001326,0.00001042,0
 .00000444,0.00000051,0.00000756,0.00000809,-0.00000093,-0.00000804,-0.
 00000574,0.00001587,0.00005578,0.00013545,-0.00008799,-0.00002012,0.00
 000046,-0.00002820,0.00000672,-0.00000171,-0.00001289,0.00004125,0.000
 04831,0.00000898,-0.00006889,-0.00006688,0.00007005,-0.00000097,-0.000
 00883,0.00000304,-0.00000389,0.00001063,-0.00000114,-0.00000077,0.0000
 0529,-0.00000310,-0.06403424,-0.09864976,0.26278346,0.00103027,0.00738
 285,0.01098104,0.00059999,-0.00129799,-0.00015848,-0.00100854,0.000718
 06,-0.00067397,-0.00110820,0.00256147,-0.00183831,-0.00492252,-0.00089
 075,-0.00021176,0.00071737,-0.00088631,0.00107930,-0.00047789,0.000175
 80,-0.00010208,0.00003283,-0.00080942,0.00069103,0.00121173,0.00034973
 ,-0.00000129,-0.00079101,-0.00069008,-0.00046624,-0.00008382,0.0003698
 5,0.00018936,0.00011326,-0.00030931,-0.00009935,0.00007820,0.00042177,
 -0.00000028,-0.00078991,0.00212368,-0.00091973,0.00010557,0.00009783,0
 .00007403,-0.00001941,-0.00003453,0.00000708,-0.00001042,0.00001328,-0
 .00001440,0.00000148,-0.00002001,0.00000522,-0.00003822,-0.00000732,-0
 .00000167,-0.00001003,-0.00005495,0.00000414,-0.00000717,-0.00006292,0
 .00002167,-0.00008559,0.00000988,-0.00004135,0.00004508,0.00004634,-0.
 00000170,-0.00012209,-0.02290100,-0.02095028,-0.04301484,-0.00286492,0
 .00238722,-0.00023981,0.00005109,0.00008007,0.00001315,0.00000635,0.00
 008719,0.00002124,-0.00008317,-0.00002508,-0.00001967,-0.00002138,0.00
 002276,-0.00000934,-0.00004511,-0.00008096,0.00004815,-0.00023368,-0.0
 0006110,0.00074327,0.00026844,0.00038211,-0.00001059,0.00003842,-0.000
 08884,0.00004030,0.00000522,0.00003537,0.00000734,0.00000998,-0.000040
 97,-0.00001492,0.00001161,0.00000273,-0.00000008,-0.00000598,-0.000000
 04,-0.00000196,0.00000268,0.00000364,-0.00009110,0.00628576,0.00477999
 ,0.04806013,-0.00140110,-0.00897357,-0.01005090,-0.00055930,0.00157908
 ,0.00040542,0.00059560,-0.00049922,0.00055906,0.00039620,-0.00251359,0
 .00091013,-0.00102411,0.00040318,-0.00099120,-0.00060111,-0.00075761,0
 .00025172,0.00043614,-0.00032182,-0.00011576,-0.00002165,0.00023572,0.
 00011871,0.00142986,-0.00115149,0.00056586,0.00031064,0.00171080,-0.00
 034449,0.00022223,-0.00050176,0.00023585,0.00011065,0.00047388,-0.0001
 8205,-0.00010301,-0.00012983,0.00067696,0.00199610,-0.00285728,0.00086
 117,0.00000446,-0.00005401,-0.00005601,-0.00001272,0.00001316,-0.00002
 845,-0.00001984,-0.00000712,0.00002436,0.00001412,0.00000164,0.0000018
 7,0.00001030,0.00000104,0.00000185,-0.00000452,0.00007200,0.00000036,-
 0.00006529,-0.00004514,-0.00000010,0.00000700,0.00004529,-0.00002546,0
 .00007418,-0.00002385,0.00000141,-0.00218991,-0.01068246,-0.00547982,-
 0.00950503,-0.18739116,-0.14386608,-0.00019975,-0.00001941,0.00005936,
 -0.00003485,0.00002184,0.00000139,-0.00003785,-0.00000054,-0.00000106,
 -0.00002823,-0.00007293,0.00002695,-0.00001926,-0.00006198,-0.00004138
 ,-0.00000412,-0.00017673,-0.00003886,-0.00040892,-0.00038222,-0.000461
 36,-0.00003556,-0.00000020,-0.00002936,-0.00001496,0.00000709,0.000019
 49,-0.00001714,-0.00000710,-0.00007571,0.00000179,-0.00000731,-0.00000
 768,-0.00000188,0.00000253,-0.00000051,0.00000021,0.00000361,-0.000004
 43,0.00040177,0.00923944,0.00936901,0.01028184,0.20282413,0.00087498,0
 .00482614,0.00361841,0.00028346,-0.00058820,0.00027722,-0.00027060,-0.
 00001500,-0.00004571,-0.00047314,0.00202542,-0.00037670,-0.00034774,0.
 00049131,-0.00014876,0.00040798,0.00034020,0.00012534,-0.00033790,0.00
 013217,-0.00003526,-0.00010226,-0.00017030,0.00007388,0.00035229,-0.00
 039127,0.00059512,-0.00106040,-0.00067447,0.00025221,0.00058253,-0.000
 27185,-0.00009215,0.00057570,-0.00001642,-0.00033524,0.00001653,0.0009
 0924,0.00097486,-0.00069998,0.00014720,-0.00090098,0.00017632,-0.00001
 700,-0.00006851,-0.00003904,-0.00001809,-0.00001613,-0.00000511,-0.000
 01324,0.00003260,0.00000769,-0.00001270,0.00000229,-0.00002379,-0.0000
 1783,0.00000313,0.00000725,-0.00012279,0.00001865,0.00007537,0.0000914
 0,-0.00001206,-0.00005735,-0.00008170,-0.00002370,-0.00006508,0.000012
 34,0.00000877,0.00021436,0.00140820,0.00037366,-0.00590214,-0.13435132
 ,-0.16509720,0.00002577,0.00003759,0.00004034,0.00003990,0.00001680,0.
 00002425,0.00001389,-0.00002424,-0.00001429,-0.00000041,0.00004767,0.0
 0000414,0.00000375,0.00001082,-0.00000575,0.00010689,0.00019943,0.0000
 2059,0.00031765,0.00028833,0.00023819,0.00001074,0.00001852,-0.0000103
 4,-0.00001515,-0.00003755,-0.00000673,0.00004723,0.00005450,-0.0001728
 3,-0.00000361,0.00001350,-0.00001647,0.00000538,-0.00001367,0.00000162
 ,-0.00000067,-0.00000584,-0.00000043,0.00026664,-0.02188818,-0.0204646
 3,0.00499753,0.14766108,0.18118721,0.00005030,-0.00019139,-0.00010923,
 -0.00002089,0.00001197,-0.00000522,-0.00000480,0.00002842,0.00001216,-
 0.00028237,-0.00065703,-0.00080619,0.00005023,-0.00017444,0.00000970,-
 0.00109883,-0.00082195,-0.00157437,-0.00033207,0.00072002,-0.00003206,
 -0.00024522,-0.00034673,-0.00002449,0.00026954,0.00007514,0.00000600,0
 .00002016,-0.00004418,-0.00000906,-0.00002458,0.00001174,-0.00000991,-
 0.00001439,-0.00001252,0.00001031,0.00000793,-0.00000545,-0.00000908,0
 .00001858,0.00001098,0.00001002,0.00000349,0.00000628,-0.00000439,0.00
 000166,-0.00000152,0.00000065,-0.00000398,0.00000040,-0.00000061,-0.00
 000077,-0.00000523,-0.00000244,0.00000345,0.00000052,0.00000598,-0.000
 00065,-0.00000749,-0.00000135,0.00000061,0.00000547,0.00000097,-0.0000
 0142,-0.00000213,-0.00000102,-0.00000280,0.00000124,-0.00000348,-0.000
 12101,0.00024360,0.00013358,-0.00003970,0.00001460,0.00003059,-0.00449
 670,-0.00421142,0.00766516,-0.18532809,-0.05446596,0.14887118,-0.00397
 927,-0.00297185,0.00157695,0.00217877,-0.00107332,0.00109523,0.0026249
 3,0.00000401,0.00367564,-0.00013307,-0.00061144,-0.00019467,-0.0000095
 9,-0.00019923,-0.00006976,0.00000432,-0.00000461,0.00006982,-0.0000024
 9,0.00000702,-0.00000472,0.00000093,-0.00000064,0.00000275,-0.00000049
 ,0.00000169,0.00000080,0.00000045,-0.00000074,0.00000077,-0.00000081,-
 0.00000052,0.00000049,0.00001014,-0.00000700,-0.00000648,-0.00001352,0
 .00000780,-0.00000794,0.19059439,-0.00022977,-0.00021218,-0.00004954,0
 .00005094,0.00003986,0.00003521,0.00004836,0.00001632,0.00000514,-0.00
 041507,-0.00047400,-0.00054268,0.00024093,-0.00009548,-0.00000793,-0.0
 0012916,0.00071334,0.00064724,0.00016217,-0.00016369,0.00015825,-0.000
 01689,0.00013293,-0.00000054,-0.00007507,-0.00000115,-0.00002208,-0.00
 001192,-0.00005490,-0.00000946,-0.00002311,0.00004242,0.00001806,0.000
 01171,0.00000113,-0.00000919,-0.00000182,0.00002685,0.00000118,0.00000
 546,-0.00001996,-0.00000470,-0.00002058,-0.00003846,0.00000984,-0.0000
 0253,0.00001819,-0.00000096,0.00000260,-0.00001128,0.00000086,0.000004
 80,0.00000946,0.00000014,-0.00000087,0.00000946,-0.00000293,-0.0000001
 9,0.00001857,-0.00000228,-0.00000043,-0.00001748,0.00000113,0.00000239
 ,0.00000805,0.00000301,0.00000903,0.00000144,-0.00000122,-0.00003429,-
 0.00013235,0.00004656,0.00000069,0.00003281,0.00000025,0.01251311,0.00
 807059,-0.01218845,-0.05125920,-0.07169193,0.04666330,-0.02312914,-0.0
 1102411,0.02228394,-0.00243436,-0.00626218,0.00060257,0.00215057,-0.00
 028635,-0.00350078,-0.00092192,-0.00058373,-0.00046635,-0.00004734,-0.
 00004077,0.00013081,-0.00005038,0.00001562,-0.00003387,-0.00000106,0.0
 0000187,-0.00000924,-0.00000346,0.00000363,0.00000076,0.00000123,-0.00
 000265,-0.00000076,-0.00000210,0.00000240,-0.00000019,0.00000056,0.000
 00061,-0.00000051,0.00000474,-0.00001304,-0.00000635,0.00000382,0.0000
 1240,0.00000129,0.06468744,0.08180922,-0.00035083,-0.00050276,-0.00005
 918,0.00009223,0.00015692,0.00009777,0.00008261,0.00010722,0.00001246,
 0.00089178,0.00080826,0.00018739,0.00049539,-0.00085976,-0.00022140,-0
 .00148868,0.00016545,-0.00123393,-0.00001914,0.00012004,0.00006177,-0.
 00019431,-0.00008998,0.00003281,0.00012410,0.00001227,0.00000143,0.000
 00947,-0.00005903,-0.00001856,-0.00004966,0.00004826,0.00001612,-0.000
 00992,-0.00000134,-0.00000011,0.00000483,-0.00000179,-0.00001386,0.000
 01783,-0.00001536,0.00001436,-0.00001637,-0.00003204,0.00000555,-0.000
 00318,0.00001553,-0.00000274,-0.00000129,-0.00000739,0.00000073,0.0000
 0612,0.00000824,-0.00000059,-0.00000675,0.00000309,-0.00000063,0.00000
 060,0.00001811,-0.00000251,-0.00000538,-0.00002450,0.00000431,0.000002
 31,0.00001623,-0.00000293,0.00001838,-0.00000066,-0.00000085,-0.000178
 73,0.00014319,0.00009533,-0.00001427,0.00019200,0.00004847,0.01048667,
 0.00617414,-0.00612705,0.14923780,0.05024653,-0.17868053,-0.00280276,0
 .00085501,0.00088381,0.00091135,-0.00103552,0.00217294,0.00400839,-0.0
 0131084,0.00216758,-0.00047750,-0.00043232,0.00079066,-0.00010666,-0.0
 0009238,-0.00082199,-0.00008628,0.00004579,-0.00000161,-0.00000708,0.0
 0000092,-0.00001713,-0.00000219,0.00000215,0.00000504,-0.00000099,-0.0
 0000309,0.00000132,-0.00000245,0.00000310,0.00000015,0.00000092,0.0000
 0197,-0.00000002,-0.00000460,0.00000834,-0.00001465,-0.00004978,0.0000
 4681,-0.00002795,-0.16083867,-0.05461621,0.18015848,0.00001746,-0.0000
 1999,0.00001551,-0.00000347,0.00000593,-0.00000920,-0.00000177,0.00000
 783,-0.00000291,0.00003582,-0.00000635,0.00006443,-0.00017220,0.000424
 03,-0.00008532,0.00181680,-0.00014415,0.00030964,0.00007099,-0.0002097
 1,-0.00001563,-0.00006263,0.00010689,-0.00000924,-0.00005421,-0.000146
 98,0.00001695,-0.00000181,0.00007645,-0.00000817,0.00001615,0.00000614
 ,-0.00001893,-0.00002925,-0.00002160,0.00002595,0.00003616,-0.00004548
 ,-0.00002046,-0.00001810,0.00001063,0.00000898,0.00000699,0.00003093,-
 0.00000978,0.00000858,-0.00001600,0.00001050,-0.00000189,0.00001014,-0
 .00000692,-0.00000588,-0.00001008,-0.00000201,0.00000684,-0.00000223,0
 .00000728,-0.00000103,-0.00000847,-0.00000025,-0.00000269,0.00000376,-
 0.00000138,-0.00000279,-0.00000004,0.00000237,-0.00000131,-0.00000249,
 -0.00000188,0.00027250,0.00001607,-0.00002736,-0.00000890,0.00007402,0
 .00001116,-0.00114799,0.00258820,0.00178446,0.00167874,-0.00075682,0.0
 0666883,-0.01310118,-0.02056182,0.00287236,-0.08042675,-0.10324360,0.0
 3610498,0.00354547,0.00912698,-0.00275814,0.00001767,0.00004532,0.0000
 1119,0.00000111,0.00005056,-0.00000891,0.00004394,-0.00004381,-0.00001
 215,0.00000563,0.00000800,0.00000610,0.00000086,-0.00000177,0.00000074
 ,-0.00000166,0.00000240,0.00000038,0.00000026,-0.00000147,0.00000073,-
 0.00000172,0.00000005,0.00000009,0.00000929,0.00000743,-0.00000348,0.0
 0002126,0.00000920,0.00000249,0.00031763,-0.00108987,0.00032669,0.0871
 1704,0.00002383,-0.00000684,0.00000529,-0.00000615,0.00000121,-0.00000
 445,-0.00000803,0.00000093,0.00000016,-0.00000727,0.00002639,-0.000011
 34,0.00021252,-0.00015752,0.00014468,-0.00087230,-0.00013113,0.0003091
 5,-0.00004234,0.00003244,0.00002510,-0.00000407,0.00002489,0.00005337,
 -0.00005381,0.00003244,-0.00000836,-0.00000071,0.00000658,0.00000740,0
 .00000457,-0.00001622,-0.00000230,-0.00000362,0.00000443,-0.00000141,-
 0.00000456,-0.00000353,-0.00000031,-0.00000098,0.00000031,-0.00000311,
 0.00000303,0.00001055,-0.00000202,0.00000441,-0.00000522,0.00000539,-0
 .00000079,0.00000198,-0.00000167,-0.00000260,-0.00000524,-0.00000262,0
 .00000571,0.00000356,0.00000527,-0.00000094,-0.00000616,-0.00000046,0.
 00000331,0.00000631,-0.00000182,-0.00000315,-0.00000528,0.00000339,-0.
 00000575,-0.00000069,-0.00000342,-0.00007866,-0.00004971,-0.00005543,0
 .00000105,-0.00002971,-0.00001162,0.00246627,-0.00131339,-0.00273648,-
 0.00090388,0.00311709,-0.00011502,-0.00105495,0.00273655,0.00272980,-0
 .10770334,-0.29451798,0.05681106,-0.00554418,-0.01237108,0.00348554,-0
 .00000382,-0.00000443,0.00000474,-0.00002049,-0.00001862,-0.00000184,-
 0.00007380,0.00003795,-0.00005466,-0.00000008,-0.00000121,-0.00000187,
 0.00000076,-0.00000039,-0.00000091,-0.00000025,0.00000206,-0.00000089,
 0.00000027,-0.00000135,0.00000027,-0.00000130,-0.00000078,-0.00000005,
 -0.00000720,-0.00000386,0.00000138,-0.00001695,-0.00000851,-0.00000150
 ,-0.00002152,0.00013847,-0.00011459,0.11372176,0.30247472,0.00004019,-
 0.00008250,0.00002016,-0.00000569,0.00002396,-0.00000752,-0.00001480,0
 .00001787,-0.00000177,0.00007711,0.00011136,0.00013563,0.00024192,-0.0
 0002039,0.00002944,-0.00002348,-0.00042268,0.00165618,-0.00000470,-0.0
 0015872,0.00006254,-0.00010224,0.00019437,0.00005345,-0.00016626,-0.00
 018793,0.00001344,0.00000364,0.00014686,-0.00000704,0.00003216,-0.0000
 1920,-0.00003321,-0.00004930,-0.00002813,0.00003935,0.00004836,-0.0000
 8427,-0.00002407,-0.00003310,0.00002211,0.00001390,0.00002609,0.000065
 23,-0.00001614,0.00000733,-0.00003099,0.00000723,-0.00000432,0.0000202
 2,-0.00000733,-0.00000899,-0.00001752,0.00000155,0.00000480,-0.0000145
 3,0.00000390,-0.00000057,-0.00002322,0.00000256,-0.00000592,0.00001617
 ,-0.00000151,-0.00000320,-0.00000384,-0.00000213,-0.00000654,-0.000002
 28,0.00000289,0.00017844,-0.00006168,-0.00019306,-0.00001838,0.0000551
 0,0.00000475,0.00235306,-0.00289213,-0.00245394,0.00636343,0.00012631,
 0.00205468,0.00639863,0.02242650,-0.00834632,0.03526257,0.05173530,-0.
 05043435,-0.00574153,-0.01140630,0.00285425,-0.00007025,0.00001929,0.0
 0006417,-0.00003363,0.00003833,-0.00006798,-0.00003211,0.00002531,-0.0
 0008683,0.00000758,0.00000686,0.00000563,0.00000297,-0.00000637,0.0000
 0056,-0.00000219,0.00000381,0.00000149,0.00000229,-0.00000326,0.000000
 68,-0.00000140,-0.00000017,0.00000066,-0.00000490,-0.00000357,-0.00000
 342,-0.00000381,0.00000186,-0.00000067,0.00053639,0.00086667,0.0004897
 4,-0.04524965,-0.06045383,0.05416844\\-0.00000168,0.00000890,0.0000011
 3,-0.00000152,-0.00000727,-0.00000239,-0.00000165,0.00000025,-0.000004
 49,0.00001225,0.00000601,-0.00000772,-0.00000345,0.00000710,0.00000118
 ,-0.00001003,0.00000961,0.00000294,0.00000051,-0.00000964,-0.00000257,
 0.00000980,0.00001614,0.00000179,-0.00000872,-0.00000936,-0.00000141,0
 .00000156,0.00001871,-0.00000364,0.00000302,-0.00000291,0.00000934,0.,
 -0.00000596,-0.00000720,-0.00000119,0.00000230,0.00000455,0.00000418,-
 0.00001482,-0.00000085,0.00000499,-0.00000160,0.00000514,0.00000017,0.
 00000021,0.00000155,0.00000252,0.00000043,0.00000082,-0.00000133,-0.00
 000028,0.00000098,-0.00000333,-0.00000776,0.00000108,0.00000337,0.0000
 0551,-0.00000109,-0.00000927,-0.00001504,-0.00000052,0.00001686,0.0000
 0464,-0.00000005,-0.00000968,0.00000722,-0.00000401,-0.00000071,-0.000
 00629,0.00000086,0.00000174,-0.00000350,0.00000492,0.00000500,-0.00000
 169,-0.00000930,-0.00000275,-0.00000479,0.00000464,-0.00000001,0.00000
 362,-0.00000411,-0.00000779,0.00000419,0.00000625,0.00000244,-0.000004
 45,0.00000214,-0.00000649,-0.00000700,-0.00000068,-0.00000160,-0.00000
 101,0.00000005,0.00000017,-0.00000064,0.00000159,-0.00000111,0.0000005
 7,0.00000182,0.00000225,0.00000135,0.00000235,0.00000054,0.00000119,0.
 00000156,0.00000085,0.00000035,0.00000203,0.00000072,0.,0.00000090,-0.
 00000111,0.00000118,-0.00000284,0.00000130,0.00000244,-0.00000495,-0.0
 0000066,0.00000264,-0.00000040,-0.00000014,-0.00000055,-0.00000141\\\@


 KNOWING HOW CONTENTED, FREE, AND JOYFUL IS LIFE IN
 THE REALMS OF SCIENCE, ONE FERVENTLY WISHES THAT
 MANY WOULD ENTER HER PORTALS.
   --  DMITRI IVANOVICH MENDELEEV
 "FIRST PRINCIPLES OF CHEMISTRY", LONGMANS, GREEN,
 AND CO.  LONDON, 1891
 Job cpu time:  0 days 19 hours 48 minutes 53.2 seconds.
 File lengths (MBytes):  RWF=   1785 Int=      0 D2E=      0 Chk=     30 Scr=      1
 Normal termination of Gaussian 09 at Sun Dec 29 22:14:38 2013.
