 Entering Gaussian System, Link 0=g09
 Initial command:
 /opt/gaussian/g09/l1.exe /panfs/panfs.cluster/home/shuo/Gau-1329.inp -scrdir=/panfs/panfs.cluster/home/shuo/
 Default is to use a total of  12 processors:
                               12 via shared-memory
                                1 via Linda
 Entering Link 1 = /opt/gaussian/g09/l1.exe PID=      1330.
  
 Copyright (c) 1988,1990,1992,1993,1995,1998,2003,2009,2011,
            Gaussian, Inc.  All Rights Reserved.
  
 This is part of the Gaussian(R) 09 program.  It is based on
 the Gaussian(R) 03 system (copyright 2003, Gaussian, Inc.),
 the Gaussian(R) 98 system (copyright 1998, Gaussian, Inc.),
 the Gaussian(R) 94 system (copyright 1995, Gaussian, Inc.),
 the Gaussian 92(TM) system (copyright 1992, Gaussian, Inc.),
 the Gaussian 90(TM) system (copyright 1990, Gaussian, Inc.),
 the Gaussian 88(TM) system (copyright 1988, Gaussian, Inc.),
 the Gaussian 86(TM) system (copyright 1986, Carnegie Mellon
 University), and the Gaussian 82(TM) system (copyright 1983,
 Carnegie Mellon University). Gaussian is a federally registered
 trademark of Gaussian, Inc.
  
 This software contains proprietary and confidential information,
 including trade secrets, belonging to Gaussian, Inc.
  
 This software is provided under written license and may be
 used, copied, transmitted, or stored only in accord with that
 written license.
  
 The following legend is applicable only to US Government
 contracts under FAR:
  
                    RESTRICTED RIGHTS LEGEND
  
 Use, reproduction and disclosure by the US Government is
 subject to restrictions as set forth in subparagraphs (a)
 and (c) of the Commercial Computer Software - Restricted
 Rights clause in FAR 52.227-19.
  
 Gaussian, Inc.
 340 Quinnipiac St., Bldg. 40, Wallingford CT 06492
  
  
 ---------------------------------------------------------------
 Warning -- This program may not be used in any manner that
 competes with the business of Gaussian, Inc. or will provide
 assistance to any competitor of Gaussian, Inc.  The licensee
 of this program is prohibited from giving any competitor of
 Gaussian, Inc. access to this program.  By using this program,
 the user acknowledges that Gaussian, Inc. is engaged in the
 business of creating and licensing software in the field of
 computational chemistry and represents and warrants to the
 licensee that it is not a competitor of Gaussian, Inc. and that
 it will not use this program in any manner prohibited above.
 ---------------------------------------------------------------
  

 Cite this work as:
 Gaussian 09, Revision C.01,
 M. J. Frisch, G. W. Trucks, H. B. Schlegel, G. E. Scuseria, 
 M. A. Robb, J. R. Cheeseman, G. Scalmani, V. Barone, B. Mennucci, 
 G. A. Petersson, H. Nakatsuji, M. Caricato, X. Li, H. P. Hratchian, 
 A. F. Izmaylov, J. Bloino, G. Zheng, J. L. Sonnenberg, M. Hada, 
 M. Ehara, K. Toyota, R. Fukuda, J. Hasegawa, M. Ishida, T. Nakajima, 
 Y. Honda, O. Kitao, H. Nakai, T. Vreven, J. A. Montgomery, Jr., 
 J. E. Peralta, F. Ogliaro, M. Bearpark, J. J. Heyd, E. Brothers, 
 K. N. Kudin, V. N. Staroverov, T. Keith, R. Kobayashi, J. Normand, 
 K. Raghavachari, A. Rendell, J. C. Burant, S. S. Iyengar, J. Tomasi, 
 M. Cossi, N. Rega, J. M. Millam, M. Klene, J. E. Knox, J. B. Cross, 
 V. Bakken, C. Adamo, J. Jaramillo, R. Gomperts, R. E. Stratmann, 
 O. Yazyev, A. J. Austin, R. Cammi, C. Pomelli, J. W. Ochterski, 
 R. L. Martin, K. Morokuma, V. G. Zakrzewski, G. A. Voth, 
 P. Salvador, J. J. Dannenberg, S. Dapprich, A. D. Daniels, 
 O. Farkas, J. B. Foresman, J. V. Ortiz, J. Cioslowski, 
 and D. J. Fox, Gaussian, Inc., Wallingford CT, 2010.
 
 ******************************************
 Gaussian 09:  EM64L-G09RevC.01 23-Sep-2011
                29-Dec-2013 
 ******************************************
 %chk=63_C26H14N4S.chk
 %NProcShared=12
 Will use up to   12 processors via shared memory.
 %Mem=8000MB
 Default route:  MaxDisk=100GB
 --------------------------------------------
 #B3LYP/6-31++G(d,p) opt scf=direct freq test
 --------------------------------------------
 1/14=-1,18=20,19=15,26=3,38=1/1,3;
 2/9=110,12=2,17=6,18=5,40=1/2;
 3/5=1,6=6,7=1111,11=2,16=1,25=1,30=1,71=1,74=-5/1,2,3;
 4//1;
 5/5=2,38=5/2;
 6/7=2,8=2,9=2,10=2,28=1/1;
 7//1,2,3,16;
 1/14=-1,18=20,19=15/3(2);
 2/9=110/2;
 99//99;
 2/9=110/2;
 3/5=1,6=6,7=1111,11=2,16=1,25=1,30=1,71=1,74=-5/1,2,3;
 4/5=5,16=3/1;
 5/5=2,38=5/2;
 7//1,2,3,16;
 1/14=-1,18=20,19=15/3(-5);
 2/9=110/2;
 6/7=2,8=2,9=2,10=2,19=2,28=1/1;
 99/9=1/99;
 ----------------------------------------------------------------------
 Geom opt of No.63 candidate from the CEPDB database with SMILE code of
  [SiH2]1C=c2ccc3cc4c5cocc5c5cc(sc5c4cc3c2=C1)-c1cncc2nsnc12, HPC, 2013
 1227, Shuo Dai, Gaussian09
 ----------------------------------------------------------------------
 Charge =  0 Multiplicity = 1
 Symbolic Z-Matrix:
 Si                    3.8479   -1.75782   1.14004 
 H                     4.77629  -1.95405  -0.06076 
 H                     4.96751  -1.07616   1.86081 
 C                     3.11231   0.29527   1.58465 
 C                     3.51168   0.7861    0.4798 
 C                     4.65876   1.79139   0.02389 
 C                     5.47487   0.9454   -0.89978 
 C                     4.50122   0.98933  -2.05737 
 C                     4.81057  -0.19782  -2.90178 
 C                     3.81185   0.12838  -3.97782 
 C                     4.48744  -0.39558  -5.18915 
 C                     5.03685  -1.76261  -5.29719 
 O                     5.68633  -1.57487  -6.58186 
 C                     5.33141  -0.2385   -7.1652 
 C                     3.96932  -0.24239  -6.56791 
 C                     2.62679   0.32514  -6.30893 
 C                     1.9019   -0.97114  -6.21397 
 C                     0.54085  -0.53147  -6.80183 
 S                     0.02567  -0.28596  -5.11528 
 C                     1.66378   0.84494  -5.03353 
 C                     2.26984   0.37337  -3.74116 
 C                     1.86439   1.34299  -2.68586 
 C                     2.89194   1.06507  -1.64518 
 C                     2.86242   0.04095  -0.63793 
 C                     2.44881  -1.26734  -0.5454 
 C                     0.33431   0.96996  -7.49622 
 C                    -0.83642   1.66939  -7.09133 
 N                    -1.20164   2.96632  -7.33534 
 C                    -0.39733   3.80381  -8.02231 
 C                     0.88042   3.36256  -8.41366 
 N                     1.82269   4.12644  -8.95956 
 S                     3.17306   3.19101  -9.10211 
 N                     2.50791   1.75018  -8.69115 
 C                     1.24411   1.92564  -8.19855 
 H                     2.03013  -0.01623   1.5708 
 H                     5.24702   2.28776   0.77871 
 H                     4.28144   2.64245  -0.59551 
 H                     5.64881  -0.07807  -0.54672 
 H                     6.47161   1.3112   -1.17477 
 H                     4.77628   1.90223  -2.60474 
 H                     4.82163  -1.21625  -2.47175 
 H                     5.86287  -0.10522  -3.26505 
 H                     4.02633   1.19238  -4.154 
 H                     5.25519   0.39605  -5.1993 
 H                     4.15338  -2.41628  -5.12167 
 H                     5.78969  -2.29979  -4.72712 
 H                     5.82573  -0.34066  -8.12888 
 H                     5.69551   0.7721   -6.89676 
 H                     3.70438  -1.01817  -7.3236 
 H                     2.39606   0.4716   -7.30862 
 H                     2.08239  -1.20595  -5.1535 
 H                     2.28073  -1.98033  -6.39594 
 H                     0.26841  -1.3498   -7.4631 
 H                     1.15551   1.83024  -5.04821 
 H                     1.80445  -0.5344   -3.34183 
 H                     0.83033   1.19065  -2.30169 
 H                     1.83799   2.41789  -2.96494 
 H                     2.49285   1.88618  -1.02594 
 H                     1.98951  -1.94249   0.16121 
 H                    -1.54536   1.19429  -6.4079 
 H                    -0.7515    4.7924   -8.2488 
 

 GradGradGradGradGradGradGradGradGradGradGradGradGradGradGradGradGradGrad
 Berny optimization.
 Initialization pass.
                           ----------------------------
                           !    Initial Parameters    !
                           ! (Angstroms and Degrees)  !
 --------------------------                            --------------------------
 ! Name  Definition              Value          Derivative Info.                !
 --------------------------------------------------------------------------------
 ! R1    R(1,2)                  1.5305         estimate D2E/DX2                !
 ! R2    R(1,3)                  1.4959         estimate D2E/DX2                !
 ! R3    R(1,4)                  2.2257         estimate D2E/DX2                !
 ! R4    R(1,25)                 2.2447         estimate D2E/DX2                !
 ! R5    R(4,5)                  1.2732         estimate D2E/DX2                !
 ! R6    R(4,35)                 1.1262         estimate D2E/DX2                !
 ! R7    R(5,6)                  1.5919         estimate D2E/DX2                !
 ! R8    R(5,24)                 1.492          estimate D2E/DX2                !
 ! R9    R(6,7)                  1.495          estimate D2E/DX2                !
 ! R10   R(6,36)                 1.078          estimate D2E/DX2                !
 ! R11   R(6,37)                 1.1182         estimate D2E/DX2                !
 ! R12   R(7,8)                  1.5133         estimate D2E/DX2                !
 ! R13   R(7,38)                 1.0965         estimate D2E/DX2                !
 ! R14   R(7,39)                 1.0968         estimate D2E/DX2                !
 ! R15   R(8,9)                  1.4893         estimate D2E/DX2                !
 ! R16   R(8,23)                 1.663          estimate D2E/DX2                !
 ! R17   R(8,40)                 1.0994         estimate D2E/DX2                !
 ! R18   R(9,10)                 1.5039         estimate D2E/DX2                !
 ! R19   R(9,41)                 1.1056         estimate D2E/DX2                !
 ! R20   R(9,42)                 1.1171         estimate D2E/DX2                !
 ! R21   R(10,11)                1.4827         estimate D2E/DX2                !
 ! R22   R(10,21)                1.5792         estimate D2E/DX2                !
 ! R23   R(10,43)                1.0996         estimate D2E/DX2                !
 ! R24   R(11,12)                1.4773         estimate D2E/DX2                !
 ! R25   R(11,15)                1.4808         estimate D2E/DX2                !
 ! R26   R(11,44)                1.1028         estimate D2E/DX2                !
 ! R27   R(12,13)                1.4517         estimate D2E/DX2                !
 ! R28   R(12,45)                1.1129         estimate D2E/DX2                !
 ! R29   R(12,46)                1.0864         estimate D2E/DX2                !
 ! R30   R(13,14)                1.5007         estimate D2E/DX2                !
 ! R31   R(14,15)                1.4873         estimate D2E/DX2                !
 ! R32   R(14,47)                1.0879         estimate D2E/DX2                !
 ! R33   R(14,48)                1.1072         estimate D2E/DX2                !
 ! R34   R(15,16)                1.4804         estimate D2E/DX2                !
 ! R35   R(15,49)                1.1149         estimate D2E/DX2                !
 ! R36   R(16,17)                1.4882         estimate D2E/DX2                !
 ! R37   R(16,20)                1.6805         estimate D2E/DX2                !
 ! R38   R(16,50)                1.0364         estimate D2E/DX2                !
 ! R39   R(17,18)                1.5464         estimate D2E/DX2                !
 ! R40   R(17,19)                2.2797         estimate D2E/DX2                !
 ! R41   R(17,51)                1.101          estimate D2E/DX2                !
 ! R42   R(17,52)                1.0932         estimate D2E/DX2                !
 ! R43   R(18,19)                1.7805         estimate D2E/DX2                !
 ! R44   R(18,26)                1.6671         estimate D2E/DX2                !
 ! R45   R(18,53)                1.0868         estimate D2E/DX2                !
 ! R46   R(19,20)                1.9922         estimate D2E/DX2                !
 ! R47   R(20,21)                1.5033         estimate D2E/DX2                !
 ! R48   R(20,54)                1.1088         estimate D2E/DX2                !
 ! R49   R(21,22)                1.4894         estimate D2E/DX2                !
 ! R50   R(21,55)                1.0955         estimate D2E/DX2                !
 ! R51   R(22,23)                1.4887         estimate D2E/DX2                !
 ! R52   R(22,56)                1.1136         estimate D2E/DX2                !
 ! R53   R(22,57)                1.1109         estimate D2E/DX2                !
 ! R54   R(23,24)                1.4367         estimate D2E/DX2                !
 ! R55   R(23,58)                1.1032         estimate D2E/DX2                !
 ! R56   R(24,25)                1.3752         estimate D2E/DX2                !
 ! R57   R(25,59)                1.0799         estimate D2E/DX2                !
 ! R58   R(26,27)                1.4226         estimate D2E/DX2                !
 ! R59   R(26,34)                1.4948         estimate D2E/DX2                !
 ! R60   R(27,28)                1.3693         estimate D2E/DX2                !
 ! R61   R(27,60)                1.0933         estimate D2E/DX2                !
 ! R62   R(28,29)                1.3492         estimate D2E/DX2                !
 ! R63   R(29,30)                1.4073         estimate D2E/DX2                !
 ! R64   R(29,61)                1.0743         estimate D2E/DX2                !
 ! R65   R(30,31)                1.3302         estimate D2E/DX2                !
 ! R66   R(30,34)                1.4978         estimate D2E/DX2                !
 ! R67   R(31,32)                1.6489         estimate D2E/DX2                !
 ! R68   R(32,33)                1.6393         estimate D2E/DX2                !
 ! R69   R(33,34)                1.3677         estimate D2E/DX2                !
 ! A1    A(2,1,3)               88.9946         estimate D2E/DX2                !
 ! A2    A(2,1,4)              118.3904         estimate D2E/DX2                !
 ! A3    A(2,1,25)              79.4548         estimate D2E/DX2                !
 ! A4    A(3,1,4)               74.3815         estimate D2E/DX2                !
 ! A5    A(3,1,25)             136.7786         estimate D2E/DX2                !
 ! A6    A(4,1,25)              75.0749         estimate D2E/DX2                !
 ! A7    A(1,4,5)               94.5076         estimate D2E/DX2                !
 ! A8    A(1,4,35)              93.4386         estimate D2E/DX2                !
 ! A9    A(5,4,35)             113.4133         estimate D2E/DX2                !
 ! A10   A(4,5,6)              135.8872         estimate D2E/DX2                !
 ! A11   A(4,5,24)             108.7264         estimate D2E/DX2                !
 ! A12   A(6,5,24)             114.4811         estimate D2E/DX2                !
 ! A13   A(5,6,7)              102.2951         estimate D2E/DX2                !
 ! A14   A(5,6,36)             118.9094         estimate D2E/DX2                !
 ! A15   A(5,6,37)             113.3364         estimate D2E/DX2                !
 ! A16   A(7,6,36)             113.2833         estimate D2E/DX2                !
 ! A17   A(7,6,37)             105.8231         estimate D2E/DX2                !
 ! A18   A(36,6,37)            102.7996         estimate D2E/DX2                !
 ! A19   A(6,7,8)               96.0253         estimate D2E/DX2                !
 ! A20   A(6,7,38)             114.5726         estimate D2E/DX2                !
 ! A21   A(6,7,39)             117.5349         estimate D2E/DX2                !
 ! A22   A(8,7,38)             112.0527         estimate D2E/DX2                !
 ! A23   A(8,7,39)             112.5351         estimate D2E/DX2                !
 ! A24   A(38,7,39)            104.3514         estimate D2E/DX2                !
 ! A25   A(7,8,9)              106.0774         estimate D2E/DX2                !
 ! A26   A(7,8,23)             115.7446         estimate D2E/DX2                !
 ! A27   A(7,8,40)             104.1224         estimate D2E/DX2                !
 ! A28   A(9,8,23)             112.2005         estimate D2E/DX2                !
 ! A29   A(9,8,40)             109.1255         estimate D2E/DX2                !
 ! A30   A(23,8,40)            109.1297         estimate D2E/DX2                !
 ! A31   A(8,9,10)              95.442          estimate D2E/DX2                !
 ! A32   A(8,9,41)             121.0533         estimate D2E/DX2                !
 ! A33   A(8,9,42)             108.2987         estimate D2E/DX2                !
 ! A34   A(10,9,41)            118.997          estimate D2E/DX2                !
 ! A35   A(10,9,42)            112.0192         estimate D2E/DX2                !
 ! A36   A(41,9,42)            101.153          estimate D2E/DX2                !
 ! A37   A(9,10,11)            101.8478         estimate D2E/DX2                !
 ! A38   A(9,10,21)            125.0911         estimate D2E/DX2                !
 ! A39   A(9,10,43)            101.2439         estimate D2E/DX2                !
 ! A40   A(11,10,21)           128.4767         estimate D2E/DX2                !
 ! A41   A(11,10,43)            97.0174         estimate D2E/DX2                !
 ! A42   A(21,10,43)            93.69           estimate D2E/DX2                !
 ! A43   A(10,11,12)           123.7962         estimate D2E/DX2                !
 ! A44   A(10,11,15)           124.381          estimate D2E/DX2                !
 ! A45   A(10,11,44)            94.0751         estimate D2E/DX2                !
 ! A46   A(12,11,15)            99.0769         estimate D2E/DX2                !
 ! A47   A(12,11,44)           113.8706         estimate D2E/DX2                !
 ! A48   A(15,11,44)            99.2504         estimate D2E/DX2                !
 ! A49   A(11,12,13)            96.3981         estimate D2E/DX2                !
 ! A50   A(11,12,45)           103.6948         estimate D2E/DX2                !
 ! A51   A(11,12,46)           132.6016         estimate D2E/DX2                !
 ! A52   A(13,12,45)           124.797          estimate D2E/DX2                !
 ! A53   A(13,12,46)           102.6074         estimate D2E/DX2                !
 ! A54   A(45,12,46)           100.1904         estimate D2E/DX2                !
 ! A55   A(12,13,14)           110.6915         estimate D2E/DX2                !
 ! A56   A(13,14,15)            93.3341         estimate D2E/DX2                !
 ! A57   A(13,14,47)            98.815          estimate D2E/DX2                !
 ! A58   A(13,14,48)           129.8492         estimate D2E/DX2                !
 ! A59   A(15,14,47)           140.5013         estimate D2E/DX2                !
 ! A60   A(15,14,48)           101.8986         estimate D2E/DX2                !
 ! A61   A(47,14,48)            98.6882         estimate D2E/DX2                !
 ! A62   A(11,15,14)            93.0813         estimate D2E/DX2                !
 ! A63   A(11,15,16)           101.1908         estimate D2E/DX2                !
 ! A64   A(11,15,49)           129.9578         estimate D2E/DX2                !
 ! A65   A(14,15,16)           154.1296         estimate D2E/DX2                !
 ! A66   A(14,15,49)            86.9761         estimate D2E/DX2                !
 ! A67   A(16,15,49)            99.7774         estimate D2E/DX2                !
 ! A68   A(15,16,17)            96.8325         estimate D2E/DX2                !
 ! A69   A(15,16,20)           140.4452         estimate D2E/DX2                !
 ! A70   A(15,16,50)            95.01           estimate D2E/DX2                !
 ! A71   A(17,16,20)            86.6676         estimate D2E/DX2                !
 ! A72   A(17,16,50)            94.3703         estimate D2E/DX2                !
 ! A73   A(20,16,50)           124.1092         estimate D2E/DX2                !
 ! A74   A(16,17,18)            99.0211         estimate D2E/DX2                !
 ! A75   A(16,17,19)            99.7785         estimate D2E/DX2                !
 ! A76   A(16,17,51)            99.6346         estimate D2E/DX2                !
 ! A77   A(16,17,52)           128.6582         estimate D2E/DX2                !
 ! A78   A(18,17,51)           124.8234         estimate D2E/DX2                !
 ! A79   A(18,17,52)           120.2775         estimate D2E/DX2                !
 ! A80   A(19,17,51)            74.6225         estimate D2E/DX2                !
 ! A81   A(19,17,52)           130.0082         estimate D2E/DX2                !
 ! A82   A(51,17,52)            84.6433         estimate D2E/DX2                !
 ! A83   A(17,18,26)           121.5644         estimate D2E/DX2                !
 ! A84   A(17,18,53)           103.7597         estimate D2E/DX2                !
 ! A85   A(19,18,26)           103.5633         estimate D2E/DX2                !
 ! A86   A(19,18,53)           127.419          estimate D2E/DX2                !
 ! A87   A(26,18,53)           113.1819         estimate D2E/DX2                !
 ! A88   A(17,19,20)            60.8995         estimate D2E/DX2                !
 ! A89   A(18,19,20)            83.0633         estimate D2E/DX2                !
 ! A90   A(16,20,19)           105.3346         estimate D2E/DX2                !
 ! A91   A(16,20,21)           108.9286         estimate D2E/DX2                !
 ! A92   A(16,20,54)           121.8365         estimate D2E/DX2                !
 ! A93   A(19,20,21)           100.877          estimate D2E/DX2                !
 ! A94   A(19,20,54)            97.2947         estimate D2E/DX2                !
 ! A95   A(21,20,54)           118.3561         estimate D2E/DX2                !
 ! A96   A(10,21,20)           108.2699         estimate D2E/DX2                !
 ! A97   A(10,21,22)           118.2296         estimate D2E/DX2                !
 ! A98   A(10,21,55)           109.9316         estimate D2E/DX2                !
 ! A99   A(20,21,22)           107.1675         estimate D2E/DX2                !
 ! A100  A(20,21,55)           113.706          estimate D2E/DX2                !
 ! A101  A(22,21,55)            99.5284         estimate D2E/DX2                !
 ! A102  A(21,22,23)           100.7126         estimate D2E/DX2                !
 ! A103  A(21,22,56)           114.0898         estimate D2E/DX2                !
 ! A104  A(21,22,57)           117.285          estimate D2E/DX2                !
 ! A105  A(23,22,56)           111.9779         estimate D2E/DX2                !
 ! A106  A(23,22,57)           111.8811         estimate D2E/DX2                !
 ! A107  A(56,22,57)           101.3602         estimate D2E/DX2                !
 ! A108  A(8,23,22)            120.2119         estimate D2E/DX2                !
 ! A109  A(8,23,24)             99.2758         estimate D2E/DX2                !
 ! A110  A(8,23,58)            121.5425         estimate D2E/DX2                !
 ! A111  A(22,23,24)           127.5161         estimate D2E/DX2                !
 ! A112  A(22,23,58)            90.2143         estimate D2E/DX2                !
 ! A113  A(24,23,58)            97.4463         estimate D2E/DX2                !
 ! A114  A(5,24,23)             99.2221         estimate D2E/DX2                !
 ! A115  A(5,24,25)            123.7512         estimate D2E/DX2                !
 ! A116  A(23,24,25)           137.0087         estimate D2E/DX2                !
 ! A117  A(1,25,24)             94.0675         estimate D2E/DX2                !
 ! A118  A(1,25,59)             68.7257         estimate D2E/DX2                !
 ! A119  A(24,25,59)           140.0621         estimate D2E/DX2                !
 ! A120  A(18,26,27)           115.2277         estimate D2E/DX2                !
 ! A121  A(18,26,34)           134.1171         estimate D2E/DX2                !
 ! A122  A(27,26,34)           108.6802         estimate D2E/DX2                !
 ! A123  A(26,27,28)           129.3801         estimate D2E/DX2                !
 ! A124  A(26,27,60)           119.8601         estimate D2E/DX2                !
 ! A125  A(28,27,60)           110.4886         estimate D2E/DX2                !
 ! A126  A(27,28,29)           121.3105         estimate D2E/DX2                !
 ! A127  A(28,29,30)           119.225          estimate D2E/DX2                !
 ! A128  A(28,29,61)           118.8195         estimate D2E/DX2                !
 ! A129  A(30,29,61)           121.9544         estimate D2E/DX2                !
 ! A130  A(29,30,31)           125.256          estimate D2E/DX2                !
 ! A131  A(29,30,34)           118.7728         estimate D2E/DX2                !
 ! A132  A(31,30,34)           115.9681         estimate D2E/DX2                !
 ! A133  A(30,31,32)           106.8473         estimate D2E/DX2                !
 ! A134  A(31,32,33)            98.3175         estimate D2E/DX2                !
 ! A135  A(32,33,34)           110.6379         estimate D2E/DX2                !
 ! A136  A(26,34,30)           122.2129         estimate D2E/DX2                !
 ! A137  A(26,34,33)           130.513          estimate D2E/DX2                !
 ! A138  A(30,34,33)           107.2009         estimate D2E/DX2                !
 ! D1    D(2,1,4,5)             11.6139         estimate D2E/DX2                !
 ! D2    D(2,1,4,35)           125.4455         estimate D2E/DX2                !
 ! D3    D(3,1,4,5)             91.7212         estimate D2E/DX2                !
 ! D4    D(3,1,4,35)          -154.4472         estimate D2E/DX2                !
 ! D5    D(25,1,4,5)           -57.3252         estimate D2E/DX2                !
 ! D6    D(25,1,4,35)           56.5064         estimate D2E/DX2                !
 ! D7    D(2,1,25,24)          -84.131          estimate D2E/DX2                !
 ! D8    D(2,1,25,59)          133.0053         estimate D2E/DX2                !
 ! D9    D(3,1,25,24)           -7.0838         estimate D2E/DX2                !
 ! D10   D(3,1,25,59)         -149.9476         estimate D2E/DX2                !
 ! D11   D(4,1,25,24)           39.2464         estimate D2E/DX2                !
 ! D12   D(4,1,25,59)         -103.6174         estimate D2E/DX2                !
 ! D13   D(1,4,5,6)           -109.4208         estimate D2E/DX2                !
 ! D14   D(1,4,5,24)            58.6111         estimate D2E/DX2                !
 ! D15   D(35,4,5,6)           154.8573         estimate D2E/DX2                !
 ! D16   D(35,4,5,24)          -37.1108         estimate D2E/DX2                !
 ! D17   D(4,5,6,7)            119.6393         estimate D2E/DX2                !
 ! D18   D(4,5,6,36)            -5.9877         estimate D2E/DX2                !
 ! D19   D(4,5,6,37)          -126.9101         estimate D2E/DX2                !
 ! D20   D(24,5,6,7)           -47.8988         estimate D2E/DX2                !
 ! D21   D(24,5,6,36)         -173.5259         estimate D2E/DX2                !
 ! D22   D(24,5,6,37)           65.5518         estimate D2E/DX2                !
 ! D23   D(4,5,24,23)          153.7106         estimate D2E/DX2                !
 ! D24   D(4,5,24,25)          -27.6007         estimate D2E/DX2                !
 ! D25   D(6,5,24,23)          -35.4152         estimate D2E/DX2                !
 ! D26   D(6,5,24,25)          143.2736         estimate D2E/DX2                !
 ! D27   D(5,6,7,8)             75.1785         estimate D2E/DX2                !
 ! D28   D(5,6,7,38)           -42.4286         estimate D2E/DX2                !
 ! D29   D(5,6,7,39)          -165.5049         estimate D2E/DX2                !
 ! D30   D(36,6,7,8)          -155.592          estimate D2E/DX2                !
 ! D31   D(36,6,7,38)           86.8008         estimate D2E/DX2                !
 ! D32   D(36,6,7,39)          -36.2754         estimate D2E/DX2                !
 ! D33   D(37,6,7,8)           -43.7136         estimate D2E/DX2                !
 ! D34   D(37,6,7,38)         -161.3208         estimate D2E/DX2                !
 ! D35   D(37,6,7,39)           75.6029         estimate D2E/DX2                !
 ! D36   D(6,7,8,9)           -157.9551         estimate D2E/DX2                !
 ! D37   D(6,7,8,23)           -32.8175         estimate D2E/DX2                !
 ! D38   D(6,7,8,40)            86.9503         estimate D2E/DX2                !
 ! D39   D(38,7,8,9)           -38.3564         estimate D2E/DX2                !
 ! D40   D(38,7,8,23)           86.7812         estimate D2E/DX2                !
 ! D41   D(38,7,8,40)         -153.451          estimate D2E/DX2                !
 ! D42   D(39,7,8,9)            78.8778         estimate D2E/DX2                !
 ! D43   D(39,7,8,23)         -155.9845         estimate D2E/DX2                !
 ! D44   D(39,7,8,40)          -36.2168         estimate D2E/DX2                !
 ! D45   D(7,8,9,10)          -176.3815         estimate D2E/DX2                !
 ! D46   D(7,8,9,41)            54.8788         estimate D2E/DX2                !
 ! D47   D(7,8,9,42)           -61.0295         estimate D2E/DX2                !
 ! D48   D(23,8,9,10)           56.3283         estimate D2E/DX2                !
 ! D49   D(23,8,9,41)          -72.4114         estimate D2E/DX2                !
 ! D50   D(23,8,9,42)          171.6803         estimate D2E/DX2                !
 ! D51   D(40,8,9,10)          -64.7458         estimate D2E/DX2                !
 ! D52   D(40,8,9,41)          166.5145         estimate D2E/DX2                !
 ! D53   D(40,8,9,42)           50.6062         estimate D2E/DX2                !
 ! D54   D(7,8,23,22)          169.6529         estimate D2E/DX2                !
 ! D55   D(7,8,23,24)          -46.3349         estimate D2E/DX2                !
 ! D56   D(7,8,23,58)           58.399          estimate D2E/DX2                !
 ! D57   D(9,8,23,22)          -68.4181         estimate D2E/DX2                !
 ! D58   D(9,8,23,24)           75.5941         estimate D2E/DX2                !
 ! D59   D(9,8,23,58)         -179.672          estimate D2E/DX2                !
 ! D60   D(40,8,23,22)          52.6536         estimate D2E/DX2                !
 ! D61   D(40,8,23,24)        -163.3342         estimate D2E/DX2                !
 ! D62   D(40,8,23,58)         -58.6003         estimate D2E/DX2                !
 ! D63   D(8,9,10,11)          147.3239         estimate D2E/DX2                !
 ! D64   D(8,9,10,21)          -55.1058         estimate D2E/DX2                !
 ! D65   D(8,9,10,43)           47.5955         estimate D2E/DX2                !
 ! D66   D(41,9,10,11)         -82.4928         estimate D2E/DX2                !
 ! D67   D(41,9,10,21)          75.0776         estimate D2E/DX2                !
 ! D68   D(41,9,10,43)         177.7788         estimate D2E/DX2                !
 ! D69   D(42,9,10,11)          35.0685         estimate D2E/DX2                !
 ! D70   D(42,9,10,21)        -167.3611         estimate D2E/DX2                !
 ! D71   D(42,9,10,43)         -64.6599         estimate D2E/DX2                !
 ! D72   D(9,10,11,12)          51.2048         estimate D2E/DX2                !
 ! D73   D(9,10,11,15)        -175.3225         estimate D2E/DX2                !
 ! D74   D(9,10,11,44)         -71.1987         estimate D2E/DX2                !
 ! D75   D(21,10,11,12)       -105.2926         estimate D2E/DX2                !
 ! D76   D(21,10,11,15)         28.1801         estimate D2E/DX2                !
 ! D77   D(21,10,11,44)        132.3039         estimate D2E/DX2                !
 ! D78   D(43,10,11,12)        154.2993         estimate D2E/DX2                !
 ! D79   D(43,10,11,15)        -72.2281         estimate D2E/DX2                !
 ! D80   D(43,10,11,44)         31.8957         estimate D2E/DX2                !
 ! D81   D(9,10,21,20)         172.6786         estimate D2E/DX2                !
 ! D82   D(9,10,21,22)          50.6709         estimate D2E/DX2                !
 ! D83   D(9,10,21,55)         -62.5658         estimate D2E/DX2                !
 ! D84   D(11,10,21,20)        -35.8106         estimate D2E/DX2                !
 ! D85   D(11,10,21,22)       -157.8184         estimate D2E/DX2                !
 ! D86   D(11,10,21,55)         88.9449         estimate D2E/DX2                !
 ! D87   D(43,10,21,20)         66.1733         estimate D2E/DX2                !
 ! D88   D(43,10,21,22)        -55.8345         estimate D2E/DX2                !
 ! D89   D(43,10,21,55)       -169.0712         estimate D2E/DX2                !
 ! D90   D(10,11,12,13)       -172.7074         estimate D2E/DX2                !
 ! D91   D(10,11,12,45)         59.095          estimate D2E/DX2                !
 ! D92   D(10,11,12,46)        -59.0348         estimate D2E/DX2                !
 ! D93   D(15,11,12,13)         44.6308         estimate D2E/DX2                !
 ! D94   D(15,11,12,45)        -83.5668         estimate D2E/DX2                !
 ! D95   D(15,11,12,46)        158.3034         estimate D2E/DX2                !
 ! D96   D(44,11,12,13)        -59.7706         estimate D2E/DX2                !
 ! D97   D(44,11,12,45)        172.0318         estimate D2E/DX2                !
 ! D98   D(44,11,12,46)         53.9019         estimate D2E/DX2                !
 ! D99   D(10,11,15,14)        150.0593         estimate D2E/DX2                !
 ! D100  D(10,11,15,16)         -8.2514         estimate D2E/DX2                !
 ! D101  D(10,11,15,49)       -121.3055         estimate D2E/DX2                !
 ! D102  D(12,11,15,14)        -67.5825         estimate D2E/DX2                !
 ! D103  D(12,11,15,16)        134.1068         estimate D2E/DX2                !
 ! D104  D(12,11,15,49)         21.0527         estimate D2E/DX2                !
 ! D105  D(44,11,15,14)         48.5995         estimate D2E/DX2                !
 ! D106  D(44,11,15,16)       -109.7111         estimate D2E/DX2                !
 ! D107  D(44,11,15,49)        137.2347         estimate D2E/DX2                !
 ! D108  D(11,12,13,14)         -6.8941         estimate D2E/DX2                !
 ! D109  D(45,12,13,14)        104.7006         estimate D2E/DX2                !
 ! D110  D(46,12,13,14)       -143.2009         estimate D2E/DX2                !
 ! D111  D(12,13,14,15)        -32.6883         estimate D2E/DX2                !
 ! D112  D(12,13,14,47)       -174.9881         estimate D2E/DX2                !
 ! D113  D(12,13,14,48)         75.8317         estimate D2E/DX2                !
 ! D114  D(13,14,15,11)         57.2071         estimate D2E/DX2                !
 ! D115  D(13,14,15,16)       -178.983          estimate D2E/DX2                !
 ! D116  D(13,14,15,49)        -72.6747         estimate D2E/DX2                !
 ! D117  D(47,14,15,11)        165.3876         estimate D2E/DX2                !
 ! D118  D(47,14,15,16)        -70.8025         estimate D2E/DX2                !
 ! D119  D(47,14,15,49)         35.5058         estimate D2E/DX2                !
 ! D120  D(48,14,15,11)        -74.7231         estimate D2E/DX2                !
 ! D121  D(48,14,15,16)         49.0867         estimate D2E/DX2                !
 ! D122  D(48,14,15,49)        155.3951         estimate D2E/DX2                !
 ! D123  D(11,15,16,17)        -89.8717         estimate D2E/DX2                !
 ! D124  D(11,15,16,20)          3.1741         estimate D2E/DX2                !
 ! D125  D(11,15,16,50)        175.106          estimate D2E/DX2                !
 ! D126  D(14,15,16,17)        147.8827         estimate D2E/DX2                !
 ! D127  D(14,15,16,20)       -119.0715         estimate D2E/DX2                !
 ! D128  D(14,15,16,50)         52.8603         estimate D2E/DX2                !
 ! D129  D(49,15,16,17)         44.4281         estimate D2E/DX2                !
 ! D130  D(49,15,16,20)        137.4739         estimate D2E/DX2                !
 ! D131  D(49,15,16,50)        -50.5943         estimate D2E/DX2                !
 ! D132  D(15,16,17,18)       -146.9579         estimate D2E/DX2                !
 ! D133  D(15,16,17,19)        161.1007         estimate D2E/DX2                !
 ! D134  D(15,16,17,51)         85.2045         estimate D2E/DX2                !
 ! D135  D(15,16,17,52)         -5.6285         estimate D2E/DX2                !
 ! D136  D(20,16,17,18)         72.6101         estimate D2E/DX2                !
 ! D137  D(20,16,17,19)         20.6687         estimate D2E/DX2                !
 ! D138  D(20,16,17,51)        -55.2274         estimate D2E/DX2                !
 ! D139  D(20,16,17,52)       -146.0605         estimate D2E/DX2                !
 ! D140  D(50,16,17,18)        -51.3704         estimate D2E/DX2                !
 ! D141  D(50,16,17,19)       -103.3118         estimate D2E/DX2                !
 ! D142  D(50,16,17,51)       -179.2079         estimate D2E/DX2                !
 ! D143  D(50,16,17,52)         89.9591         estimate D2E/DX2                !
 ! D144  D(15,16,20,19)       -121.0731         estimate D2E/DX2                !
 ! D145  D(15,16,20,21)        -13.5619         estimate D2E/DX2                !
 ! D146  D(15,16,20,54)        129.9468         estimate D2E/DX2                !
 ! D147  D(17,16,20,19)        -24.3752         estimate D2E/DX2                !
 ! D148  D(17,16,20,21)         83.1359         estimate D2E/DX2                !
 ! D149  D(17,16,20,54)       -133.3553         estimate D2E/DX2                !
 ! D150  D(50,16,20,19)         68.6487         estimate D2E/DX2                !
 ! D151  D(50,16,20,21)        176.1599         estimate D2E/DX2                !
 ! D152  D(50,16,20,54)        -40.3314         estimate D2E/DX2                !
 ! D153  D(16,17,18,26)          8.2594         estimate D2E/DX2                !
 ! D154  D(16,17,18,53)        137.022          estimate D2E/DX2                !
 ! D155  D(51,17,18,26)        116.733          estimate D2E/DX2                !
 ! D156  D(51,17,18,53)       -114.5044         estimate D2E/DX2                !
 ! D157  D(52,17,18,26)       -137.3383         estimate D2E/DX2                !
 ! D158  D(52,17,18,53)         -8.5757         estimate D2E/DX2                !
 ! D159  D(16,17,19,20)        -19.8878         estimate D2E/DX2                !
 ! D160  D(51,17,19,20)         77.509          estimate D2E/DX2                !
 ! D161  D(52,17,19,20)        146.5778         estimate D2E/DX2                !
 ! D162  D(26,18,19,20)        -67.8418         estimate D2E/DX2                !
 ! D163  D(53,18,19,20)        158.1754         estimate D2E/DX2                !
 ! D164  D(17,18,26,27)       -133.7295         estimate D2E/DX2                !
 ! D165  D(17,18,26,34)         28.0799         estimate D2E/DX2                !
 ! D166  D(19,18,26,27)        -39.8153         estimate D2E/DX2                !
 ! D167  D(19,18,26,34)        121.9941         estimate D2E/DX2                !
 ! D168  D(53,18,26,27)        101.7467         estimate D2E/DX2                !
 ! D169  D(53,18,26,34)        -96.4439         estimate D2E/DX2                !
 ! D170  D(17,19,20,16)         17.9287         estimate D2E/DX2                !
 ! D171  D(17,19,20,21)        -95.3504         estimate D2E/DX2                !
 ! D172  D(17,19,20,54)        143.8403         estimate D2E/DX2                !
 ! D173  D(18,19,20,16)        -20.7235         estimate D2E/DX2                !
 ! D174  D(18,19,20,21)       -134.0025         estimate D2E/DX2                !
 ! D175  D(18,19,20,54)        105.1882         estimate D2E/DX2                !
 ! D176  D(16,20,21,10)         23.6248         estimate D2E/DX2                !
 ! D177  D(16,20,21,22)        152.1848         estimate D2E/DX2                !
 ! D178  D(16,20,21,55)        -98.8574         estimate D2E/DX2                !
 ! D179  D(19,20,21,10)        134.1479         estimate D2E/DX2                !
 ! D180  D(19,20,21,22)        -97.2922         estimate D2E/DX2                !
 ! D181  D(19,20,21,55)         11.6656         estimate D2E/DX2                !
 ! D182  D(54,20,21,10)       -121.3373         estimate D2E/DX2                !
 ! D183  D(54,20,21,22)          7.2226         estimate D2E/DX2                !
 ! D184  D(54,20,21,55)        116.1805         estimate D2E/DX2                !
 ! D185  D(10,21,22,23)        -37.5744         estimate D2E/DX2                !
 ! D186  D(10,21,22,56)       -157.6941         estimate D2E/DX2                !
 ! D187  D(10,21,22,57)         84.0505         estimate D2E/DX2                !
 ! D188  D(20,21,22,23)       -160.1396         estimate D2E/DX2                !
 ! D189  D(20,21,22,56)         79.7407         estimate D2E/DX2                !
 ! D190  D(20,21,22,57)        -38.5147         estimate D2E/DX2                !
 ! D191  D(55,21,22,23)         81.2708         estimate D2E/DX2                !
 ! D192  D(55,21,22,56)        -38.8489         estimate D2E/DX2                !
 ! D193  D(55,21,22,57)       -157.1043         estimate D2E/DX2                !
 ! D194  D(21,22,23,8)          48.5342         estimate D2E/DX2                !
 ! D195  D(21,22,23,24)        -84.4836         estimate D2E/DX2                !
 ! D196  D(21,22,23,58)        175.9459         estimate D2E/DX2                !
 ! D197  D(56,22,23,8)         170.156          estimate D2E/DX2                !
 ! D198  D(56,22,23,24)         37.1383         estimate D2E/DX2                !
 ! D199  D(56,22,23,58)        -62.4322         estimate D2E/DX2                !
 ! D200  D(57,22,23,8)         -76.8282         estimate D2E/DX2                !
 ! D201  D(57,22,23,24)        150.1541         estimate D2E/DX2                !
 ! D202  D(57,22,23,58)         50.5836         estimate D2E/DX2                !
 ! D203  D(8,23,24,5)           75.8279         estimate D2E/DX2                !
 ! D204  D(8,23,24,25)        -102.5732         estimate D2E/DX2                !
 ! D205  D(22,23,24,5)        -143.979          estimate D2E/DX2                !
 ! D206  D(22,23,24,25)         37.6199         estimate D2E/DX2                !
 ! D207  D(58,23,24,5)         -47.9459         estimate D2E/DX2                !
 ! D208  D(58,23,24,25)        133.653          estimate D2E/DX2                !
 ! D209  D(5,24,25,1)          -22.8997         estimate D2E/DX2                !
 ! D210  D(5,24,25,59)          38.3043         estimate D2E/DX2                !
 ! D211  D(23,24,25,1)         155.2021         estimate D2E/DX2                !
 ! D212  D(23,24,25,59)       -143.594          estimate D2E/DX2                !
 ! D213  D(18,26,27,28)        170.6289         estimate D2E/DX2                !
 ! D214  D(18,26,27,60)         -2.7802         estimate D2E/DX2                !
 ! D215  D(34,26,27,28)          4.3139         estimate D2E/DX2                !
 ! D216  D(34,26,27,60)       -169.0952         estimate D2E/DX2                !
 ! D217  D(18,26,34,30)       -163.6608         estimate D2E/DX2                !
 ! D218  D(18,26,34,33)         12.8095         estimate D2E/DX2                !
 ! D219  D(27,26,34,30)         -1.0049         estimate D2E/DX2                !
 ! D220  D(27,26,34,33)        175.4655         estimate D2E/DX2                !
 ! D221  D(26,27,28,29)         -1.8204         estimate D2E/DX2                !
 ! D222  D(60,27,28,29)        172.0796         estimate D2E/DX2                !
 ! D223  D(27,28,29,30)         -4.4991         estimate D2E/DX2                !
 ! D224  D(27,28,29,61)        175.8829         estimate D2E/DX2                !
 ! D225  D(28,29,30,31)       -172.1244         estimate D2E/DX2                !
 ! D226  D(28,29,30,34)          7.21           estimate D2E/DX2                !
 ! D227  D(61,29,30,31)          7.4811         estimate D2E/DX2                !
 ! D228  D(61,29,30,34)       -173.1845         estimate D2E/DX2                !
 ! D229  D(29,30,31,32)        174.6955         estimate D2E/DX2                !
 ! D230  D(34,30,31,32)         -4.6555         estimate D2E/DX2                !
 ! D231  D(29,30,34,26)         -4.4211         estimate D2E/DX2                !
 ! D232  D(29,30,34,33)        178.3873         estimate D2E/DX2                !
 ! D233  D(31,30,34,26)        174.9744         estimate D2E/DX2                !
 ! D234  D(31,30,34,33)         -2.2172         estimate D2E/DX2                !
 ! D235  D(30,31,32,33)          8.3511         estimate D2E/DX2                !
 ! D236  D(31,32,33,34)        -10.0986         estimate D2E/DX2                !
 ! D237  D(32,33,34,26)       -168.7226         estimate D2E/DX2                !
 ! D238  D(32,33,34,30)          8.1517         estimate D2E/DX2                !
 --------------------------------------------------------------------------------
 Trust Radius=3.00D-01 FncErr=1.00D-07 GrdErr=1.00D-06
 Number of steps in this run=    366 maximum allowed number of steps=    366.
 GradGradGradGradGradGradGradGradGradGradGradGradGradGradGradGradGradGrad

 Stoichiometry    C25H29N3OS2Si
 Framework group  C1[X(C25H29N3OS2Si)]
 Deg. of freedom   177
 Full point group                 C1      NOp   1
 Largest Abelian subgroup         C1      NOp   1
 Largest concise Abelian subgroup C1      NOp   1
                         Standard orientation:                         
 ---------------------------------------------------------------------
 Center     Atomic      Atomic             Coordinates (Angstroms)
 Number     Number       Type             X           Y           Z
 ---------------------------------------------------------------------
      1         14           0        6.275926   -0.354477   -0.871245
      2          1           0        5.497948    0.963430   -0.856893
      3          1           0        7.069325    0.131604    0.300053
      4          6           0        5.899867   -1.823194    0.758294
      5          6           0        4.866099   -1.223294    1.197095
      6          6           0        4.499250   -0.380234    2.496683
      7          6           0        4.123652    0.946788    1.919762
      8          6           0        2.770166    0.515797    1.397975
      9          6           0        2.416061    1.482540    0.321840
     10          6           0        1.051509    0.908220    0.057521
     11          6           0        0.282223    2.115911   -0.327129
     12          6           0        0.722054    3.075812   -1.360297
     13          8           0       -0.320024    4.058155   -1.122549
     14          6           0       -1.328717    3.534543   -0.142493
     15          6           0       -1.173005    2.128304   -0.601086
     16          6           0       -1.480651    0.680321   -0.585428
     17          6           0       -1.241833    0.432911   -2.033384
     18          6           0       -2.295124   -0.674940   -2.267028
     19         16           0       -0.966700   -1.829825   -1.999321
     20          6           0       -0.734353   -0.799982   -0.309805
     21          6           0        0.755678   -0.600869   -0.301586
     22          6           0        1.335844   -1.659406    0.570835
     23          6           0        2.662872   -1.062441    0.885070
     24          6           0        3.862244   -1.131911    0.097081
     25          6           0        4.191904   -1.103646   -1.237753
     26          6           0       -3.408730   -1.081444   -1.094950
     27          6           0       -3.569878   -2.476792   -0.869601
     28          7           0       -4.259662   -3.122826    0.121253
     29          6           0       -4.890315   -2.437923    1.097684
     30          6           0       -4.757766   -1.037878    1.150639
     31          7           0       -5.198915   -0.261602    2.136629
     32         16           0       -4.679945    1.268747    1.808679
     33          7           0       -4.094152    1.002498    0.300945
     34          6           0       -4.055942   -0.337205    0.028239
     35          1           0        5.661934   -2.659185    0.042163
     36          1           0        5.222254   -0.309369    3.293194
     37          1           0        3.586127   -0.753157    3.023431
     38          1           0        4.782108    1.297469    1.116110
     39          1           0        4.057204    1.798306    2.607818
     40          1           0        2.093875    0.663842    2.252007
     41          1           0        3.096686    1.661220   -0.530845
     42          1           0        2.360778    2.503494    0.771809
     43          1           0        0.655796    0.816686    1.079367
     44          1           0        0.273911    2.532097    0.694116
     45          1           0        0.810130    2.452853   -2.278325
     46          1           0        1.610868    3.692484   -1.460472
     47          1           0       -2.040741    4.356126   -0.181100
     48          1           0       -1.259071    3.425108    0.957104
     49          1           0       -1.725848    2.429391   -1.521307
     50          1           0       -2.503855    0.804010   -0.694155
     51          1           0       -0.152834    0.271436   -2.015582
     52          1           0       -1.018497    1.156266   -2.822035
     53          1           0       -2.751778   -0.401751   -3.214657
     54          1           0       -1.168526   -1.555129    0.376210
     55          1           0        1.240042   -0.861149   -1.249080
     56          1           0        1.432160   -2.652961    0.077230
     57          1           0        0.773385   -1.925817    1.490975
     58          1           0        2.886675   -1.905296    1.560689
     59          1           0        4.894820   -1.548050   -1.926590
     60          1           0       -3.015833   -3.194446   -1.480664
     61          1           0       -5.475048   -2.981253    1.816657
 ---------------------------------------------------------------------
 Rotational constants (GHZ):      0.2210787      0.0735010      0.0672583
 Standard basis: 6-31++G(d,p) (6D, 7F)
 There are   794 symmetry adapted basis functions of A   symmetry.
 Integral buffers will be    131072 words long.
 Raffenetti 2 integral format.
 Two-electron integral symmetry is turned on.
   794 basis functions,  1328 primitive gaussians,   794 cartesian basis functions
   127 alpha electrons      127 beta electrons
       nuclear repulsion energy      3964.5222185892 Hartrees.
 NAtoms=   61 NActive=   61 NUniq=   61 SFac= 1.00D+00 NAtFMM=   60 NAOKFM=T Big=T
 One-electron integrals computed using PRISM.
 NBasis=   794 RedAO= T  NBF=   794
 NBsUse=   787 1.00D-06 NBFU=   787
 Harris functional with IExCor=  402 diagonalized for initial guess.
 ExpMin= 3.31D-02 ExpMax= 2.19D+04 ExpMxC= 3.30D+03 IAcc=3 IRadAn=         5 AccDes= 0.00D+00
 HarFok:  IExCor=  402 AccDes= 0.00D+00 IRadAn=         5 IDoV= 1
 ScaDFX=  1.000000  1.000000  1.000000  1.000000
 FoFCou: FMM=F IPFlag=           0 FMFlag=      100000 FMFlg1=        2001
         NFxFlg=           0 DoJE=T BraDBF=F KetDBF=T FulRan=T
         Omega=  0.000000  0.000000  1.000000  0.000000  0.000000 ICntrl=     500 IOpCl=  0
         NMat0=    1 NMatS0=    1 NMatT0=    0 NMatD0=    1 NMtDS0=    0 NMtDT0=    0
         I1Cent=           4 NGrid=           0.
 Petite list used in FoFCou.
 Initial guess orbital symmetries:
       Occupied  (A) (A) (A) (A) (A) (A) (A) (A) (A) (A) (A) (A)
                 (A) (A) (A) (A) (A) (A) (A) (A) (A) (A) (A) (A)
                 (A) (A) (A) (A) (A) (A) (A) (A) (A) (A) (A) (A)
                 (A) (A) (A) (A) (A) (A) (A) (A) (A) (A) (A) (A)
                 (A) (A) (A) (A) (A) (A) (A) (A) (A) (A) (A) (A)
                 (A) (A) (A) (A) (A) (A) (A) (A) (A) (A) (A) (A)
                 (A) (A) (A) (A) (A) (A) (A) (A) (A) (A) (A) (A)
                 (A) (A) (A) (A) (A) (A) (A) (A) (A) (A) (A) (A)
                 (A) (A) (A) (A) (A) (A) (A) (A) (A) (A) (A) (A)
                 (A) (A) (A) (A) (A) (A) (A) (A) (A) (A) (A) (A)
                 (A) (A) (A) (A) (A) (A) (A)
       Virtual   (A) (A) (A) (A) (A) (A) (A) (A) (A) (A) (A) (A)
                 (A) (A) (A) (A) (A) (A) (A) (A) (A) (A) (A) (A)
                 (A) (A) (A) (A) (A) (A) (A) (A) (A) (A) (A) (A)
                 (A) (A) (A) (A) (A) (A) (A) (A) (A) (A) (A) (A)
                 (A) (A) (A) (A) (A) (A) (A) (A) (A) (A) (A) (A)
                 (A) (A) (A) (A) (A) (A) (A) (A) (A) (A) (A) (A)
                 (A) (A) (A) (A) (A) (A) (A) (A) (A) (A) (A) (A)
                 (A) (A) (A) (A) (A) (A) (A) (A) (A) (A) (A) (A)
                 (A) (A) (A) (A) (A) (A) (A) (A) (A) (A) (A) (A)
                 (A) (A) (A) (A) (A) (A) (A) (A) (A) (A) (A) (A)
                 (A) (A) (A) (A) (A) (A) (A) (A) (A) (A) (A) (A)
                 (A) (A) (A) (A) (A) (A) (A) (A) (A) (A) (A) (A)
                 (A) (A) (A) (A) (A) (A) (A) (A) (A) (A) (A) (A)
                 (A) (A) (A) (A) (A) (A) (A) (A) (A) (A) (A) (A)
                 (A) (A) (A) (A) (A) (A) (A) (A) (A) (A) (A) (A)
                 (A) (A) (A) (A) (A) (A) (A) (A) (A) (A) (A) (A)
                 (A) (A) (A) (A) (A) (A) (A) (A) (A) (A) (A) (A)
                 (A) (A) (A) (A) (A) (A) (A) (A) (A) (A) (A) (A)
                 (A) (A) (A) (A) (A) (A) (A) (A) (A) (A) (A) (A)
                 (A) (A) (A) (A) (A) (A) (A) (A) (A) (A) (A) (A)
                 (A) (A) (A) (A) (A) (A) (A) (A) (A) (A) (A) (A)
                 (A) (A) (A) (A) (A) (A) (A) (A) (A) (A) (A) (A)
                 (A) (A) (A) (A) (A) (A) (A) (A) (A) (A) (A) (A)
                 (A) (A) (A) (A) (A) (A) (A) (A) (A) (A) (A) (A)
                 (A) (A) (A) (A) (A) (A) (A) (A) (A) (A) (A) (A)
                 (A) (A) (A) (A) (A) (A) (A) (A) (A) (A) (A) (A)
                 (A) (A) (A) (A) (A) (A) (A) (A) (A) (A) (A) (A)
                 (A) (A) (A) (A) (A) (A) (A) (A) (A) (A) (A) (A)
                 (A) (A) (A) (A) (A) (A) (A) (A) (A) (A) (A) (A)
                 (A) (A) (A) (A) (A) (A) (A) (A) (A) (A) (A) (A)
                 (A) (A) (A) (A) (A) (A) (A) (A) (A) (A) (A) (A)
                 (A) (A) (A) (A) (A) (A) (A) (A) (A) (A) (A) (A)
                 (A) (A) (A) (A) (A) (A) (A) (A) (A) (A) (A) (A)
                 (A) (A) (A) (A) (A) (A) (A) (A) (A) (A) (A) (A)
                 (A) (A) (A) (A) (A) (A) (A) (A) (A) (A) (A) (A)
                 (A) (A) (A) (A) (A) (A) (A) (A) (A) (A) (A) (A)
                 (A) (A) (A) (A) (A) (A) (A) (A) (A) (A) (A) (A)
                 (A) (A) (A) (A) (A) (A) (A) (A) (A) (A) (A) (A)
                 (A) (A) (A) (A) (A) (A) (A) (A) (A) (A) (A) (A)
                 (A) (A) (A) (A) (A) (A) (A) (A) (A) (A) (A) (A)
                 (A) (A) (A) (A) (A) (A) (A) (A) (A) (A) (A) (A)
                 (A) (A) (A) (A) (A) (A) (A) (A) (A) (A) (A) (A)
                 (A) (A) (A) (A) (A) (A) (A) (A) (A) (A) (A) (A)
                 (A) (A) (A) (A) (A) (A) (A) (A) (A) (A) (A) (A)
                 (A) (A) (A) (A) (A) (A) (A) (A) (A) (A) (A) (A)
                 (A) (A) (A) (A) (A) (A) (A) (A) (A) (A) (A) (A)
                 (A) (A) (A) (A) (A) (A) (A) (A) (A) (A) (A) (A)
                 (A) (A) (A) (A) (A) (A) (A) (A) (A) (A) (A) (A)
                 (A) (A) (A) (A) (A) (A) (A) (A) (A) (A) (A) (A)
                 (A) (A) (A) (A) (A) (A) (A) (A) (A) (A) (A) (A)
                 (A) (A) (A) (A) (A) (A) (A) (A) (A) (A) (A) (A)
                 (A) (A) (A) (A) (A) (A) (A) (A) (A) (A) (A) (A)
                 (A) (A) (A) (A) (A) (A) (A) (A) (A) (A) (A) (A)
                 (A) (A) (A) (A) (A) (A) (A) (A) (A) (A) (A) (A)
                 (A) (A) (A) (A) (A) (A) (A) (A) (A) (A) (A) (A)
 The electronic state of the initial guess is 1-A.
 Requested convergence on RMS density matrix=1.00D-08 within 128 cycles.
 Requested convergence on MAX density matrix=1.00D-06.
 Requested convergence on             energy=1.00D-06.
 No special actions if energy rises.
 EnCoef did    11 forward-backward iterations
 EnCoef did   100 forward-backward iterations
 EnCoef did     6 forward-backward iterations
 EnCoef did     6 forward-backward iterations
 Restarting incremental Fock formation.
 SCF Done:  E(RB3LYP) =  -2294.49855321     A.U. after   30 cycles
             Convg  =    0.7181D-08             -V/T =  2.0056

 **********************************************************************

            Population analysis using the SCF density.

 **********************************************************************

 Orbital symmetries:
       Occupied  (A) (A) (A) (A) (A) (A) (A) (A) (A) (A) (A) (A)
                 (A) (A) (A) (A) (A) (A) (A) (A) (A) (A) (A) (A)
                 (A) (A) (A) (A) (A) (A) (A) (A) (A) (A) (A) (A)
                 (A) (A) (A) (A) (A) (A) (A) (A) (A) (A) (A) (A)
                 (A) (A) (A) (A) (A) (A) (A) (A) (A) (A) (A) (A)
                 (A) (A) (A) (A) (A) (A) (A) (A) (A) (A) (A) (A)
                 (A) (A) (A) (A) (A) (A) (A) (A) (A) (A) (A) (A)
                 (A) (A) (A) (A) (A) (A) (A) (A) (A) (A) (A) (A)
                 (A) (A) (A) (A) (A) (A) (A) (A) (A) (A) (A) (A)
                 (A) (A) (A) (A) (A) (A) (A) (A) (A) (A) (A) (A)
                 (A) (A) (A) (A) (A) (A) (A)
       Virtual   (A) (A) (A) (A) (A) (A) (A) (A) (A) (A) (A) (A)
                 (A) (A) (A) (A) (A) (A) (A) (A) (A) (A) (A) (A)
                 (A) (A) (A) (A) (A) (A) (A) (A) (A) (A) (A) (A)
                 (A) (A) (A) (A) (A) (A) (A) (A) (A) (A) (A) (A)
                 (A) (A) (A) (A) (A) (A) (A) (A) (A) (A) (A) (A)
                 (A) (A) (A) (A) (A) (A) (A) (A) (A) (A) (A) (A)
                 (A) (A) (A) (A) (A) (A) (A) (A) (A) (A) (A) (A)
                 (A) (A) (A) (A) (A) (A) (A) (A) (A) (A) (A) (A)
                 (A) (A) (A) (A) (A) (A) (A) (A) (A) (A) (A) (A)
                 (A) (A) (A) (A) (A) (A) (A) (A) (A) (A) (A) (A)
                 (A) (A) (A) (A) (A) (A) (A) (A) (A) (A) (A) (A)
                 (A) (A) (A) (A) (A) (A) (A) (A) (A) (A) (A) (A)
                 (A) (A) (A) (A) (A) (A) (A) (A) (A) (A) (A) (A)
                 (A) (A) (A) (A) (A) (A) (A) (A) (A) (A) (A) (A)
                 (A) (A) (A) (A) (A) (A) (A) (A) (A) (A) (A) (A)
                 (A) (A) (A) (A) (A) (A) (A) (A) (A) (A) (A) (A)
                 (A) (A) (A) (A) (A) (A) (A) (A) (A) (A) (A) (A)
                 (A) (A) (A) (A) (A) (A) (A) (A) (A) (A) (A) (A)
                 (A) (A) (A) (A) (A) (A) (A) (A) (A) (A) (A) (A)
                 (A) (A) (A) (A) (A) (A) (A) (A) (A) (A) (A) (A)
                 (A) (A) (A) (A) (A) (A) (A) (A) (A) (A) (A) (A)
                 (A) (A) (A) (A) (A) (A) (A) (A) (A) (A) (A) (A)
                 (A) (A) (A) (A) (A) (A) (A) (A) (A) (A) (A) (A)
                 (A) (A) (A) (A) (A) (A) (A) (A) (A) (A) (A) (A)
                 (A) (A) (A) (A) (A) (A) (A) (A) (A) (A) (A) (A)
                 (A) (A) (A) (A) (A) (A) (A) (A) (A) (A) (A) (A)
                 (A) (A) (A) (A) (A) (A) (A) (A) (A) (A) (A) (A)
                 (A) (A) (A) (A) (A) (A) (A) (A) (A) (A) (A) (A)
                 (A) (A) (A) (A) (A) (A) (A) (A) (A) (A) (A) (A)
                 (A) (A) (A) (A) (A) (A) (A) (A) (A) (A) (A) (A)
                 (A) (A) (A) (A) (A) (A) (A) (A) (A) (A) (A) (A)
                 (A) (A) (A) (A) (A) (A) (A) (A) (A) (A) (A) (A)
                 (A) (A) (A) (A) (A) (A) (A) (A) (A) (A) (A) (A)
                 (A) (A) (A) (A) (A) (A) (A) (A) (A) (A) (A) (A)
                 (A) (A) (A) (A) (A) (A) (A) (A) (A) (A) (A) (A)
                 (A) (A) (A) (A) (A) (A) (A) (A) (A) (A) (A) (A)
                 (A) (A) (A) (A) (A) (A) (A) (A) (A) (A) (A) (A)
                 (A) (A) (A) (A) (A) (A) (A) (A) (A) (A) (A) (A)
                 (A) (A) (A) (A) (A) (A) (A) (A) (A) (A) (A) (A)
                 (A) (A) (A) (A) (A) (A) (A) (A) (A) (A) (A) (A)
                 (A) (A) (A) (A) (A) (A) (A) (A) (A) (A) (A) (A)
                 (A) (A) (A) (A) (A) (A) (A) (A) (A) (A) (A) (A)
                 (A) (A) (A) (A) (A) (A) (A) (A) (A) (A) (A) (A)
                 (A) (A) (A) (A) (A) (A) (A) (A) (A) (A) (A) (A)
                 (A) (A) (A) (A) (A) (A) (A) (A) (A) (A) (A) (A)
                 (A) (A) (A) (A) (A) (A) (A) (A) (A) (A) (A) (A)
                 (A) (A) (A) (A) (A) (A) (A) (A) (A) (A) (A) (A)
                 (A) (A) (A) (A) (A) (A) (A) (A) (A) (A) (A) (A)
                 (A) (A) (A) (A) (A) (A) (A) (A) (A) (A) (A) (A)
                 (A) (A) (A) (A) (A) (A) (A) (A) (A) (A) (A) (A)
                 (A) (A) (A) (A) (A) (A) (A) (A) (A) (A) (A) (A)
                 (A) (A) (A) (A) (A) (A) (A) (A) (A) (A) (A) (A)
                 (A) (A) (A) (A) (A) (A) (A) (A) (A) (A) (A) (A)
                 (A) (A) (A) (A) (A) (A) (A) (A) (A) (A) (A) (A)
                 (A) (A) (A) (A) (A) (A) (A) (A) (A) (A) (A) (A)
 The electronic state is 1-A.
 Alpha  occ. eigenvalues --  -89.00488 -88.88538 -66.15133 -19.15970 -14.39865
 Alpha  occ. eigenvalues --  -14.39317 -14.36507 -10.28437 -10.26958 -10.25971
 Alpha  occ. eigenvalues --  -10.25855 -10.25570 -10.25304 -10.24844 -10.24552
 Alpha  occ. eigenvalues --  -10.24238 -10.24126 -10.23277 -10.22948 -10.21981
 Alpha  occ. eigenvalues --  -10.21522 -10.21117 -10.21088 -10.21023 -10.20104
 Alpha  occ. eigenvalues --  -10.19627 -10.19577 -10.19506 -10.19377 -10.19313
 Alpha  occ. eigenvalues --  -10.19263 -10.19258  -8.05707  -7.94485  -6.02272
 Alpha  occ. eigenvalues --   -6.01693  -6.01469  -5.90933  -5.90793  -5.89876
 Alpha  occ. eigenvalues --   -5.29570  -3.65784  -3.65246  -3.65117  -1.03916
 Alpha  occ. eigenvalues --   -1.03679  -0.95376  -0.92573  -0.91670  -0.90559
 Alpha  occ. eigenvalues --   -0.86732  -0.84268  -0.83069  -0.81130  -0.79984
 Alpha  occ. eigenvalues --   -0.78654  -0.77298  -0.74788  -0.74141  -0.72544
 Alpha  occ. eigenvalues --   -0.69614  -0.69083  -0.68507  -0.64899  -0.64280
 Alpha  occ. eigenvalues --   -0.63767  -0.63136  -0.62074  -0.61095  -0.59399
 Alpha  occ. eigenvalues --   -0.58788  -0.55935  -0.55590  -0.54302  -0.53760
 Alpha  occ. eigenvalues --   -0.53425  -0.53161  -0.52518  -0.51437  -0.50746
 Alpha  occ. eigenvalues --   -0.49940  -0.48771  -0.48187  -0.47603  -0.47267
 Alpha  occ. eigenvalues --   -0.46882  -0.45711  -0.45179  -0.44793  -0.43723
 Alpha  occ. eigenvalues --   -0.43525  -0.42790  -0.42509  -0.41786  -0.41088
 Alpha  occ. eigenvalues --   -0.40692  -0.40670  -0.40158  -0.39903  -0.38986
 Alpha  occ. eigenvalues --   -0.38884  -0.37913  -0.37060  -0.36330  -0.35760
 Alpha  occ. eigenvalues --   -0.35592  -0.35132  -0.35062  -0.34556  -0.33860
 Alpha  occ. eigenvalues --   -0.33213  -0.32187  -0.31580  -0.31405  -0.30548
 Alpha  occ. eigenvalues --   -0.30071  -0.29704  -0.28571  -0.27840  -0.26713
 Alpha  occ. eigenvalues --   -0.26258  -0.25756  -0.25300  -0.24650  -0.23145
 Alpha  occ. eigenvalues --   -0.19091  -0.18970
 Alpha virt. eigenvalues --   -0.13895  -0.12142  -0.09513  -0.03970  -0.03815
 Alpha virt. eigenvalues --   -0.03285  -0.02455  -0.02346  -0.01751  -0.01272
 Alpha virt. eigenvalues --   -0.00550  -0.00427   0.00161   0.00199   0.00803
 Alpha virt. eigenvalues --    0.00862   0.01188   0.01758   0.01976   0.02427
 Alpha virt. eigenvalues --    0.02657   0.02918   0.02979   0.03119   0.03305
 Alpha virt. eigenvalues --    0.03634   0.04009   0.04387   0.04601   0.04823
 Alpha virt. eigenvalues --    0.05141   0.05443   0.05642   0.06030   0.06126
 Alpha virt. eigenvalues --    0.06565   0.06665   0.07066   0.07320   0.07429
 Alpha virt. eigenvalues --    0.07553   0.07951   0.08058   0.08331   0.08519
 Alpha virt. eigenvalues --    0.08683   0.08892   0.08901   0.09171   0.09381
 Alpha virt. eigenvalues --    0.09671   0.09748   0.10103   0.10421   0.10558
 Alpha virt. eigenvalues --    0.10713   0.10882   0.10990   0.11090   0.11262
 Alpha virt. eigenvalues --    0.11439   0.11481   0.11695   0.11780   0.11915
 Alpha virt. eigenvalues --    0.12109   0.12518   0.12653   0.12748   0.12879
 Alpha virt. eigenvalues --    0.13054   0.13289   0.13488   0.13578   0.13721
 Alpha virt. eigenvalues --    0.13819   0.14058   0.14377   0.14611   0.14760
 Alpha virt. eigenvalues --    0.14919   0.15047   0.15320   0.15448   0.15787
 Alpha virt. eigenvalues --    0.15914   0.15978   0.16177   0.16332   0.16464
 Alpha virt. eigenvalues --    0.16691   0.16971   0.17285   0.17360   0.17572
 Alpha virt. eigenvalues --    0.17707   0.17783   0.17906   0.18167   0.18477
 Alpha virt. eigenvalues --    0.18564   0.18734   0.18901   0.19115   0.19349
 Alpha virt. eigenvalues --    0.19651   0.19709   0.20235   0.20246   0.20484
 Alpha virt. eigenvalues --    0.20676   0.20732   0.21104   0.21323   0.21526
 Alpha virt. eigenvalues --    0.21687   0.21951   0.22166   0.22225   0.22301
 Alpha virt. eigenvalues --    0.22567   0.22720   0.22985   0.23094   0.23473
 Alpha virt. eigenvalues --    0.23740   0.24035   0.24198   0.24332   0.24492
 Alpha virt. eigenvalues --    0.24784   0.24892   0.25075   0.25282   0.25486
 Alpha virt. eigenvalues --    0.25675   0.25970   0.26190   0.26477   0.26705
 Alpha virt. eigenvalues --    0.26741   0.27015   0.27116   0.27577   0.27780
 Alpha virt. eigenvalues --    0.28092   0.28376   0.28654   0.28707   0.29130
 Alpha virt. eigenvalues --    0.29314   0.29415   0.29613   0.29828   0.30211
 Alpha virt. eigenvalues --    0.30323   0.30572   0.30747   0.30870   0.30985
 Alpha virt. eigenvalues --    0.31076   0.31377   0.31802   0.31859   0.32003
 Alpha virt. eigenvalues --    0.32133   0.32552   0.32657   0.32996   0.33345
 Alpha virt. eigenvalues --    0.33533   0.33685   0.33863   0.34188   0.34753
 Alpha virt. eigenvalues --    0.34946   0.35176   0.35300   0.35575   0.35990
 Alpha virt. eigenvalues --    0.36110   0.36413   0.36675   0.37307   0.37447
 Alpha virt. eigenvalues --    0.37647   0.37694   0.37897   0.38153   0.38515
 Alpha virt. eigenvalues --    0.38841   0.39158   0.39275   0.40006   0.40309
 Alpha virt. eigenvalues --    0.40449   0.40780   0.41053   0.41695   0.41806
 Alpha virt. eigenvalues --    0.42151   0.42267   0.42579   0.42758   0.43501
 Alpha virt. eigenvalues --    0.43697   0.44050   0.44578   0.45020   0.45469
 Alpha virt. eigenvalues --    0.45669   0.45881   0.46010   0.46505   0.47153
 Alpha virt. eigenvalues --    0.47885   0.48475   0.48877   0.49553   0.49804
 Alpha virt. eigenvalues --    0.50811   0.51303   0.52128   0.52638   0.52899
 Alpha virt. eigenvalues --    0.53365   0.55623   0.56124   0.56488   0.57664
 Alpha virt. eigenvalues --    0.59741   0.60494   0.62322   0.62961   0.63745
 Alpha virt. eigenvalues --    0.64150   0.64465   0.66335   0.66811   0.68012
 Alpha virt. eigenvalues --    0.68556   0.68904   0.69821   0.70441   0.70772
 Alpha virt. eigenvalues --    0.71099   0.72209   0.72841   0.73006   0.73342
 Alpha virt. eigenvalues --    0.73481   0.74134   0.74509   0.74670   0.75129
 Alpha virt. eigenvalues --    0.75930   0.76002   0.76574   0.77206   0.77412
 Alpha virt. eigenvalues --    0.77896   0.78189   0.78600   0.78993   0.79350
 Alpha virt. eigenvalues --    0.79766   0.80197   0.80860   0.81289   0.81636
 Alpha virt. eigenvalues --    0.82184   0.82476   0.82805   0.83389   0.83866
 Alpha virt. eigenvalues --    0.84061   0.85138   0.85453   0.86359   0.86645
 Alpha virt. eigenvalues --    0.86839   0.87309   0.88110   0.88298   0.89195
 Alpha virt. eigenvalues --    0.89643   0.89788   0.90475   0.91001   0.91716
 Alpha virt. eigenvalues --    0.91845   0.92828   0.93044   0.93460   0.93663
 Alpha virt. eigenvalues --    0.94144   0.94644   0.95408   0.95552   0.96942
 Alpha virt. eigenvalues --    0.97562   0.97591   0.97952   0.98737   1.00109
 Alpha virt. eigenvalues --    1.00573   1.00754   1.00973   1.01701   1.02429
 Alpha virt. eigenvalues --    1.02895   1.03057   1.03527   1.04200   1.04456
 Alpha virt. eigenvalues --    1.04808   1.05736   1.06474   1.06665   1.07518
 Alpha virt. eigenvalues --    1.08346   1.08811   1.09890   1.09970   1.10289
 Alpha virt. eigenvalues --    1.10579   1.11052   1.11399   1.11732   1.12320
 Alpha virt. eigenvalues --    1.12656   1.13591   1.14011   1.14300   1.15071
 Alpha virt. eigenvalues --    1.15668   1.15746   1.16386   1.16786   1.17711
 Alpha virt. eigenvalues --    1.17792   1.17975   1.18688   1.19367   1.19687
 Alpha virt. eigenvalues --    1.20201   1.20271   1.21158   1.21538   1.22498
 Alpha virt. eigenvalues --    1.22590   1.23223   1.23403   1.23967   1.24647
 Alpha virt. eigenvalues --    1.24822   1.25067   1.26181   1.27143   1.27407
 Alpha virt. eigenvalues --    1.28552   1.28802   1.30272   1.31012   1.31537
 Alpha virt. eigenvalues --    1.32827   1.33601   1.34332   1.34665   1.35833
 Alpha virt. eigenvalues --    1.36129   1.37505   1.38328   1.38848   1.39299
 Alpha virt. eigenvalues --    1.40631   1.40882   1.41451   1.42874   1.43145
 Alpha virt. eigenvalues --    1.44000   1.44514   1.45909   1.46266   1.46743
 Alpha virt. eigenvalues --    1.47960   1.49516   1.50078   1.50423   1.51613
 Alpha virt. eigenvalues --    1.52643   1.53930   1.54889   1.56989   1.58541
 Alpha virt. eigenvalues --    1.58966   1.60013   1.60904   1.61366   1.62216
 Alpha virt. eigenvalues --    1.62936   1.64555   1.65266   1.65727   1.67161
 Alpha virt. eigenvalues --    1.67723   1.68049   1.69060   1.71285   1.72083
 Alpha virt. eigenvalues --    1.72608   1.73233   1.74674   1.76342   1.76930
 Alpha virt. eigenvalues --    1.77075   1.78337   1.78526   1.79136   1.80420
 Alpha virt. eigenvalues --    1.80539   1.81114   1.81856   1.82269   1.82719
 Alpha virt. eigenvalues --    1.83293   1.84249   1.85049   1.85436   1.86255
 Alpha virt. eigenvalues --    1.87516   1.87647   1.88556   1.89303   1.89836
 Alpha virt. eigenvalues --    1.90526   1.91153   1.91663   1.92407   1.93432
 Alpha virt. eigenvalues --    1.94184   1.94293   1.95575   1.96126   1.96550
 Alpha virt. eigenvalues --    1.97325   1.98852   1.99864   2.00008   2.00984
 Alpha virt. eigenvalues --    2.01627   2.02504   2.03814   2.04298   2.05513
 Alpha virt. eigenvalues --    2.06037   2.06705   2.07306   2.08089   2.08452
 Alpha virt. eigenvalues --    2.09726   2.10565   2.10952   2.11542   2.12142
 Alpha virt. eigenvalues --    2.13229   2.13366   2.14834   2.15341   2.16150
 Alpha virt. eigenvalues --    2.16387   2.17154   2.17842   2.18773   2.19152
 Alpha virt. eigenvalues --    2.19733   2.20607   2.21577   2.22400   2.23064
 Alpha virt. eigenvalues --    2.23672   2.24053   2.24684   2.25263   2.25502
 Alpha virt. eigenvalues --    2.26287   2.27164   2.27792   2.28605   2.29144
 Alpha virt. eigenvalues --    2.29939   2.30019   2.31192   2.32250   2.33073
 Alpha virt. eigenvalues --    2.33297   2.34489   2.34983   2.35455   2.36026
 Alpha virt. eigenvalues --    2.36264   2.37221   2.38386   2.38800   2.39990
 Alpha virt. eigenvalues --    2.40519   2.41104   2.41436   2.42243   2.42461
 Alpha virt. eigenvalues --    2.43608   2.44256   2.44706   2.46145   2.46792
 Alpha virt. eigenvalues --    2.47757   2.48225   2.48596   2.49310   2.50507
 Alpha virt. eigenvalues --    2.51235   2.51687   2.52501   2.53340   2.53908
 Alpha virt. eigenvalues --    2.54627   2.55468   2.55706   2.56561   2.57023
 Alpha virt. eigenvalues --    2.57897   2.58154   2.58529   2.59703   2.60456
 Alpha virt. eigenvalues --    2.60880   2.60951   2.61888   2.62101   2.62745
 Alpha virt. eigenvalues --    2.63431   2.64004   2.64693   2.65006   2.66551
 Alpha virt. eigenvalues --    2.66847   2.66891   2.67651   2.68310   2.69637
 Alpha virt. eigenvalues --    2.70424   2.70744   2.71505   2.72345   2.72809
 Alpha virt. eigenvalues --    2.73212   2.73989   2.75164   2.75608   2.76276
 Alpha virt. eigenvalues --    2.77147   2.77490   2.78554   2.79219   2.80632
 Alpha virt. eigenvalues --    2.81149   2.82201   2.83334   2.83772   2.84176
 Alpha virt. eigenvalues --    2.85443   2.86158   2.87135   2.88129   2.88960
 Alpha virt. eigenvalues --    2.90446   2.91608   2.92216   2.93662   2.94723
 Alpha virt. eigenvalues --    2.96351   2.97876   2.99619   2.99742   3.01470
 Alpha virt. eigenvalues --    3.02118   3.03229   3.04244   3.05837   3.06265
 Alpha virt. eigenvalues --    3.08082   3.11522   3.12058   3.13560   3.15369
 Alpha virt. eigenvalues --    3.16077   3.17908   3.19414   3.20910   3.22530
 Alpha virt. eigenvalues --    3.25105   3.31322   3.33177   3.33771   3.34801
 Alpha virt. eigenvalues --    3.36124   3.36424   3.37234   3.37735   3.41654
 Alpha virt. eigenvalues --    3.42903   3.44613   3.45094   3.47469   3.47932
 Alpha virt. eigenvalues --    3.50895   3.51960   3.52705   3.53135   3.56654
 Alpha virt. eigenvalues --    3.57475   3.59093   3.59358   3.60496   3.63544
 Alpha virt. eigenvalues --    3.65269   3.66322   3.71823   3.76770   3.98335
 Alpha virt. eigenvalues --    4.06721   4.17491   4.28190   4.29501   4.37065
 Alpha virt. eigenvalues --    4.44996   4.46474   4.47130   4.50929   4.52297
 Alpha virt. eigenvalues --    4.54052   4.55607   4.56378   4.60604   4.61901
 Alpha virt. eigenvalues --    4.62887   4.65221   4.67934   4.70992   4.72755
 Alpha virt. eigenvalues --    4.76217   4.79375   4.81700   4.82803   4.86790
 Alpha virt. eigenvalues --    4.90074   4.96391   4.97077   5.05082   5.09294
          Condensed to atoms (all electrons):
 Mulliken atomic charges:
              1
     1  Si   0.127261
     2  H   -0.128453
     3  H   -0.014067
     4  C   -0.900381
     5  C    0.516645
     6  C   -0.095919
     7  C   -0.311256
     8  C   -0.594869
     9  C   -0.502008
    10  C   -0.245243
    11  C   -0.462253
    12  C   -0.066596
    13  O   -0.137435
    14  C   -0.355882
    15  C    0.365668
    16  C    0.108104
    17  C   -0.586504
    18  C   -0.313671
    19  S   -0.131003
    20  C   -0.498362
    21  C   -0.192742
    22  C   -0.103783
    23  C    0.029347
    24  C    0.058025
    25  C   -0.319079
    26  C    1.343038
    27  C   -0.840130
    28  N    0.042800
    29  C   -0.388748
    30  C   -0.007468
    31  N   -0.388170
    32  S    0.839113
    33  N   -0.183710
    34  C   -0.712238
    35  H    0.231192
    36  H    0.164057
    37  H    0.180802
    38  H    0.220293
    39  H    0.152651
    40  H    0.154972
    41  H    0.257654
    42  H    0.201723
    43  H    0.197984
    44  H    0.149000
    45  H    0.120491
    46  H    0.122112
    47  H    0.136838
    48  H    0.074107
    49  H    0.255858
    50  H    0.272955
    51  H    0.269203
    52  H    0.118340
    53  H    0.234005
    54  H    0.256243
    55  H    0.272795
    56  H    0.182768
    57  H    0.159121
    58  H    0.145917
    59  H    0.169219
    60  H    0.176535
    61  H    0.173134
 Sum of Mulliken atomic charges =  -0.00000
 Mulliken charges with hydrogens summed into heavy atoms:
              1
     1  Si  -0.015259
     4  C   -0.669189
     5  C    0.516645
     6  C    0.248940
     7  C    0.061688
     8  C   -0.439897
     9  C   -0.042631
    10  C   -0.047260
    11  C   -0.313253
    12  C    0.176008
    13  O   -0.137435
    14  C   -0.144937
    15  C    0.621525
    16  C    0.381060
    17  C   -0.198961
    18  C   -0.079667
    19  S   -0.131003
    20  C   -0.242118
    21  C    0.080053
    22  C    0.238106
    23  C    0.175263
    24  C    0.058025
    25  C   -0.149861
    26  C    1.343038
    27  C   -0.663595
    28  N    0.042800
    29  C   -0.215614
    30  C   -0.007468
    31  N   -0.388170
    32  S    0.839113
    33  N   -0.183710
    34  C   -0.712238
 Sum of Mulliken charges with hydrogens summed into heavy atoms =  -0.00000
 Electronic spatial extent (au):  <R**2>=          16342.7975
 Charge=              0.0000 electrons
 Dipole moment (field-independent basis, Debye):
    X=             -0.8833    Y=              0.5550    Z=              2.0618  Tot=              2.3107
 Quadrupole moment (field-independent basis, Debye-Ang):
   XX=           -239.1755   YY=           -234.7808   ZZ=           -212.1624
   XY=             -2.4177   XZ=             -2.8433   YZ=              5.7159
 Traceless Quadrupole moment (field-independent basis, Debye-Ang):
   XX=            -10.4692   YY=             -6.0746   ZZ=             16.5438
   XY=             -2.4177   XZ=             -2.8433   YZ=              5.7159
 Octapole moment (field-independent basis, Debye-Ang**2):
  XXX=           -228.4507  YYY=             -2.7426  ZZZ=              5.0709  XYY=              1.7125
  XXY=             84.8681  XXZ=            -53.8059  XZZ=            -18.0688  YZZ=             16.5005
  YYZ=             35.0962  XYZ=             13.6630
 Hexadecapole moment (field-independent basis, Debye-Ang**3):
 XXXX=         -18552.0946 YYYY=          -4656.1706 ZZZZ=          -2482.7077 XXXY=            256.8532
 XXXZ=           -426.0477 YYYX=           -148.7903 YYYZ=            111.4627 ZZZX=             78.3808
 ZZZY=             13.2126 XXYY=          -3611.4891 XXZZ=          -3234.6286 YYZZ=          -1125.4687
 XXYZ=            148.3118 YYXZ=           -133.4547 ZZXY=             41.0381
 N-N= 3.964522218589D+03 E-N=-1.331065954830D+04  KE= 2.281655871940D+03
 Calling FoFJK, ICntrl=      2127 FMM=T ISym2X=0 I1Cent= 0 IOpClX= 0 NMat=1 NMatS=1 NMatT=0.
 ***** Axes restored to original set *****
 -------------------------------------------------------------------
 Center     Atomic                   Forces (Hartrees/Bohr)
 Number     Number              X              Y              Z
 -------------------------------------------------------------------
      1       14           0.025296653    0.005881209   -0.005601196
      2        1           0.001727738    0.000873548    0.003807571
      3        1           0.004592911   -0.006448445    0.026539267
      4        6          -0.048797571    0.019276169    0.076464221
      5        6           0.076699667    0.035074800   -0.014789656
      6        6           0.002512601   -0.000019949    0.028318212
      7        6          -0.005639852    0.007101383    0.005636246
      8        6           0.015837026   -0.001162745    0.016399569
      9        6          -0.014790929    0.008064781   -0.004883928
     10        6          -0.011072237    0.033052134   -0.015287879
     11        6           0.017644148   -0.017571701    0.015532328
     12        6           0.011060578   -0.011254946    0.002270011
     13        8           0.017494038    0.004788826   -0.012143191
     14        6           0.042813902    0.033811072   -0.009648458
     15        6          -0.000418466   -0.013705582   -0.024034096
     16        6          -0.037045942   -0.005741106   -0.021726530
     17        6           0.015674140   -0.038410856    0.003815810
     18        6          -0.001463403    0.002042143   -0.004784166
     19       16          -0.044000943    0.023051435    0.019177637
     20        6          -0.000023123   -0.005673176   -0.025516949
     21        6          -0.005868027   -0.028011395   -0.015510732
     22        6           0.008829184   -0.009694640   -0.005385393
     23        6          -0.001950074    0.046459895    0.010338947
     24        6          -0.053903828   -0.106330697   -0.004800226
     25        6          -0.002422225    0.054805660   -0.033838062
     26        6          -0.005743967    0.026233893   -0.000029365
     27        6           0.011061175   -0.011423539   -0.002506096
     28        7           0.014433182    0.020962446   -0.024821445
     29        6          -0.022299142   -0.032951621    0.021602809
     30        6          -0.003714170   -0.026950462    0.000909657
[...]
   D197       2.96862   0.00030   0.00213   0.00879   0.00937   2.97799
   D198       0.74748   0.00222   0.04382   0.01446   0.04758   0.79506
   D199      -1.25862   0.00054  -0.08010   0.01553  -0.05952  -1.31813
   D200      -1.30469  -0.00027   0.03207   0.00025   0.02888  -1.27581
   D201       2.75735   0.00166   0.07376   0.00591   0.06709   2.82444
   D202       0.75126  -0.00003  -0.05016   0.00698  -0.04001   0.71125
   D203       1.21216  -0.00089  -0.04998   0.00298  -0.03894   1.17322
   D204      -1.76946  -0.00100  -0.00516  -0.00933  -0.00951  -1.77897
   D205      -2.82347  -0.00027  -0.12119   0.01266  -0.09562  -2.91909
   D206       0.47809  -0.00038  -0.07637   0.00035  -0.06619   0.41190
   D207      -0.79543  -0.00021  -0.03272   0.00005  -0.03220  -0.82764
   D208       2.50613  -0.00033   0.01210  -0.01226  -0.00278   2.50335
   D209      -0.29097   0.00312   0.10367   0.03844   0.12404  -0.16692
   D210       0.83626   0.00200   0.07705   0.01310   0.08256   0.91882
   D211       2.66652   0.00375   0.05433   0.05519   0.09573   2.76225
   D212      -2.48944   0.00263   0.02771   0.02985   0.05425  -2.43519
   D213      -3.09212   0.00047   0.16063  -0.00506   0.14577  -2.94634
   D214       0.06465   0.00057   0.11992  -0.00937   0.10315   0.16779
   D215      -0.02589   0.00028  -0.09243   0.02765  -0.05770  -0.08358
   D216       3.13088   0.00037  -0.13314   0.02334  -0.10032   3.03055
   D217       3.13628  -0.00133  -0.17975   0.00417  -0.14002   2.99626
   D218       0.01034  -0.00154  -0.11957  -0.02109  -0.10817  -0.09782
   D219       0.06743  -0.00079   0.06862  -0.02894   0.03411   0.10154
   D220      -3.05851  -0.00100   0.12879  -0.05420   0.06596  -2.99255
   D221      -0.02869   0.00027   0.02617  -0.00405   0.02095  -0.00774
   D222       3.09841   0.00017   0.06497   0.00001   0.06178  -3.12299
   D223       0.03946  -0.00059   0.06562  -0.01985   0.04118   0.08064
   D224       3.13001   0.00037   0.02325   0.00663   0.02559  -3.12759
   D225       3.12209  -0.00051  -0.11637   0.01196  -0.09147   3.03062
   D226       0.00360   0.00019  -0.08227   0.01650  -0.05976  -0.05616
   D227       0.03222  -0.00143  -0.07358  -0.01467  -0.07588  -0.04366
   D228      -3.08627  -0.00073  -0.03948  -0.01014  -0.04417  -3.13044
   D229      -3.07279  -0.00099   0.07549  -0.03046   0.04027  -3.03252
   D230       0.04656  -0.00165   0.04263  -0.03466   0.00973   0.05628
   D231      -0.05887   0.00045   0.01176   0.00930   0.01981  -0.03906
   D232       3.06928   0.00063  -0.04002   0.03075  -0.00772   3.06156
   D233       3.10297   0.00109   0.04171   0.01307   0.04768  -3.13254
   D234      -0.05206   0.00126  -0.01007   0.03452   0.02015  -0.03191
   D235      -0.02613   0.00120  -0.05258   0.02164  -0.02940  -0.05554
   D236      -0.00229  -0.00049   0.04742  -0.00272   0.04078   0.03849
   D237      -3.12717  -0.00021  -0.08466   0.00725  -0.06915   3.08686
   D238       0.02915  -0.00037  -0.02798  -0.01626  -0.03892  -0.00977
         Item               Value     Threshold  Converged?
 Maximum Force            0.012754     0.000450     NO 
 RMS     Force            0.003340     0.000300     NO 
 Maximum Displacement     2.400474     0.001800     NO 
 RMS     Displacement     0.386650     0.001200     NO 
 Predicted change in Energy=-4.203959D-02
 GradGradGradGradGradGradGradGradGradGradGradGradGradGradGradGradGradGrad

 Stoichiometry    C25H29N3OS2Si
 Framework group  C1[X(C25H29N3OS2Si)]
 Deg. of freedom   177
 Full point group                 C1      NOp   1
 Largest Abelian subgroup         C1      NOp   1
 Largest concise Abelian subgroup C1      NOp   1
                         Standard orientation:                         
 ---------------------------------------------------------------------
 Center     Atomic      Atomic             Coordinates (Angstroms)
 Number     Number       Type             X           Y           Z
 ---------------------------------------------------------------------
      1         14           0        5.933664   -1.702312   -2.267025
      2          1           0        5.764037   -0.225210   -2.192729
      3          1           0        7.288384   -1.721150   -2.936290
      4          6           0        6.721249   -2.275918   -0.454332
      5          6           0        5.919052   -1.293467   -0.054107
      6          6           0        6.373449   -0.054952    0.678146
      7          6           0        5.497506    1.187586    0.518337
      8          6           0        4.093095    1.020272    1.105852
      9          6           0        3.091063    1.831663    0.277738
     10          6           0        1.651725    1.552117    0.661696
     11          6           0        0.635394    2.616484    0.252039
     12          6           0        0.536104    3.830410   -0.686268
     13          8           0       -0.708395    4.445407   -0.166469
     14          6           0       -1.439602    3.491579    0.667068
     15          6           0       -0.840240    2.183904    0.155449
     16          6           0       -1.307479    0.772893    0.559037
     17          6           0       -1.870473    0.064601   -0.727929
     18          6           0       -2.226823   -1.340761   -0.330797
     19         16           0       -0.704814   -1.930071    0.615813
     20          6           0       -0.188987   -0.118071    1.071069
     21          6           0        1.249963    0.092796    0.522185
     22          6           0        2.206834   -0.703320    1.426336
     23          6           0        3.710588   -0.491386    1.196453
     24          6           0        4.166869   -1.271837   -0.058094
     25          6           0        3.498802   -1.668455   -1.064142
     26          6           0       -3.597555   -1.375700    0.330878
     27          6           0       -4.007721   -2.199407    1.359936
     28          7           0       -5.307584   -2.364108    1.796083
     29          6           0       -6.277013   -1.697375    1.222851
     30          6           0       -6.030310   -0.869924    0.083418
     31          7           0       -6.950704   -0.230276   -0.667492
     32         16           0       -6.130176    0.420712   -1.924571
     33          7           0       -4.580940   -0.001095   -1.523054
     34          6           0       -4.672145   -0.724678   -0.386820
     35          1           0        6.474108   -3.318156   -0.676275
     36          1           0        7.417517    0.136621    0.418744
     37          1           0        6.390114   -0.399083    1.731674
     38          1           0        5.377203    1.369713   -0.556744
     39          1           0        6.046406    2.040408    0.928978
     40          1           0        4.032777    1.379363    2.147134
     41          1           0        3.235905    1.562315   -0.780333
     42          1           0        3.293992    2.908496    0.367828
     43          1           0        1.610865    1.670238    1.763480
     44          1           0        0.702957    3.286554    1.121800
     45          1           0        0.344562    3.712773   -1.754662
     46          1           0        1.368695    4.507285   -0.475476
     47          1           0       -2.495439    3.537676    0.375601
     48          1           0       -1.259143    3.762787    1.707663
     49          1           0       -1.060040    2.302103   -0.907074
     50          1           0       -2.090375    0.769853    1.323374
     51          1           0       -0.968376   -0.229539   -1.293943
     52          1           0       -2.471101    0.618460   -1.440677
     53          1           0       -2.336074   -2.046810   -1.167921
     54          1           0       -0.171283   -0.211870    2.159954
     55          1           0        1.292979   -0.342188   -0.481403
     56          1           0        1.982616   -1.771700    1.312085
     57          1           0        1.971513   -0.429243    2.465176
     58          1           0        4.249370   -0.837477    2.081393
     59          1           0        3.044499   -2.163829   -1.895535
     60          1           0       -3.272975   -2.806118    1.881740
     61          1           0       -7.293443   -1.829387    1.587934
 ---------------------------------------------------------------------
 Rotational constants (GHZ):      0.2294580      0.0556968      0.0501442
 Standard basis: 6-31++G(d,p) (6D, 7F)
 There are   794 symmetry adapted basis functions of A   symmetry.
 Integral buffers will be    131072 words long.
 Raffenetti 2 integral format.
 Two-electron integral symmetry is turned on.
   794 basis functions,  1328 primitive gaussians,   794 cartesian basis functions
   127 alpha electrons      127 beta electrons
       nuclear repulsion energy      3729.5574414039 Hartrees.
 NAtoms=   61 NActive=   61 NUniq=   61 SFac= 1.00D+00 NAtFMM=   60 NAOKFM=T Big=T
 One-electron integrals computed using PRISM.
 NBasis=   794 RedAO= T  NBF=   794
 NBsUse=   790 1.00D-06 NBFU=   790
 Initial guess read from the read-write file.
 B after Tr=    -0.000000    0.000000   -0.000000
         Rot=    1.000000   -0.000000   -0.000000   -0.000000 Ang=   0.00 deg.
 Initial guess orbital symmetries:
       Occupied  (A) (A) (A) (A) (A) (A) (A) (A) (A) (A) (A) (A)
                 (A) (A) (A) (A) (A) (A) (A) (A) (A) (A) (A) (A)
                 (A) (A) (A) (A) (A) (A) (A) (A) (A) (A) (A) (A)
                 (A) (A) (A) (A) (A) (A) (A) (A) (A) (A) (A) (A)
                 (A) (A) (A) (A) (A) (A) (A) (A) (A) (A) (A) (A)
                 (A) (A) (A) (A) (A) (A) (A) (A) (A) (A) (A) (A)
                 (A) (A) (A) (A) (A) (A) (A) (A) (A) (A) (A) (A)
                 (A) (A) (A) (A) (A) (A) (A) (A) (A) (A) (A) (A)
                 (A) (A) (A) (A) (A) (A) (A) (A) (A) (A) (A) (A)
                 (A) (A) (A) (A) (A) (A) (A) (A) (A) (A) (A) (A)
                 (A) (A) (A) (A) (A) (A) (A)
       Virtual   (A) (A) (A) (A) (A) (A) (A) (A) (A) (A) (A) (A)
                 (A) (A) (A) (A) (A) (A) (A) (A) (A) (A) (A) (A)
                 (A) (A) (A) (A) (A) (A) (A) (A) (A) (A) (A) (A)
                 (A) (A) (A) (A) (A) (A) (A) (A) (A) (A) (A) (A)
                 (A) (A) (A) (A) (A) (A) (A) (A) (A) (A) (A) (A)
                 (A) (A) (A) (A) (A) (A) (A) (A) (A) (A) (A) (A)
                 (A) (A) (A) (A) (A) (A) (A) (A) (A) (A) (A) (A)
                 (A) (A) (A) (A) (A) (A) (A) (A) (A) (A) (A) (A)
                 (A) (A) (A) (A) (A) (A) (A) (A) (A) (A) (A) (A)
                 (A) (A) (A) (A) (A) (A) (A) (A) (A) (A) (A) (A)
                 (A) (A) (A) (A) (A) (A) (A) (A) (A) (A) (A) (A)
                 (A) (A) (A) (A) (A) (A) (A) (A) (A) (A) (A) (A)
                 (A) (A) (A) (A) (A) (A) (A) (A) (A) (A) (A) (A)
                 (A) (A) (A) (A) (A) (A) (A) (A) (A) (A) (A) (A)
                 (A) (A) (A) (A) (A) (A) (A) (A) (A) (A) (A) (A)
                 (A) (A) (A) (A) (A) (A) (A) (A) (A) (A) (A) (A)
                 (A) (A) (A) (A) (A) (A) (A) (A) (A) (A) (A) (A)
                 (A) (A) (A) (A) (A) (A) (A) (A) (A) (A) (A) (A)
                 (A) (A) (A) (A) (A) (A) (A) (A) (A) (A) (A) (A)
                 (A) (A) (A) (A) (A) (A) (A) (A) (A) (A) (A) (A)
                 (A) (A) (A) (A) (A) (A) (A) (A) (A) (A) (A) (A)
                 (A) (A) (A) (A) (A) (A) (A) (A) (A) (A) (A) (A)
                 (A) (A) (A) (A) (A) (A) (A) (A) (A) (A) (A) (A)
                 (A) (A) (A) (A) (A) (A) (A) (A) (A) (A) (A) (A)
                 (A) (A) (A) (A) (A) (A) (A) (A) (A) (A) (A) (A)
                 (A) (A) (A) (A) (A) (A) (A) (A) (A) (A) (A) (A)
                 (A) (A) (A) (A) (A) (A) (A) (A) (A) (A) (A) (A)
                 (A) (A) (A) (A) (A) (A) (A) (A) (A) (A) (A) (A)
                 (A) (A) (A) (A) (A) (A) (A) (A) (A) (A) (A) (A)
                 (A) (A) (A) (A) (A) (A) (A) (A) (A) (A) (A) (A)
                 (A) (A) (A) (A) (A) (A) (A) (A) (A) (A) (A) (A)
                 (A) (A) (A) (A) (A) (A) (A) (A) (A) (A) (A) (A)
                 (A) (A) (A) (A) (A) (A) (A) (A) (A) (A) (A) (A)
                 (A) (A) (A) (A) (A) (A) (A) (A) (A) (A) (A) (A)
                 (A) (A) (A) (A) (A) (A) (A) (A) (A) (A) (A) (A)
                 (A) (A) (A) (A) (A) (A) (A) (A) (A) (A) (A) (A)
                 (A) (A) (A) (A) (A) (A) (A) (A) (A) (A) (A) (A)
                 (A) (A) (A) (A) (A) (A) (A) (A) (A) (A) (A) (A)
                 (A) (A) (A) (A) (A) (A) (A) (A) (A) (A) (A) (A)
                 (A) (A) (A) (A) (A) (A) (A) (A) (A) (A) (A) (A)
                 (A) (A) (A) (A) (A) (A) (A) (A) (A) (A) (A) (A)
                 (A) (A) (A) (A) (A) (A) (A) (A) (A) (A) (A) (A)
                 (A) (A) (A) (A) (A) (A) (A) (A) (A) (A) (A) (A)
                 (A) (A) (A) (A) (A) (A) (A) (A) (A) (A) (A) (A)
                 (A) (A) (A) (A) (A) (A) (A) (A) (A) (A) (A) (A)
                 (A) (A) (A) (A) (A) (A) (A) (A) (A) (A) (A) (A)
                 (A) (A) (A) (A) (A) (A) (A) (A) (A) (A) (A) (A)
                 (A) (A) (A) (A) (A) (A) (A) (A) (A) (A) (A) (A)
                 (A) (A) (A) (A) (A) (A) (A) (A) (A) (A) (A) (A)
                 (A) (A) (A) (A) (A) (A) (A) (A) (A) (A) (A) (A)
                 (A) (A) (A) (A) (A) (A) (A) (A) (A) (A) (A) (A)
                 (A) (A) (A) (A) (A) (A) (A) (A) (A) (A) (A) (A)
                 (A) (A) (A) (A) (A) (A) (A) (A) (A) (A) (A) (A)
                 (A) (A) (A) (A) (A) (A) (A) (A) (A) (A) (A) (A)
                 (A) (A) (A) (A) (A) (A) (A) (A) (A) (A) (A) (A)
                 (A) (A) (A)
 Harris functional with IExCor=  402 diagonalized for initial guess.
 ExpMin= 3.31D-02 ExpMax= 2.19D+04 ExpMxC= 3.30D+03 IAcc=3 IRadAn=         5 AccDes= 0.00D+00
 HarFok:  IExCor=  402 AccDes= 0.00D+00 IRadAn=         5 IDoV= 1
 ScaDFX=  1.000000  1.000000  1.000000  1.000000
 FoFCou: FMM=F IPFlag=           0 FMFlag=      100000 FMFlg1=        2001
         NFxFlg=           0 DoJE=T BraDBF=F KetDBF=T FulRan=T
         Omega=  0.000000  0.000000  1.000000  0.000000  0.000000 ICntrl=     500 IOpCl=  0
         NMat0=    1 NMatS0=    1 NMatT0=    0 NMatD0=    1 NMtDS0=    0 NMtDT0=    0
         I1Cent=           4 NGrid=           0.
 Petite list used in FoFCou.
 Requested convergence on RMS density matrix=1.00D-08 within 128 cycles.
 Requested convergence on MAX density matrix=1.00D-06.
 Requested convergence on             energy=1.00D-06.
 No special actions if energy rises.
 Restarting incremental Fock formation.
 Restarting incremental Fock formation.
 Restarting incremental Fock formation.
 SCF Done:  E(RB3LYP) =  -2295.15783770     A.U. after   65 cycles
             Convg  =    0.9339D-08             -V/T =  2.0066
 Calling FoFJK, ICntrl=      2127 FMM=T ISym2X=0 I1Cent= 0 IOpClX= 0 NMat=1 NMatS=1 NMatT=0.
 ***** Axes restored to original set *****
 -------------------------------------------------------------------
 Center     Atomic                   Forces (Hartrees/Bohr)
 Number     Number              X              Y              Z
 -------------------------------------------------------------------
      1       14           0.002656795    0.002909781   -0.009922990
      2        1           0.003055019   -0.004446504   -0.002834729
      3        1          -0.006624743    0.000834704    0.001994473
      4        6          -0.008914719   -0.004726983   -0.008037552
      5        6           0.004640114    0.010249956   -0.008023479
      6        6          -0.001211670    0.008259590    0.008263928
      7        6          -0.002407264   -0.003383136    0.008413505
      8        6          -0.000926077    0.001562551   -0.005443703
      9        6          -0.005545218   -0.009981522    0.002293547
     10        6           0.008665011    0.005724929    0.000055834
     11        6           0.009346541    0.011121134   -0.015582071
     12        6           0.006424093    0.005076296   -0.002106771
     13        8           0.005095305   -0.000696465    0.003133761
     14        6          -0.008524240   -0.025054460   -0.007067357
     15        6           0.009069129    0.006169870   -0.000633640
     16        6          -0.001811704   -0.015910577   -0.010097861
     17        6           0.008290281   -0.008839941    0.056860791
     18        6          -0.017843906    0.018170402   -0.015165999
     19       16           0.004630229    0.000924286   -0.022239436
     20        6          -0.028052664    0.003984783    0.020089042
     21        6          -0.006088694    0.009149076   -0.004382484
     22        6          -0.007864566    0.006193813    0.002436927
     23        6          -0.005414649   -0.010514598   -0.004986978
     24        6           0.021265985    0.010473868    0.007355330
     25        6          -0.011700043   -0.021230509    0.022688118
     26        6          -0.015692560   -0.002010617   -0.004137581
     27        6           0.002474830   -0.002336627   -0.001000876
     28        7           0.005055598    0.002924120    0.001609033
     29        6          -0.002333700   -0.002308540   -0.000588713
     30        6           0.003908685   -0.001194726   -0.003699515
     31        7          -0.005610527    0.003751484    0.007898519
     32       16           0.005978728    0.001662383    0.003445219
     33        7          -0.008927958    0.003086527   -0.009624807
     34        6           0.001579562    0.000231451    0.000132411
     35        1           0.002136175    0.002777697    0.002488952
     36        1           0.000299939   -0.001516013   -0.000991958
     37        1           0.005908846   -0.002945690   -0.000206618
     38        1           0.002949206   -0.000409218    0.002924202
     39        1           0.001169367    0.001706545   -0.004437800
     40        1           0.002129752   -0.002699030    0.002780411
     41        1           0.002612838   -0.000163469   -0.002028810
     42        1          -0.000717909    0.000563907    0.003179909
     43        1          -0.000044507   -0.003078205    0.003757087
     44        1          -0.006539067    0.009889963    0.001397817
     45        1          -0.003772568   -0.003147087    0.011007065
     46        1           0.002524900   -0.008194219   -0.004515923
     47        1           0.008870353    0.005121315   -0.003842915
     48        1          -0.006912844    0.007560828   -0.001557115
     49        1          -0.011219778   -0.002082868   -0.000004240
     50        1           0.004647243    0.000184653   -0.004276242
     51        1           0.017938093   -0.010762371   -0.005140692
     52        1          -0.001122971    0.012119989   -0.009724603
     53        1           0.007779142   -0.004811797    0.003273749
     54        1           0.011123667   -0.001328338   -0.003060267
     55        1           0.007612464   -0.005704591   -0.001801223
     56        1           0.001735134    0.002911834    0.001419598
     57        1          -0.000159080    0.000049229    0.001668402
     58        1          -0.008780577    0.000149272    0.003704112
     59        1           0.001842697    0.003172705   -0.007434763
     60        1           0.001456347    0.000364808   -0.000276179
     61        1          -0.000107864    0.000444347    0.000604146
 -------------------------------------------------------------------
 Cartesian Forces:  Max     0.056860791 RMS     0.008690838

 GradGradGradGradGradGradGradGradGradGradGradGradGradGradGradGradGradGrad
 Berny optimization.
 Using GEDIIS/GDIIS optimizer.
 NTrRot=    -1 NTRed=   445 NAtoms=    61 NSkip=   268 IsLin=F
 Error in internal coordinate system.
 Error termination via Lnk1e in /opt/gaussian/g09/l103.exe at Sun Dec 29 19:43:34 2013.
 Job cpu time:  3 days  2 hours  1 minutes 12.7 seconds.
 File lengths (MBytes):  RWF=    409 Int=      0 D2E=      0 Chk=     45 Scr=      1
