 Entering Gaussian System, Link 0=g09
 Initial command:
 /opt/gaussian/g09/l1.exe /panfs/panfs.cluster/home/shuo/Gau-3533.inp -scrdir=/panfs/panfs.cluster/home/shuo/
 Default is to use a total of  12 processors:
                               12 via shared-memory
                                1 via Linda
 Entering Link 1 = /opt/gaussian/g09/l1.exe PID=      3534.
  
 Copyright (c) 1988,1990,1992,1993,1995,1998,2003,2009,2011,
            Gaussian, Inc.  All Rights Reserved.
  
 This is part of the Gaussian(R) 09 program.  It is based on
 the Gaussian(R) 03 system (copyright 2003, Gaussian, Inc.),
 the Gaussian(R) 98 system (copyright 1998, Gaussian, Inc.),
 the Gaussian(R) 94 system (copyright 1995, Gaussian, Inc.),
 the Gaussian 92(TM) system (copyright 1992, Gaussian, Inc.),
 the Gaussian 90(TM) system (copyright 1990, Gaussian, Inc.),
 the Gaussian 88(TM) system (copyright 1988, Gaussian, Inc.),
 the Gaussian 86(TM) system (copyright 1986, Carnegie Mellon
 University), and the Gaussian 82(TM) system (copyright 1983,
 Carnegie Mellon University). Gaussian is a federally registered
 trademark of Gaussian, Inc.
  
 This software contains proprietary and confidential information,
 including trade secrets, belonging to Gaussian, Inc.
  
 This software is provided under written license and may be
 used, copied, transmitted, or stored only in accord with that
 written license.
  
 The following legend is applicable only to US Government
 contracts under FAR:
  
                    RESTRICTED RIGHTS LEGEND
  
 Use, reproduction and disclosure by the US Government is
 subject to restrictions as set forth in subparagraphs (a)
 and (c) of the Commercial Computer Software - Restricted
 Rights clause in FAR 52.227-19.
  
 Gaussian, Inc.
 340 Quinnipiac St., Bldg. 40, Wallingford CT 06492
  
  
 ---------------------------------------------------------------
 Warning -- This program may not be used in any manner that
 competes with the business of Gaussian, Inc. or will provide
 assistance to any competitor of Gaussian, Inc.  The licensee
 of this program is prohibited from giving any competitor of
 Gaussian, Inc. access to this program.  By using this program,
 the user acknowledges that Gaussian, Inc. is engaged in the
 business of creating and licensing software in the field of
 computational chemistry and represents and warrants to the
 licensee that it is not a competitor of Gaussian, Inc. and that
 it will not use this program in any manner prohibited above.
 ---------------------------------------------------------------
  

 Cite this work as:
 Gaussian 09, Revision C.01,
 M. J. Frisch, G. W. Trucks, H. B. Schlegel, G. E. Scuseria, 
 M. A. Robb, J. R. Cheeseman, G. Scalmani, V. Barone, B. Mennucci, 
 G. A. Petersson, H. Nakatsuji, M. Caricato, X. Li, H. P. Hratchian, 
 A. F. Izmaylov, J. Bloino, G. Zheng, J. L. Sonnenberg, M. Hada, 
 M. Ehara, K. Toyota, R. Fukuda, J. Hasegawa, M. Ishida, T. Nakajima, 
 Y. Honda, O. Kitao, H. Nakai, T. Vreven, J. A. Montgomery, Jr., 
 J. E. Peralta, F. Ogliaro, M. Bearpark, J. J. Heyd, E. Brothers, 
 K. N. Kudin, V. N. Staroverov, T. Keith, R. Kobayashi, J. Normand, 
 K. Raghavachari, A. Rendell, J. C. Burant, S. S. Iyengar, J. Tomasi, 
 M. Cossi, N. Rega, J. M. Millam, M. Klene, J. E. Knox, J. B. Cross, 
 V. Bakken, C. Adamo, J. Jaramillo, R. Gomperts, R. E. Stratmann, 
 O. Yazyev, A. J. Austin, R. Cammi, C. Pomelli, J. W. Ochterski, 
 R. L. Martin, K. Morokuma, V. G. Zakrzewski, G. A. Voth, 
 P. Salvador, J. J. Dannenberg, S. Dapprich, A. D. Daniels, 
 O. Farkas, J. B. Foresman, J. V. Ortiz, J. Cioslowski, 
 and D. J. Fox, Gaussian, Inc., Wallingford CT, 2010.
 
 ******************************************
 Gaussian 09:  EM64L-G09RevC.01 23-Sep-2011
                29-Dec-2013 
 ******************************************
 %chk=33_C16H9N5S2Se.chk
 %NProcShared=12
 Will use up to   12 processors via shared memory.
 %Mem=8000MB
 Default route:  MaxDisk=100GB
 --------------------------------------------
 #B3LYP/6-31++G(d,p) opt scf=direct freq test
 --------------------------------------------
 1/14=-1,18=20,19=15,26=3,38=1/1,3;
 2/9=110,12=2,17=6,18=5,40=1/2;
 3/5=1,6=6,7=1111,11=2,16=1,25=1,30=1,71=1,74=-5/1,2,3;
 4//1;
 5/5=2,38=5/2;
 6/7=2,8=2,9=2,10=2,28=1/1;
 7//1,2,3,16;
 1/14=-1,18=20,19=15/3(2);
 2/9=110/2;
 99//99;
 2/9=110/2;
 3/5=1,6=6,7=1111,11=2,16=1,25=1,30=1,71=1,74=-5/1,2,3;
 4/5=5,16=3/1;
 5/5=2,38=5/2;
 7//1,2,3,16;
 1/14=-1,18=20,19=15/3(-5);
 2/9=110/2;
 6/7=2,8=2,9=2,10=2,19=2,28=1/1;
 99/9=1/99;
 ----------------------------------------------------------------------
 Geom opt of No.33 candidate from the CEPDB database with SMILE code of
  [SiH2]1C=c2c3cc(sc3c3c4nsnc4c4ccc5nsnc5c4c3c2=C1)-c1ccccn1, HPC, 2013
 1227, Shuo Dai, Gaussian09
 ----------------------------------------------------------------------
 Charge =  0 Multiplicity = 1
 Symbolic Z-Matrix:
 Si                    1.75638   0.9865   -0.89217 
 H                     0.70463   0.36399  -1.86395 
 H                     0.70358   1.86874  -0.02296 
 C                     2.6252    0.37372   0.87609 
 C                     1.95461  -0.77218   1.17077 
 C                     0.54187  -1.0884    0.99612 
 C                    -0.58658  -0.48285   0.33144 
 C                    -1.78442  -1.06738   0.61021 
 S                    -1.52838  -2.38537   1.58298 
 C                     0.18753  -2.27724   1.55066 
 C                     1.11266  -3.26379   2.14225 
 C                     0.42856  -4.19529   2.9678 
 N                    -0.89251  -4.41244   3.12331 
 S                    -1.15377  -5.69209   4.07833 
 N                     0.40047  -5.94711   4.46721 
 C                     1.16484  -5.04204   3.83552 
 C                     2.56084  -4.86106   3.9853 
 C                     3.15641  -4.84033   5.22518 
 C                     2.80164  -5.92651   5.97577 
 C                     4.01134  -6.36883   5.58131 
 N                     5.03698  -6.67274   6.39079 
 S                     5.09938  -8.22416   5.82169 
 N                     4.12187  -7.8387    4.08652 
 C                     4.21491  -6.30301   3.84625 
 C                     3.35497  -4.89682   2.88249 
 C                     2.63563  -3.46235   1.92634 
 C                     2.85535  -1.88776   0.76817 
 C                     2.87759  -1.08916  -0.65988 
 C                    -3.10846  -0.70174   0.16812 
 C                    -4.05018  -1.69256  -0.05078 
 C                    -5.20745  -1.35504  -0.70809 
 C                    -5.46311  -0.01809  -0.95859 
 C                    -4.54261   0.92959  -0.53966 
 N                    -3.32494   0.61539  -0.06127 
 H                     3.76227   0.3365    0.71918 
 H                    -0.66182   0.37203  -0.31555 
 H                     4.28824  -4.5483    5.064 
 H                     2.04446  -6.64577   5.55695 
 H                     3.3489    0.04025  -1.04853 
 H                    -3.86793  -2.71434   0.25741 
 H                    -5.9001   -2.13345  -0.99726 
 H                    -6.38516   0.26837  -1.44176 
 H                    -4.78692   1.98685  -0.5569 
 

 GradGradGradGradGradGradGradGradGradGradGradGradGradGradGradGradGradGrad
 Berny optimization.
 Initialization pass.
                           ----------------------------
                           !    Initial Parameters    !
                           ! (Angstroms and Degrees)  !
 --------------------------                            --------------------------
 ! Name  Definition              Value          Derivative Info.                !
 --------------------------------------------------------------------------------
 ! R1    R(1,2)                  1.5614         estimate D2E/DX2                !
 ! R2    R(1,3)                  1.6255         estimate D2E/DX2                !
 ! R3    R(1,4)                  2.0633         estimate D2E/DX2                !
 ! R4    R(1,39)                 1.859          estimate D2E/DX2                !
 ! R5    R(4,5)                  1.36           estimate D2E/DX2                !
 ! R6    R(4,35)                 1.1484         estimate D2E/DX2                !
 ! R7    R(5,6)                  1.4582         estimate D2E/DX2                !
 ! R8    R(5,27)                 1.4893         estimate D2E/DX2                !
 ! R9    R(6,7)                  1.4429         estimate D2E/DX2                !
 ! R10   R(6,10)                 1.3588         estimate D2E/DX2                !
 ! R11   R(7,8)                  1.3617         estimate D2E/DX2                !
 ! R12   R(7,36)                 1.0747         estimate D2E/DX2                !
 ! R13   R(8,9)                  1.658          estimate D2E/DX2                !
 ! R14   R(8,29)                 1.443          estimate D2E/DX2                !
 ! R15   R(9,10)                 1.7196         estimate D2E/DX2                !
 ! R16   R(10,11)                1.4762         estimate D2E/DX2                !
 ! R17   R(11,12)                1.4203         estimate D2E/DX2                !
 ! R18   R(11,26)                1.551          estimate D2E/DX2                !
 ! R19   R(12,13)                1.3478         estimate D2E/DX2                !
 ! R20   R(12,16)                1.4185         estimate D2E/DX2                !
 ! R21   R(13,14)                1.618          estimate D2E/DX2                !
 ! R22   R(14,15)                1.6223         estimate D2E/DX2                !
 ! R23   R(15,16)                1.3426         estimate D2E/DX2                !
 ! R24   R(16,17)                1.4156         estimate D2E/DX2                !
 ! R25   R(17,18)                1.3757         estimate D2E/DX2                !
 ! R26   R(17,25)                1.3595         estimate D2E/DX2                !
 ! R27   R(18,19)                1.3671         estimate D2E/DX2                !
 ! R28   R(18,20)                1.7872         estimate D2E/DX2                !
 ! R29   R(18,37)                1.18           estimate D2E/DX2                !
 ! R30   R(19,20)                1.3471         estimate D2E/DX2                !
 ! R31   R(19,38)                1.1252         estimate D2E/DX2                !
 ! R32   R(20,21)                1.3415         estimate D2E/DX2                !
 ! R33   R(20,22)                2.1642         estimate D2E/DX2                !
 ! R34   R(20,24)                1.7482         estimate D2E/DX2                !
 ! R35   R(21,22)                1.6537         estimate D2E/DX2                !
 ! R36   R(22,23)                2.0285         estimate D2E/DX2                !
 ! R37   R(23,24)                1.5572         estimate D2E/DX2                !
 ! R38   R(24,25)                1.9094         estimate D2E/DX2                !
 ! R39   R(25,26)                1.868          estimate D2E/DX2                !
 ! R40   R(26,27)                1.967          estimate D2E/DX2                !
 ! R41   R(27,28)                1.6363         estimate D2E/DX2                !
 ! R42   R(28,39)                1.284          estimate D2E/DX2                !
 ! R43   R(29,30)                1.3844         estimate D2E/DX2                !
 ! R44   R(29,34)                1.3544         estimate D2E/DX2                !
 ! R45   R(30,31)                1.373          estimate D2E/DX2                !
 ! R46   R(30,40)                1.0827         estimate D2E/DX2                !
 ! R47   R(31,32)                1.384          estimate D2E/DX2                !
 ! R48   R(31,41)                1.0813         estimate D2E/DX2                !
 ! R49   R(32,33)                1.386          estimate D2E/DX2                !
 ! R50   R(32,42)                1.0797         estimate D2E/DX2                !
 ! R51   R(33,34)                1.3455         estimate D2E/DX2                !
 ! R52   R(33,43)                1.0853         estimate D2E/DX2                !
 ! A1    A(2,1,3)               96.4836         estimate D2E/DX2                !
 ! A2    A(2,1,4)              134.3157         estimate D2E/DX2                !
 ! A3    A(2,1,39)             108.7685         estimate D2E/DX2                !
 ! A4    A(3,1,4)               88.6045         estimate D2E/DX2                !
 ! A5    A(3,1,39)             151.1714         estimate D2E/DX2                !
 ! A6    A(4,1,39)              63.9081         estimate D2E/DX2                !
 ! A7    A(1,4,5)              103.1972         estimate D2E/DX2                !
 ! A8    A(1,4,35)             108.026          estimate D2E/DX2                !
 ! A9    A(5,4,35)             119.3728         estimate D2E/DX2                !
 ! A10   A(4,5,6)              129.381          estimate D2E/DX2                !
 ! A11   A(4,5,27)             105.9234         estimate D2E/DX2                !
 ! A12   A(6,5,27)             113.0257         estimate D2E/DX2                !
 ! A13   A(5,6,7)              136.2089         estimate D2E/DX2                !
 ! A14   A(5,6,10)             113.1718         estimate D2E/DX2                !
 ! A15   A(7,6,10)             110.5629         estimate D2E/DX2                !
 ! A16   A(6,7,8)              114.4256         estimate D2E/DX2                !
 ! A17   A(6,7,36)             131.751          estimate D2E/DX2                !
 ! A18   A(8,7,36)             113.7727         estimate D2E/DX2                !
 ! A19   A(7,8,9)              108.9963         estimate D2E/DX2                !
 ! A20   A(7,8,29)             129.4691         estimate D2E/DX2                !
 ! A21   A(9,8,29)             121.5256         estimate D2E/DX2                !
 ! A22   A(8,9,10)              95.3409         estimate D2E/DX2                !
 ! A23   A(6,10,9)             108.8379         estimate D2E/DX2                !
 ! A24   A(6,10,11)            125.791          estimate D2E/DX2                !
 ! A25   A(9,10,11)            125.1554         estimate D2E/DX2                !
 ! A26   A(10,11,12)           111.6783         estimate D2E/DX2                !
 ! A27   A(10,11,26)           130.1779         estimate D2E/DX2                !
 ! A28   A(12,11,26)           118.0292         estimate D2E/DX2                !
 ! A29   A(11,12,13)           130.154          estimate D2E/DX2                !
 ! A30   A(11,12,16)           119.8062         estimate D2E/DX2                !
 ! A31   A(13,12,16)           109.9997         estimate D2E/DX2                !
 ! A32   A(12,13,14)           110.72           estimate D2E/DX2                !
 ! A33   A(13,14,15)            96.3796         estimate D2E/DX2                !
 ! A34   A(14,15,16)           109.0681         estimate D2E/DX2                !
 ! A35   A(12,16,15)           113.2492         estimate D2E/DX2                !
 ! A36   A(12,16,17)           120.0185         estimate D2E/DX2                !
 ! A37   A(15,16,17)           126.716          estimate D2E/DX2                !
 ! A38   A(16,17,18)           121.6157         estimate D2E/DX2                !
 ! A39   A(16,17,25)           119.1345         estimate D2E/DX2                !
 ! A40   A(18,17,25)           118.5969         estimate D2E/DX2                !
 ! A41   A(17,18,19)           111.7476         estimate D2E/DX2                !
 ! A42   A(17,18,20)           111.951          estimate D2E/DX2                !
 ! A43   A(17,18,37)           107.2109         estimate D2E/DX2                !
 ! A44   A(19,18,37)           121.3688         estimate D2E/DX2                !
 ! A45   A(20,18,37)            77.2929         estimate D2E/DX2                !
 ! A46   A(18,19,38)           118.5637         estimate D2E/DX2                !
 ! A47   A(20,19,38)           106.5836         estimate D2E/DX2                !
 ! A48   A(18,20,21)           132.8233         estimate D2E/DX2                !
 ! A49   A(18,20,24)            79.964          estimate D2E/DX2                !
 ! A50   A(19,20,21)           125.7521         estimate D2E/DX2                !
 ! A51   A(19,20,22)           134.4619         estimate D2E/DX2                !
 ! A52   A(19,20,24)           112.5093         estimate D2E/DX2                !
 ! A53   A(21,20,24)           121.2243         estimate D2E/DX2                !
 ! A54   A(22,20,24)            94.8168         estimate D2E/DX2                !
 ! A55   A(20,22,23)            59.9889         estimate D2E/DX2                !
 ! A56   A(21,22,23)            95.6194         estimate D2E/DX2                !
 ! A57   A(22,23,24)           106.8935         estimate D2E/DX2                !
 ! A58   A(20,24,23)            78.625          estimate D2E/DX2                !
 ! A59   A(20,24,25)           118.4402         estimate D2E/DX2                !
 ! A60   A(23,24,25)           141.013          estimate D2E/DX2                !
 ! A61   A(17,25,24)            82.7037         estimate D2E/DX2                !
 ! A62   A(17,25,26)            99.7924         estimate D2E/DX2                !
 ! A63   A(11,26,25)           113.9033         estimate D2E/DX2                !
 ! A64   A(11,26,27)            95.116          estimate D2E/DX2                !
 ! A65   A(25,26,27)           150.8217         estimate D2E/DX2                !
 ! A66   A(5,27,26)            111.8953         estimate D2E/DX2                !
 ! A67   A(5,27,28)             83.0249         estimate D2E/DX2                !
 ! A68   A(26,27,28)           154.9673         estimate D2E/DX2                !
 ! A69   A(27,28,39)           134.2997         estimate D2E/DX2                !
 ! A70   A(8,29,30)            119.4237         estimate D2E/DX2                !
 ! A71   A(8,29,34)            116.4218         estimate D2E/DX2                !
 ! A72   A(30,29,34)           124.0924         estimate D2E/DX2                !
 ! A73   A(29,30,31)           118.2364         estimate D2E/DX2                !
 ! A74   A(29,30,40)           121.0599         estimate D2E/DX2                !
 ! A75   A(31,30,40)           120.6728         estimate D2E/DX2                !
 ! A76   A(30,31,32)           118.672          estimate D2E/DX2                !
 ! A77   A(30,31,41)           119.403          estimate D2E/DX2                !
 ! A78   A(32,31,41)           121.9138         estimate D2E/DX2                !
 ! A79   A(31,32,33)           118.8889         estimate D2E/DX2                !
 ! A80   A(31,32,42)           119.6728         estimate D2E/DX2                !
 ! A81   A(33,32,42)           121.4024         estimate D2E/DX2                !
 ! A82   A(32,33,34)           123.2891         estimate D2E/DX2                !
 ! A83   A(32,33,43)           120.7846         estimate D2E/DX2                !
 ! A84   A(34,33,43)           115.9051         estimate D2E/DX2                !
 ! A85   A(29,34,33)           115.5932         estimate D2E/DX2                !
 ! A86   A(1,39,28)             96.1895         estimate D2E/DX2                !
 ! A87   L(18,20,22,24,-1)     174.7808         estimate D2E/DX2                !
 ! A88   L(24,25,26,17,-1)     182.4961         estimate D2E/DX2                !
 ! A89   L(18,20,22,24,-2)     179.467          estimate D2E/DX2                !
 ! A90   L(24,25,26,17,-2)     176.6178         estimate D2E/DX2                !
 ! D1    D(2,1,4,5)             -6.0779         estimate D2E/DX2                !
 ! D2    D(2,1,4,35)           121.231          estimate D2E/DX2                !
 ! D3    D(3,1,4,5)             91.6276         estimate D2E/DX2                !
 ! D4    D(3,1,4,35)          -141.0636         estimate D2E/DX2                !
 ! D5    D(39,1,4,5)           -97.3697         estimate D2E/DX2                !
 ! D6    D(39,1,4,35)           29.9392         estimate D2E/DX2                !
 ! D7    D(2,1,39,28)          -61.8409         estimate D2E/DX2                !
 ! D8    D(3,1,39,28)           88.0097         estimate D2E/DX2                !
 ! D9    D(4,1,39,28)           69.0908         estimate D2E/DX2                !
 ! D10   D(1,4,5,6)            -38.24           estimate D2E/DX2                !
 ! D11   D(1,4,5,27)           101.2617         estimate D2E/DX2                !
 ! D12   D(35,4,5,6)          -158.023          estimate D2E/DX2                !
 ! D13   D(35,4,5,27)          -18.5213         estimate D2E/DX2                !
 ! D14   D(4,5,6,7)             10.5815         estimate D2E/DX2                !
 ! D15   D(4,5,6,10)          -172.501          estimate D2E/DX2                !
 ! D16   D(27,5,6,7)          -126.6866         estimate D2E/DX2                !
 ! D17   D(27,5,6,10)           50.2308         estimate D2E/DX2                !
 ! D18   D(4,5,27,26)          147.7776         estimate D2E/DX2                !
 ! D19   D(4,5,27,28)          -53.0563         estimate D2E/DX2                !
 ! D20   D(6,5,27,26)          -65.276          estimate D2E/DX2                !
 ! D21   D(6,5,27,28)           93.8902         estimate D2E/DX2                !
 ! D22   D(5,6,7,8)           -170.9894         estimate D2E/DX2                !
 ! D23   D(5,6,7,36)             6.2118         estimate D2E/DX2                !
 ! D24   D(10,6,7,8)            12.0372         estimate D2E/DX2                !
 ! D25   D(10,6,7,36)         -170.7616         estimate D2E/DX2                !
 ! D26   D(5,6,10,9)           167.9991         estimate D2E/DX2                !
 ! D27   D(5,6,10,11)           -6.8711         estimate D2E/DX2                !
 ! D28   D(7,6,10,9)           -14.2788         estimate D2E/DX2                !
 ! D29   D(7,6,10,11)          170.8511         estimate D2E/DX2                !
 ! D30   D(6,7,8,9)             -3.5361         estimate D2E/DX2                !
 ! D31   D(6,7,8,29)           177.5619         estimate D2E/DX2                !
 ! D32   D(36,7,8,9)           178.7452         estimate D2E/DX2                !
 ! D33   D(36,7,8,29)           -0.1568         estimate D2E/DX2                !
 ! D34   D(7,8,9,10)            -4.1953         estimate D2E/DX2                !
 ! D35   D(29,8,9,10)          174.8103         estimate D2E/DX2                !
 ! D36   D(7,8,29,30)          146.5439         estimate D2E/DX2                !
 ! D37   D(7,8,29,34)          -30.7086         estimate D2E/DX2                !
 ! D38   D(9,8,29,30)          -32.2381         estimate D2E/DX2                !
 ! D39   D(9,8,29,34)          150.5094         estimate D2E/DX2                !
 ! D40   D(8,9,10,6)            11.0958         estimate D2E/DX2                !
 ! D41   D(8,9,10,11)         -173.9935         estimate D2E/DX2                !
 ! D42   D(6,10,11,12)         162.9324         estimate D2E/DX2                !
 ! D43   D(6,10,11,26)         -21.1078         estimate D2E/DX2                !
 ! D44   D(9,10,11,12)         -11.1267         estimate D2E/DX2                !
 ! D45   D(9,10,11,26)         164.8331         estimate D2E/DX2                !
 ! D46   D(10,11,12,13)         10.4115         estimate D2E/DX2                !
 ! D47   D(10,11,12,16)       -167.037          estimate D2E/DX2                !
 ! D48   D(26,11,12,13)       -166.0922         estimate D2E/DX2                !
 ! D49   D(26,11,12,16)         16.4593         estimate D2E/DX2                !
 ! D50   D(10,11,26,25)       -178.4604         estimate D2E/DX2                !
 ! D51   D(10,11,26,27)          4.6597         estimate D2E/DX2                !
 ! D52   D(12,11,26,25)         -2.7141         estimate D2E/DX2                !
 ! D53   D(12,11,26,27)       -179.594          estimate D2E/DX2                !
 ! D54   D(11,12,13,14)        174.3725         estimate D2E/DX2                !
 ! D55   D(16,12,13,14)         -7.9834         estimate D2E/DX2                !
 ! D56   D(11,12,16,15)       -174.552          estimate D2E/DX2                !
 ! D57   D(11,12,16,17)          6.8191         estimate D2E/DX2                !
 ! D58   D(13,12,16,15)          7.5231         estimate D2E/DX2                !
 ! D59   D(13,12,16,17)       -171.1059         estimate D2E/DX2                !
 ! D60   D(12,13,14,15)          5.4254         estimate D2E/DX2                !
 ! D61   D(13,14,15,16)         -0.9916         estimate D2E/DX2                !
 ! D62   D(14,15,16,12)         -3.5516         estimate D2E/DX2                !
 ! D63   D(14,15,16,17)        174.9674         estimate D2E/DX2                !
 ! D64   D(12,16,17,18)        133.2077         estimate D2E/DX2                !
 ! D65   D(12,16,17,25)        -56.1853         estimate D2E/DX2                !
 ! D66   D(15,16,17,18)        -45.2208         estimate D2E/DX2                !
 ! D67   D(15,16,17,25)        125.3863         estimate D2E/DX2                !
 ! D68   D(16,17,18,19)         51.3863         estimate D2E/DX2                !
 ! D69   D(16,17,18,20)        103.7337         estimate D2E/DX2                !
 ! D70   D(16,17,18,37)       -173.3566         estimate D2E/DX2                !
 ! D71   D(25,17,18,19)       -119.2696         estimate D2E/DX2                !
 ! D72   D(25,17,18,20)        -66.9223         estimate D2E/DX2                !
 ! D73   D(25,17,18,37)         15.9874         estimate D2E/DX2                !
 ! D74   D(16,17,25,24)       -122.4763         estimate D2E/DX2                !
 ! D75   D(16,17,25,26)         60.906          estimate D2E/DX2                !
 ! D76   D(18,17,25,24)         48.4159         estimate D2E/DX2                !
 ! D77   D(18,17,25,26)       -128.2018         estimate D2E/DX2                !
 ! D78   D(17,18,19,38)         -4.1768         estimate D2E/DX2                !
 ! D79   D(37,18,19,38)       -132.223          estimate D2E/DX2                !
 ! D80   D(17,18,20,21)        155.1635         estimate D2E/DX2                !
 ! D81   D(17,18,20,24)         31.5391         estimate D2E/DX2                !
 ! D82   D(37,18,20,21)         51.5042         estimate D2E/DX2                !
 ! D83   D(37,18,20,24)        -72.1202         estimate D2E/DX2                !
 ! D84   D(17,18,22,23)          1.5963         estimate D2E/DX2                !
 ! D85   D(37,18,22,23)       -102.0278         estimate D2E/DX2                !
 ! D86   D(38,19,20,21)       -123.3439         estimate D2E/DX2                !
 ! D87   D(38,19,20,22)        -57.4276         estimate D2E/DX2                !
 ! D88   D(38,19,20,24)         64.8515         estimate D2E/DX2                !
 ! D89   D(19,20,22,23)         99.8458         estimate D2E/DX2                !
 ! D90   D(24,20,22,23)        -28.5429         estimate D2E/DX2                !
 ! D91   D(18,20,24,23)       -147.1794         estimate D2E/DX2                !
 ! D92   D(18,20,24,25)         -4.7388         estimate D2E/DX2                !
 ! D93   D(19,20,24,23)       -109.3776         estimate D2E/DX2                !
 ! D94   D(19,20,24,25)         33.063          estimate D2E/DX2                !
 ! D95   D(21,20,24,23)         78.3974         estimate D2E/DX2                !
 ! D96   D(21,20,24,25)       -139.162          estimate D2E/DX2                !
 ! D97   D(22,20,24,23)         33.3536         estimate D2E/DX2                !
 ! D98   D(22,20,24,25)        175.7942         estimate D2E/DX2                !
 ! D99   D(20,22,23,24)         33.9627         estimate D2E/DX2                !
 ! D100  D(21,22,23,24)         19.3737         estimate D2E/DX2                !
 ! D101  D(22,23,24,20)        -37.6526         estimate D2E/DX2                !
 ! D102  D(22,23,24,25)       -159.2254         estimate D2E/DX2                !
 ! D103  D(20,24,25,17)        -21.4708         estimate D2E/DX2                !
 ! D104  D(23,24,25,17)         86.7466         estimate D2E/DX2                !
 ! D105  D(20,24,26,11)        -54.3257         estimate D2E/DX2                !
 ! D106  D(20,24,26,27)        118.0557         estimate D2E/DX2                !
 ! D107  D(23,24,26,11)         56.4715         estimate D2E/DX2                !
 ! D108  D(23,24,26,27)       -131.1471         estimate D2E/DX2                !
 ! D109  D(17,25,26,11)        -32.6177         estimate D2E/DX2                !
 ! D110  D(17,25,26,27)        140.9979         estimate D2E/DX2                !
 ! D111  D(11,26,27,5)          34.6032         estimate D2E/DX2                !
 ! D112  D(11,26,27,28)        -88.8525         estimate D2E/DX2                !
 ! D113  D(25,26,27,5)        -139.5385         estimate D2E/DX2                !
 ! D114  D(25,26,27,28)         97.0057         estimate D2E/DX2                !
 ! D115  D(5,27,28,39)          67.6418         estimate D2E/DX2                !
 ! D116  D(26,27,28,39)       -163.6098         estimate D2E/DX2                !
 ! D117  D(27,28,39,1)         -97.1101         estimate D2E/DX2                !
 ! D118  D(8,29,30,31)        -167.7549         estimate D2E/DX2                !
 ! D119  D(8,29,30,40)          10.2358         estimate D2E/DX2                !
 ! D120  D(34,29,30,31)          9.2738         estimate D2E/DX2                !
 ! D121  D(34,29,30,40)       -172.7355         estimate D2E/DX2                !
 ! D122  D(8,29,34,33)         176.6488         estimate D2E/DX2                !
 ! D123  D(30,29,34,33)         -0.4613         estimate D2E/DX2                !
 ! D124  D(29,30,31,32)         -8.6953         estimate D2E/DX2                !
 ! D125  D(29,30,31,41)        172.5023         estimate D2E/DX2                !
 ! D126  D(40,30,31,32)        173.3059         estimate D2E/DX2                !
 ! D127  D(40,30,31,41)         -5.4965         estimate D2E/DX2                !
 ! D128  D(30,31,32,33)          0.102          estimate D2E/DX2                !
 ! D129  D(30,31,32,42)       -177.7516         estimate D2E/DX2                !
 ! D130  D(41,31,32,33)        178.8729         estimate D2E/DX2                !
 ! D131  D(41,31,32,42)          1.0192         estimate D2E/DX2                !
 ! D132  D(31,32,33,34)          9.2989         estimate D2E/DX2                !
 ! D133  D(31,32,33,43)       -168.9551         estimate D2E/DX2                !
 ! D134  D(42,32,33,34)       -172.8861         estimate D2E/DX2                !
 ! D135  D(42,32,33,43)          8.86           estimate D2E/DX2                !
 ! D136  D(32,33,34,29)         -8.9524         estimate D2E/DX2                !
 ! D137  D(43,33,34,29)        169.38           estimate D2E/DX2                !
 --------------------------------------------------------------------------------
 Trust Radius=3.00D-01 FncErr=1.00D-07 GrdErr=1.00D-06
 Number of steps in this run=    258 maximum allowed number of steps=    258.
 GradGradGradGradGradGradGradGradGradGradGradGradGradGradGradGradGradGrad

                          Input orientation:                          
 ---------------------------------------------------------------------
 Center     Atomic      Atomic             Coordinates (Angstroms)
 Number     Number       Type             X           Y           Z
 ---------------------------------------------------------------------
      1         14           0        1.756380    0.986500   -0.892170
      2          1           0        0.704630    0.363990   -1.863950
      3          1           0        0.703580    1.868740   -0.022960
      4          6           0        2.625200    0.373720    0.876090
      5          6           0        1.954610   -0.772180    1.170770
      6          6           0        0.541870   -1.088400    0.996120
      7          6           0       -0.586580   -0.482850    0.331440
      8          6           0       -1.784420   -1.067380    0.610210
      9         16           0       -1.528380   -2.385370    1.582980
     10          6           0        0.187530   -2.277240    1.550660
     11          6           0        1.112660   -3.263790    2.142250
     12          6           0        0.428560   -4.195290    2.967800
     13          7           0       -0.892510   -4.412440    3.123310
     14         16           0       -1.153770   -5.692090    4.078330
     15          7           0        0.400470   -5.947110    4.467210
     16          6           0        1.164840   -5.042040    3.835520
     17          6           0        2.560840   -4.861060    3.985300
     18          6           0        3.156410   -4.840330    5.225180
     19          6           0        2.801640   -5.926510    5.975770
     20          6           0        4.011340   -6.368830    5.581310
     21          7           0        5.036980   -6.672740    6.390790
     22         16           0        5.099380   -8.224160    5.821690
     23          7           0        4.121870   -7.838700    4.086520
     24          6           0        4.214910   -6.303010    3.846250
     25          6           0        3.354970   -4.896820    2.882490
     26          6           0        2.635630   -3.462350    1.926340
     27          6           0        2.855350   -1.887760    0.768170
     28          6           0        2.877590   -1.089160   -0.659880
     29          6           0       -3.108460   -0.701740    0.168120
     30          6           0       -4.050180   -1.692560   -0.050780
     31          6           0       -5.207450   -1.355040   -0.708090
     32          6           0       -5.463110   -0.018090   -0.958590
     33          6           0       -4.542610    0.929590   -0.539660
     34          7           0       -3.324940    0.615390   -0.061270
     35          1           0        3.762270    0.336500    0.719180
     36          1           0       -0.661820    0.372030   -0.315550
     37          1           0        4.288240   -4.548300    5.064000
     38          1           0        2.044460   -6.645770    5.556950
     39          1           0        3.348900    0.040250   -1.048530
     40          1           0       -3.867930   -2.714340    0.257410
     41          1           0       -5.900100   -2.133450   -0.997260
     42          1           0       -6.385160    0.268370   -1.441760
     43          1           0       -4.786920    1.986850   -0.556900
 ---------------------------------------------------------------------
                    Distance matrix (angstroms):
                    1          2          3          4          5
     1  Si   0.000000
     2  H    1.561427   0.000000
     3  H    1.625503   2.377713   0.000000
     4  C    2.063272   3.346118   2.595380   0.000000
     5  C    2.718082   3.473162   3.156664   1.360005   0.000000
     6  C    3.057104   3.211842   3.131988   2.548032   1.458195
     7  C    3.024181   2.684045   2.705566   3.368366   2.691809
     8  C    4.360371   3.790205   3.900237   4.646742   3.792323
     9  S    5.318414   4.942331   5.065387   5.036318   3.860508
    10  C    4.368147   4.347764   4.464497   3.663996   2.352040
    11  C    5.261848   5.420047   5.585548   4.137924   2.803707
    12  C    6.596470   6.648989   6.767033   5.484189   4.156420
    13  N    7.231131   7.087870   7.204147   6.350717   5.016971
    14  S    8.819207   8.685646   8.799800   7.831284   6.505494
    15  N    8.867716   8.944612   9.018925   7.602530   6.329437
    16  C    7.684027   7.868984   7.928399   6.342029   5.094736
    17  C    7.657077   8.059801   8.050203   6.088863   5.000803
    18  C    8.563527   9.129728   8.864027   6.810513   5.867913
    19  C    9.800555  10.267865  10.057462   8.107451   7.097366
    20  C   10.054435  10.568685  10.497937   8.338013   7.416569
    21  N   11.066517  11.680135  11.526987   9.267211   8.459682
    22  S   11.878040  12.334472  12.463933  10.222723   9.330200
    23  N   10.405145  10.694379  11.081829   8.943753   7.945711
    24  C    9.035151   9.453959   9.699367   7.478486   6.546543
    25  C    7.170565   7.564993   7.825874   5.686545   4.680133
    26  C    5.339414   5.721533   5.996091   3.977256   2.876054
    27  C    3.496546   4.077258   4.400829   2.275721   1.489274
    28  C    2.370535   2.878052   3.725743   2.136100   2.074524
    29  C    5.257474   4.450252   4.601688   5.876452   5.161874
    30  C    6.449918   5.488643   5.939854   7.049064   6.196514
    31  C    7.349260   6.264485   6.767750   8.176102   7.427311
    32  C    7.289352   6.245533   6.516410   8.303031   7.754057
    33  C    6.309103   5.441248   5.354577   7.327403   6.930762
    34  N    5.162163   4.421571   4.219162   6.028367   5.596152
    35  H    2.653779   4.002809   3.500588   1.148449   2.168119
    36  H    2.560811   2.065137   2.046965   3.496357   3.219328
    37  H    8.515884   9.217882   8.938979   6.673123   5.904418
    38  H    9.996284  10.295710  10.267923   8.457006   7.331146
    39  H    1.859021   2.786015   3.375335   2.083052   2.743972
    40  H    6.830125   5.906318   6.479347   7.216621   6.205496
    41  H    8.268423   7.114128   7.783018   9.081634   8.261349
    42  H    8.191608   7.102993   7.404351   9.304306   8.801126
    43  H    6.627811   5.873600   5.517665   7.719791   7.486342
                    6          7          8          9         10
     6  C    0.000000
     7  C    1.442875   0.000000
     8  C    2.358176   1.361693   0.000000
     9  S    2.512463   2.464330   1.657991   0.000000
    10  C    1.358827   2.303384   2.497357   1.719617   0.000000
    11  C    2.524230   3.728281   3.945179   2.838925   1.476186
    12  C    3.681457   4.665095   4.498815   3.003856   2.396935
    13  N    4.199003   4.830094   4.277920   2.624111   2.863354
    14  S    5.793891   6.441822   5.814939   4.159507   4.455267
    15  N    5.972899   6.923655   6.592568   4.972448   4.692500
    16  C    4.907296   6.011012   5.907511   4.402870   3.717504
    17  C    5.219617   6.513499   6.683152   5.349944   4.270386
    18  C    6.228784   7.546277   7.742409   6.421815   5.374549
    19  C    7.301423   8.542361   8.569266   7.112338   6.303360
    20  C    7.806672   9.129445   9.295593   7.908419   6.899911
    21  N    8.971808  10.327385  10.553041   9.197855   8.140298
    22  S    9.745568  11.063493  11.214532   9.797211   8.816679
    23  N    8.242179   9.506769   9.634302   8.242078   7.269075
    24  C    6.986174   8.323608   8.595100   7.311339   6.139735
    25  C    5.096664   6.444129   6.800088   5.642979   4.320723
    26  C    3.299209   4.669450   5.196626   4.314715   2.745690
    27  C    2.458277   3.743179   4.714387   4.486493   2.807356
    28  C    2.863202   3.653875   4.831971   5.111081   3.678919
    29  C    3.762977   2.536625   1.442989   2.707968   3.906042
    30  C    4.748466   3.688633   2.441603   3.083607   4.567784
    31  C    6.002509   4.815992   3.679375   4.454900   5.920998
    32  C    6.405173   5.065642   4.134598   5.248399   6.582540
    33  C    5.681799   4.289985   3.594121   4.957837   6.085016
    34  N    4.355823   2.976402   2.378193   3.864679   4.827326
    35  H    3.532423   4.442316   5.722633   6.012130   4.505748
    36  H    2.302651   1.074745   2.046745   3.458120   3.350040
    37  H    6.523331   7.917631   8.296400   7.115394   5.858079
    38  H    7.344611   8.497641   8.381467   6.834371   6.211490
    39  H    3.651556   4.203089   5.507199   6.049491   4.703276
    40  H    4.757700   3.968915   2.679171   2.709031   4.279055
    41  H    6.823831   5.720439   4.545249   5.082621   6.600895
    42  H    7.467786   6.110000   5.211681   6.307115   7.657347
    43  H    6.345474   4.952921   4.439085   5.857771   6.882545
                   11         12         13         14         15
    11  C    0.000000
    12  C    1.420288   0.000000
    13  N    2.510494   1.347799   0.000000
    14  S    3.844704   2.444884   1.617969   0.000000
    15  N    3.621168   2.306056   2.415176   1.622321   0.000000
    16  C    2.456025   1.418461   2.266347   2.420222   1.342552
    17  C    2.836429   2.454623   3.587466   3.807570   2.465551
    18  C    4.020802   3.599029   4.581997   4.540750   3.065075
    19  C    4.963729   4.204345   4.906697   4.393233   2.835806
    20  C    5.465414   4.938727   5.823828   5.421742   3.802295
    21  N    6.713518   6.252372   7.137523   6.680908   5.071876
    22  S    7.351019   6.796546   7.596921   6.967967   5.394379
    23  N    5.810794   5.307213   6.149068   5.695646   4.191880
    24  C    4.665236   4.421607   5.493873   5.408309   3.881006
    25  C    2.871010   3.010531   4.281788   4.731937   3.513334
    26  C    1.550961   2.548136   3.844890   4.895136   4.198332
    27  C    2.611230   4.006542   5.095797   6.442292   6.015618
    28  C    3.961808   5.367109   6.290498   7.738828   7.484842
    29  C    5.317814   5.705577   5.235731   6.634316   7.636011
    30  C    5.825209   5.952696   5.238652   6.437001   7.636866
    31  C    7.191075   7.303684   6.530393   7.625755   8.906155
    32  C    7.961817   8.220542   7.540730   8.725552   9.948575
    33  C    7.533867   7.954823   7.434908   8.755382   9.838282
    34  N    6.292522   6.812244   6.429412   7.850769   8.800694
    35  H    4.691231   6.058633   7.071015   8.473207   8.051906
    36  H    4.733788   5.729723   5.896620   7.504782   7.995923
    37  H    4.502321   4.406336   5.533977   5.647590   4.174636
    38  H    4.895530   3.914037   4.419973   3.650274   2.092454
    39  H    5.108672   6.526798   7.431033   8.911703   8.658239
    40  H    5.353578   5.291432   4.466548   5.552755   6.811201
    41  H    7.766144   7.747569   6.873780   7.807252   9.170693
    42  H    9.029872   9.262573   8.539265   9.662604  10.935854
    43  H    8.346237   8.822902   8.346334   9.677358  10.728393
                   16         17         18         19         20
    16  C    0.000000
    17  C    1.415628   0.000000
    18  C    2.436841   1.375658   0.000000
    19  C    2.835855   2.270493   1.367126   0.000000
    20  C    3.593149   2.631457   1.787189   1.347078   0.000000
    21  N    4.917525   3.898697   2.872789   2.392874   1.341476
    22  S    5.436117   4.596407   3.947311   3.253082   2.164223
    23  N    4.077785   3.363540   3.349460   2.994786   2.099317
    24  C    3.300468   2.198750   2.271850   2.583397   1.748201
    25  C    2.392911   1.359453   2.351768   3.306783   3.143448
    26  C    2.881599   2.490241   3.612809   4.743156   4.868163
    27  C    4.713379   4.390578   5.354740   6.590408   6.677022
    28  C    6.226347   5.992100   6.984479   8.212038   8.253045
    29  C    7.109790   8.000735   9.052645   9.795729  10.588205
    30  C    7.315653   8.368687   9.469908  10.059477  10.889263
    31  C    8.651268   9.729667  10.830748  11.389374  12.234408
    32  C    9.599650  10.596234  11.652860  12.300442  13.147905
    33  C    9.347596  10.220856  11.216072  11.974763  12.802471
    34  N    8.206681   9.000480   9.985957  10.806354  11.594785
    35  H    6.736981   6.255046   6.889896   8.232851   8.286362
    36  H    7.062593   7.501205   8.511596   9.552375  10.102009
    37  H    3.392428   2.060418   1.179957   2.222784   1.912750
    38  H    2.511773   2.433500   2.146187   1.125196   1.986430
    39  H    7.379277   7.069888   7.950884   9.232687   9.244994
    40  H    6.599230   7.735286   8.862275   9.354188  10.187350
    41  H    9.040411  10.190842  11.316640  11.778401  12.627457
    42  H   10.632621  11.653109  12.711745  13.333926  14.193771
    43  H   10.204023  11.023386  11.964085  12.762574  13.597955
                   21         22         23         24         25
    21  N    0.000000
    22  S    1.653685   0.000000
    23  N    2.739808   2.028527   0.000000
    24  C    2.699478   2.894040   1.557154   0.000000
    25  C    4.276823   4.770016   3.269936   1.909372   0.000000
    26  C    6.000367   6.627115   5.101738   3.774855   1.867987
    27  C    7.698662   8.409738   6.930311   5.551343   3.711389
    28  C    9.249393   9.892185   8.344629   7.019819   5.222504
    29  C   11.862658  12.486725  10.888881   9.926460   8.169604
    30  C   12.201332  12.683144  11.030625  10.234979   8.585313
    31  C   13.550660  14.001913  12.331356  11.576065   9.937379
    32  C   14.441248  14.995932  13.359900  12.500031  10.784917
    33  C   14.056853  14.738585  13.166536  12.175421  10.393745
    34  N   12.832288  13.554189  12.005448  10.953644   9.147206
    35  H    9.106124  10.055266   8.848852   7.352995   5.677450
    36  H   11.272981  12.031277  10.472726   9.255227   7.356823
    37  H    2.614236   3.839790   3.436550   2.137124   2.398217
    38  H    3.106637   3.448759   2.810850   2.784750   3.453838
    39  H   10.161561  10.888736   9.436317   8.058895   6.310912
    40  H   11.514543  11.905124  10.235138   9.544141   7.989027
    41  H   13.957369  14.303265  12.602959  11.964876  10.408890
    42  H   15.491712  16.024214  14.376514  13.546497  11.842654
    43  H   14.824571  15.578513  14.052378  13.005478  11.202888
                   26         27         28         29         30
    26  C    0.000000
    27  C    1.966969   0.000000
    28  C    3.518396   1.636332   0.000000
    29  C    6.611118   6.110134   6.055450   0.000000
    30  C    7.193137   6.956661   6.980623   1.384369   0.000000
    31  C    8.537850   8.214127   8.089554   2.366496   1.373044
    32  C    9.261498   8.699089   8.414493   2.698375   2.371569
    33  C    8.769118   8.023571   7.690850   2.284508   2.712409
    34  N    7.490457   6.719354   6.460279   1.354369   2.419239
    35  H    4.142199   2.402548   2.171859   6.970548   8.108286
    36  H    5.531882   4.318748   3.844615   2.715321   3.976634
    37  H    3.708816   5.252219   6.835085   9.668342  10.190460
    38  H    4.864666   6.799163   8.379678   9.535385   9.650159
    39  H    4.650464   2.694664   1.284036   6.612737   7.664497
    40  H    6.755823   6.793129   6.998905   2.152981   1.082696
    41  H    9.119874   8.935044   8.846028   3.346813   2.124244
    42  H   10.326520   9.742675   9.394294   3.777511   3.351448
    43  H    9.537007   8.670219   8.259368   3.251369   3.786423
                   31         32         33         34         35
    31  C    0.000000
    32  C    1.384033   0.000000
    33  C    2.385354   1.385973   0.000000
    34  N    2.800860   2.403799   1.345473   0.000000
    35  H    9.238738   9.383405   8.420657   7.135505   0.000000
    36  H    4.878484   4.859844   3.927038   2.686278   4.543622
    37  H   11.562096  12.324091  11.806447  10.530555   6.558611
    38  H   10.946815  11.947469  11.744966  10.635756   8.666429
    39  H    8.676051   8.812662   7.957751   6.770939   1.839412
    40  H    2.138738   3.360509   3.790612   3.388731   8.230480
    41  H    1.081344   2.160371   3.381478   3.881192  10.119694
    42  H    2.135587   1.079671   2.155455   3.375074  10.375193
    43  H    3.371636   2.153688   1.085257   2.064930   8.800039
                   36         37         38         39         40
    36  H    0.000000
    37  H    8.812054   0.000000
    38  H    9.542522   3.110776   0.000000
    39  H    4.090625   7.700661   9.488772   0.000000
    40  H    4.486993   9.643123   8.859888   7.834276   0.000000
    41  H    5.846515  12.098456  11.244320   9.501137   2.457915
    42  H    5.834014  13.395771  12.955530   9.744670   4.256781
    43  H    4.436479  12.516438  12.592420   8.379888   4.858892
                   41         42         43
    41  H    0.000000
    42  H    2.490302   0.000000
    43  H    4.290683   2.508091   0.000000
 Stoichiometry    C23H11N5S3Si
 Framework group  C1[X(C23H11N5S3Si)]
 Deg. of freedom   123
 Full point group                 C1      NOp   1
 Largest Abelian subgroup         C1      NOp   1
 Largest concise Abelian subgroup C1      NOp   1
                         Standard orientation:                         
 ---------------------------------------------------------------------
 Center     Atomic      Atomic             Coordinates (Angstroms)
 Number     Number       Type             X           Y           Z
 ---------------------------------------------------------------------
      1         14           0        3.571184    3.989606    0.065082
      2          1           0        4.305872    3.138835    1.148814
      3          1           0        4.298703    3.314743   -1.222371
      4          6           0        1.769717    3.817066   -0.925896
      5          6           0        1.304672    2.606490   -0.516198
      6          6           0        2.035613    1.368061   -0.274637
      7          6           0        3.421514    0.978801   -0.176427
      8          6           0        3.626122   -0.366366   -0.122864
      9         16           0        2.157320   -1.134957   -0.094194
     10          6           0        1.223247    0.307297   -0.027141
     11          6           0       -0.241335    0.364035    0.148658
     12          6           0       -0.836990   -0.917313    0.005268
     13          7           0       -0.267928   -2.136739   -0.070437
     14         16           0       -1.396984   -3.295580   -0.082523
     15          7           0       -2.676448   -2.300044   -0.144204
     16          6           0       -2.244089   -1.029051   -0.134794
     17          6           0       -3.036388    0.135500   -0.276526
     18          6           0       -4.011640    0.231112   -1.242019
     19          6           0       -4.860355   -0.840265   -1.212562
     20          6           0       -5.650719    0.032332   -0.557948
     21          7           0       -6.862379    0.445561   -0.958795
     22         16           0       -7.571851   -0.107756    0.428707
     23          7           0       -5.864086   -0.147790    1.522716
     24          6           0       -4.842158    0.778854    0.800411
     25          6           0       -2.964966    1.104388    0.674404
     26          6           0       -1.157498    1.554659    0.534068
     27          6           0        0.283457    2.893536    0.529107
     28          6           0        1.497633    3.767399    1.192223
     29          6           0        4.865013   -1.104371   -0.070741
     30          6           0        4.920111   -2.291482    0.639335
     31          6           0        6.152812   -2.841618    0.890430
     32          6           0        7.263339   -2.292040    0.273793
     33          6           0        7.091603   -1.207148   -0.571450
     34          7           0        5.929178   -0.540045   -0.689939
     35          1           0        1.152478    4.760732   -0.708074
     36          1           0        4.328543    1.555320   -0.176615
     37          1           0       -4.419028    1.338258   -1.218333
     38          1           0       -4.643638   -1.678698   -0.494139
     39          1           0        2.118752    4.839461    0.855112
     40          1           0        4.019396   -2.759050    1.016593
     41          1           0        6.228119   -3.699221    1.544762
     42          1           0        8.235630   -2.734344    0.430979
     43          1           0        7.902195   -0.863679   -1.206078
 ---------------------------------------------------------------------
 Rotational constants (GHZ):      0.2329632      0.0576534      0.0478097
 Standard basis: 6-31++G(d,p) (6D, 7F)
 There are   690 symmetry adapted basis functions of A   symmetry.
 Integral buffers will be    131072 words long.
 Raffenetti 2 integral format.
 Two-electron integral symmetry is turned on.
   690 basis functions,  1208 primitive gaussians,   690 cartesian basis functions
   123 alpha electrons      123 beta electrons
       nuclear repulsion energy      3497.5602056303 Hartrees.
 NAtoms=   43 NActive=   43 NUniq=   43 SFac= 1.00D+00 NAtFMM=   60 NAOKFM=F Big=F
 One-electron integrals computed using PRISM.
 NBasis=   690 RedAO= T  NBF=   690
 NBsUse=   683 1.00D-06 NBFU=   683
 Harris functional with IExCor=  402 diagonalized for initial guess.
 ExpMin= 3.31D-02 ExpMax= 2.19D+04 ExpMxC= 3.30D+03 IAcc=3 IRadAn=         5 AccDes= 0.00D+00
 HarFok:  IExCor=  402 AccDes= 0.00D+00 IRadAn=         5 IDoV= 1
 ScaDFX=  1.000000  1.000000  1.000000  1.000000
 FoFCou: FMM=F IPFlag=           0 FMFlag=      100000 FMFlg1=           0
         NFxFlg=           0 DoJE=T BraDBF=F KetDBF=T FulRan=T
         Omega=  0.000000  0.000000  1.000000  0.000000  0.000000 ICntrl=     500 IOpCl=  0
         NMat0=    1 NMatS0=    1 NMatT0=    0 NMatD0=    1 NMtDS0=    0 NMtDT0=    0
         I1Cent=           4 NGrid=           0.
 Petite list used in FoFCou.
 Initial guess orbital symmetries:
       Occupied  (A) (A) (A) (A) (A) (A) (A) (A) (A) (A) (A) (A)
                 (A) (A) (A) (A) (A) (A) (A) (A) (A) (A) (A) (A)
                 (A) (A) (A) (A) (A) (A) (A) (A) (A) (A) (A) (A)
                 (A) (A) (A) (A) (A) (A) (A) (A) (A) (A) (A) (A)
                 (A) (A) (A) (A) (A) (A) (A) (A) (A) (A) (A) (A)
                 (A) (A) (A) (A) (A) (A) (A) (A) (A) (A) (A) (A)
                 (A) (A) (A) (A) (A) (A) (A) (A) (A) (A) (A) (A)
                 (A) (A) (A) (A) (A) (A) (A) (A) (A) (A) (A) (A)
                 (A) (A) (A) (A) (A) (A) (A) (A) (A) (A) (A) (A)
                 (A) (A) (A) (A) (A) (A) (A) (A) (A) (A) (A) (A)
                 (A) (A) (A)
       Virtual   (A) (A) (A) (A) (A) (A) (A) (A) (A) (A) (A) (A)
                 (A) (A) (A) (A) (A) (A) (A) (A) (A) (A) (A) (A)
                 (A) (A) (A) (A) (A) (A) (A) (A) (A) (A) (A) (A)
                 (A) (A) (A) (A) (A) (A) (A) (A) (A) (A) (A) (A)
                 (A) (A) (A) (A) (A) (A) (A) (A) (A) (A) (A) (A)
                 (A) (A) (A) (A) (A) (A) (A) (A) (A) (A) (A) (A)
                 (A) (A) (A) (A) (A) (A) (A) (A) (A) (A) (A) (A)
                 (A) (A) (A) (A) (A) (A) (A) (A) (A) (A) (A) (A)
                 (A) (A) (A) (A) (A) (A) (A) (A) (A) (A) (A) (A)
                 (A) (A) (A) (A) (A) (A) (A) (A) (A) (A) (A) (A)
                 (A) (A) (A) (A) (A) (A) (A) (A) (A) (A) (A) (A)
                 (A) (A) (A) (A) (A) (A) (A) (A) (A) (A) (A) (A)
                 (A) (A) (A) (A) (A) (A) (A) (A) (A) (A) (A) (A)
                 (A) (A) (A) (A) (A) (A) (A) (A) (A) (A) (A) (A)
                 (A) (A) (A) (A) (A) (A) (A) (A) (A) (A) (A) (A)
                 (A) (A) (A) (A) (A) (A) (A) (A) (A) (A) (A) (A)
                 (A) (A) (A) (A) (A) (A) (A) (A) (A) (A) (A) (A)
                 (A) (A) (A) (A) (A) (A) (A) (A) (A) (A) (A) (A)
                 (A) (A) (A) (A) (A) (A) (A) (A) (A) (A) (A) (A)
                 (A) (A) (A) (A) (A) (A) (A) (A) (A) (A) (A) (A)
                 (A) (A) (A) (A) (A) (A) (A) (A) (A) (A) (A) (A)
                 (A) (A) (A) (A) (A) (A) (A) (A) (A) (A) (A) (A)
                 (A) (A) (A) (A) (A) (A) (A) (A) (A) (A) (A) (A)
                 (A) (A) (A) (A) (A) (A) (A) (A) (A) (A) (A) (A)
                 (A) (A) (A) (A) (A) (A) (A) (A) (A) (A) (A) (A)
                 (A) (A) (A) (A) (A) (A) (A) (A) (A) (A) (A) (A)
                 (A) (A) (A) (A) (A) (A) (A) (A) (A) (A) (A) (A)
                 (A) (A) (A) (A) (A) (A) (A) (A) (A) (A) (A) (A)
                 (A) (A) (A) (A) (A) (A) (A) (A) (A) (A) (A) (A)
                 (A) (A) (A) (A) (A) (A) (A) (A) (A) (A) (A) (A)
                 (A) (A) (A) (A) (A) (A) (A) (A) (A) (A) (A) (A)
                 (A) (A) (A) (A) (A) (A) (A) (A) (A) (A) (A) (A)
                 (A) (A) (A) (A) (A) (A) (A) (A) (A) (A) (A) (A)
                 (A) (A) (A) (A) (A) (A) (A) (A) (A) (A) (A) (A)
                 (A) (A) (A) (A) (A) (A) (A) (A) (A) (A) (A) (A)
                 (A) (A) (A) (A) (A) (A) (A) (A) (A) (A) (A) (A)
                 (A) (A) (A) (A) (A) (A) (A) (A) (A) (A) (A) (A)
                 (A) (A) (A) (A) (A) (A) (A) (A) (A) (A) (A) (A)
                 (A) (A) (A) (A) (A) (A) (A) (A) (A) (A) (A) (A)
                 (A) (A) (A) (A) (A) (A) (A) (A) (A) (A) (A) (A)
                 (A) (A) (A) (A) (A) (A) (A) (A) (A) (A) (A) (A)
                 (A) (A) (A) (A) (A) (A) (A) (A) (A) (A) (A) (A)
                 (A) (A) (A) (A) (A) (A) (A) (A) (A) (A) (A) (A)
                 (A) (A) (A) (A) (A) (A) (A) (A) (A) (A) (A) (A)
                 (A) (A) (A) (A) (A) (A) (A) (A) (A) (A) (A) (A)
                 (A) (A) (A) (A) (A) (A) (A) (A) (A) (A) (A) (A)
                 (A) (A) (A) (A) (A) (A) (A) (A)
 The electronic state of the initial guess is 1-A.
 Requested convergence on RMS density matrix=1.00D-08 within 128 cycles.
 Requested convergence on MAX density matrix=1.00D-06.
 Requested convergence on             energy=1.00D-06.
 No special actions if energy rises.
 EnCoef did     6 forward-backward iterations
 EnCoef did   100 forward-backward iterations
 EnCoef did     6 forward-backward iterations
 EnCoef did     3 forward-backward iterations
 EnCoef did     2 forward-backward iterations
 EnCoef did    18 forward-backward iterations
 EnCoef did     4 forward-backward iterations
 EnCoef did     3 forward-backward iterations
 EnCoef did    10 forward-backward iterations
 EnCoef did     3 forward-backward iterations
 EnCoef did   100 forward-backward iterations
 Restarting incremental Fock formation.
 Restarting incremental Fock formation.
 SCF Done:  E(RB3LYP) =  -2639.57848051     A.U. after   47 cycles
             Convg  =    0.2954D-08             -V/T =  2.0059

 **********************************************************************

            Population analysis using the SCF density.

 **********************************************************************

 Orbital symmetries:
       Occupied  (A) (A) (A) (A) (A) (A) (A) (A) (A) (A) (A) (A)
                 (A) (A) (A) (A) (A) (A) (A) (A) (A) (A) (A) (A)
                 (A) (A) (A) (A) (A) (A) (A) (A) (A) (A) (A) (A)
                 (A) (A) (A) (A) (A) (A) (A) (A) (A) (A) (A) (A)
                 (A) (A) (A) (A) (A) (A) (A) (A) (A) (A) (A) (A)
                 (A) (A) (A) (A) (A) (A) (A) (A) (A) (A) (A) (A)
                 (A) (A) (A) (A) (A) (A) (A) (A) (A) (A) (A) (A)
                 (A) (A) (A) (A) (A) (A) (A) (A) (A) (A) (A) (A)
                 (A) (A) (A) (A) (A) (A) (A) (A) (A) (A) (A) (A)
                 (A) (A) (A) (A) (A) (A) (A) (A) (A) (A) (A) (A)
                 (A) (A) (A)
       Virtual   (A) (A) (A) (A) (A) (A) (A) (A) (A) (A) (A) (A)
                 (A) (A) (A) (A) (A) (A) (A) (A) (A) (A) (A) (A)
                 (A) (A) (A) (A) (A) (A) (A) (A) (A) (A) (A) (A)
                 (A) (A) (A) (A) (A) (A) (A) (A) (A) (A) (A) (A)
                 (A) (A) (A) (A) (A) (A) (A) (A) (A) (A) (A) (A)
                 (A) (A) (A) (A) (A) (A) (A) (A) (A) (A) (A) (A)
                 (A) (A) (A) (A) (A) (A) (A) (A) (A) (A) (A) (A)
                 (A) (A) (A) (A) (A) (A) (A) (A) (A) (A) (A) (A)
                 (A) (A) (A) (A) (A) (A) (A) (A) (A) (A) (A) (A)
                 (A) (A) (A) (A) (A) (A) (A) (A) (A) (A) (A) (A)
                 (A) (A) (A) (A) (A) (A) (A) (A) (A) (A) (A) (A)
                 (A) (A) (A) (A) (A) (A) (A) (A) (A) (A) (A) (A)
                 (A) (A) (A) (A) (A) (A) (A) (A) (A) (A) (A) (A)
                 (A) (A) (A) (A) (A) (A) (A) (A) (A) (A) (A) (A)
                 (A) (A) (A) (A) (A) (A) (A) (A) (A) (A) (A) (A)
                 (A) (A) (A) (A) (A) (A) (A) (A) (A) (A) (A) (A)
                 (A) (A) (A) (A) (A) (A) (A) (A) (A) (A) (A) (A)
                 (A) (A) (A) (A) (A) (A) (A) (A) (A) (A) (A) (A)
                 (A) (A) (A) (A) (A) (A) (A) (A) (A) (A) (A) (A)
                 (A) (A) (A) (A) (A) (A) (A) (A) (A) (A) (A) (A)
                 (A) (A) (A) (A) (A) (A) (A) (A) (A) (A) (A) (A)
                 (A) (A) (A) (A) (A) (A) (A) (A) (A) (A) (A) (A)
                 (A) (A) (A) (A) (A) (A) (A) (A) (A) (A) (A) (A)
                 (A) (A) (A) (A) (A) (A) (A) (A) (A) (A) (A) (A)
                 (A) (A) (A) (A) (A) (A) (A) (A) (A) (A) (A) (A)
                 (A) (A) (A) (A) (A) (A) (A) (A) (A) (A) (A) (A)
                 (A) (A) (A) (A) (A) (A) (A) (A) (A) (A) (A) (A)
                 (A) (A) (A) (A) (A) (A) (A) (A) (A) (A) (A) (A)
                 (A) (A) (A) (A) (A) (A) (A) (A) (A) (A) (A) (A)
                 (A) (A) (A) (A) (A) (A) (A) (A) (A) (A) (A) (A)
                 (A) (A) (A) (A) (A) (A) (A) (A) (A) (A) (A) (A)
                 (A) (A) (A) (A) (A) (A) (A) (A) (A) (A) (A) (A)
                 (A) (A) (A) (A) (A) (A) (A) (A) (A) (A) (A) (A)
                 (A) (A) (A) (A) (A) (A) (A) (A) (A) (A) (A) (A)
                 (A) (A) (A) (A) (A) (A) (A) (A) (A) (A) (A) (A)
                 (A) (A) (A) (A) (A) (A) (A) (A) (A) (A) (A) (A)
                 (A) (A) (A) (A) (A) (A) (A) (A) (A) (A) (A) (A)
                 (A) (A) (A) (A) (A) (A) (A) (A) (A) (A) (A) (A)
                 (A) (A) (A) (A) (A) (A) (A) (A) (A) (A) (A) (A)
                 (A) (A) (A) (A) (A) (A) (A) (A) (A) (A) (A) (A)
                 (A) (A) (A) (A) (A) (A) (A) (A) (A) (A) (A) (A)
                 (A) (A) (A) (A) (A) (A) (A) (A) (A) (A) (A) (A)
                 (A) (A) (A) (A) (A) (A) (A) (A) (A) (A) (A) (A)
                 (A) (A) (A) (A) (A) (A) (A) (A) (A) (A) (A) (A)
                 (A) (A) (A) (A) (A) (A) (A) (A) (A) (A) (A) (A)
                 (A) (A) (A) (A) (A) (A) (A) (A) (A) (A) (A) (A)
                 (A) (A) (A) (A) (A) (A) (A) (A)
 The electronic state is 1-A.
 Alpha  occ. eigenvalues --  -88.99547 -88.99058 -88.92650 -66.16270 -14.42742
 Alpha  occ. eigenvalues --  -14.40688 -14.39311 -14.38305 -14.35599 -10.33860
 Alpha  occ. eigenvalues --  -10.33074 -10.32104 -10.31634 -10.30741 -10.29633
 Alpha  occ. eigenvalues --  -10.28723 -10.27008 -10.26733 -10.26714 -10.26013
 Alpha  occ. eigenvalues --  -10.25837 -10.25683 -10.25609 -10.25039 -10.24728
 Alpha  occ. eigenvalues --  -10.24354 -10.23460 -10.22962 -10.22659 -10.21775
 Alpha  occ. eigenvalues --  -10.21726 -10.21161  -8.04857  -8.04414  -7.98714
 Alpha  occ. eigenvalues --   -6.01457  -6.00880  -6.00862  -6.00595  -6.00547
 Alpha  occ. eigenvalues --   -6.00004  -5.95142  -5.94710  -5.94418  -5.30339
 Alpha  occ. eigenvalues --   -3.66489  -3.66099  -3.66013  -1.04885  -1.03799
 Alpha  occ. eigenvalues --   -0.96952  -0.96046  -0.94210  -0.91014  -0.90227
 Alpha  occ. eigenvalues --   -0.87709  -0.85598  -0.83102  -0.82773  -0.80599
 Alpha  occ. eigenvalues --   -0.77755  -0.76608  -0.74068  -0.72476  -0.69980
 Alpha  occ. eigenvalues --   -0.68497  -0.67863  -0.66369  -0.65449  -0.65281
 Alpha  occ. eigenvalues --   -0.63337  -0.61809  -0.59547  -0.59046  -0.57913
 Alpha  occ. eigenvalues --   -0.56665  -0.54617  -0.53582  -0.52882  -0.52078
 Alpha  occ. eigenvalues --   -0.51101  -0.49445  -0.48789  -0.47961  -0.47828
 Alpha  occ. eigenvalues --   -0.47328  -0.47033  -0.46218  -0.45439  -0.44687
 Alpha  occ. eigenvalues --   -0.44332  -0.44000  -0.43516  -0.43296  -0.42391
 Alpha  occ. eigenvalues --   -0.41884  -0.41670  -0.41378  -0.39625  -0.39004
 Alpha  occ. eigenvalues --   -0.38553  -0.37683  -0.37175  -0.36550  -0.35662
 Alpha  occ. eigenvalues --   -0.34410  -0.34167  -0.33211  -0.32492  -0.31295
 Alpha  occ. eigenvalues --   -0.30736  -0.30176  -0.29834  -0.29296  -0.28391
 Alpha  occ. eigenvalues --   -0.27792  -0.27122  -0.26360  -0.25331  -0.23906
 Alpha  occ. eigenvalues --   -0.22545  -0.19802  -0.19289
 Alpha virt. eigenvalues --   -0.17772  -0.15579  -0.13799  -0.11571  -0.11067
 Alpha virt. eigenvalues --   -0.10935  -0.08916  -0.08276  -0.07588  -0.06532
 Alpha virt. eigenvalues --   -0.04986  -0.04698  -0.03580  -0.02522  -0.01594
 Alpha virt. eigenvalues --   -0.01465  -0.00852  -0.00348   0.00097   0.00339
 Alpha virt. eigenvalues --    0.00895   0.00933   0.01356   0.01558   0.01795
 Alpha virt. eigenvalues --    0.02676   0.02693   0.03189   0.03213   0.03753
 Alpha virt. eigenvalues --    0.03987   0.04322   0.04544   0.04598   0.04838
 Alpha virt. eigenvalues --    0.04906   0.05410   0.05535   0.05751   0.06037
 Alpha virt. eigenvalues --    0.06351   0.06493   0.06810   0.07092   0.07289
 Alpha virt. eigenvalues --    0.07559   0.07981   0.08058   0.08326   0.08638
 Alpha virt. eigenvalues --    0.08824   0.09073   0.09115   0.09422   0.09584
 Alpha virt. eigenvalues --    0.10105   0.10244   0.10374   0.10543   0.10716
 Alpha virt. eigenvalues --    0.10883   0.11084   0.11237   0.11577   0.11716
 Alpha virt. eigenvalues --    0.11954   0.12061   0.12264   0.12444   0.12738
 Alpha virt. eigenvalues --    0.12794   0.12846   0.13119   0.13458   0.13762
 Alpha virt. eigenvalues --    0.14033   0.14271   0.14596   0.14661   0.14888
 Alpha virt. eigenvalues --    0.14992   0.15378   0.15502   0.15658   0.16016
 Alpha virt. eigenvalues --    0.16330   0.16414   0.16616   0.16824   0.17322
 Alpha virt. eigenvalues --    0.17535   0.17735   0.18052   0.18368   0.18407
 Alpha virt. eigenvalues --    0.18595   0.18764   0.19112   0.19267   0.19464
 Alpha virt. eigenvalues --    0.19621   0.19978   0.20203   0.20517   0.20916
 Alpha virt. eigenvalues --    0.21199   0.21358   0.21549   0.21668   0.22126
 Alpha virt. eigenvalues --    0.22305   0.22396   0.22787   0.22801   0.23058
 Alpha virt. eigenvalues --    0.23206   0.23411   0.23503   0.23678   0.24047
 Alpha virt. eigenvalues --    0.24613   0.24687   0.25008   0.25192   0.25357
 Alpha virt. eigenvalues --    0.25605   0.25798   0.25946   0.26122   0.26300
 Alpha virt. eigenvalues --    0.26638   0.27031   0.27185   0.27471   0.27791
 Alpha virt. eigenvalues --    0.28102   0.28277   0.28482   0.28666   0.29084
 Alpha virt. eigenvalues --    0.29163   0.29486   0.29600   0.29854   0.30188
 Alpha virt. eigenvalues --    0.30427   0.30576   0.30929   0.31006   0.31359
 Alpha virt. eigenvalues --    0.31589   0.31620   0.31988   0.32344   0.32585
 Alpha virt. eigenvalues --    0.32921   0.33104   0.33346   0.33546   0.34024
 Alpha virt. eigenvalues --    0.34395   0.34665   0.34789   0.34906   0.35007
 Alpha virt. eigenvalues --    0.35276   0.35612   0.35715   0.35976   0.36344
 Alpha virt. eigenvalues --    0.36984   0.37306   0.37820   0.38048   0.38430
 Alpha virt. eigenvalues --    0.38675   0.39139   0.39688   0.39890   0.40869
 Alpha virt. eigenvalues --    0.41089   0.42192   0.42500   0.43134   0.43437
 Alpha virt. eigenvalues --    0.43716   0.43935   0.44371   0.45057   0.45718
 Alpha virt. eigenvalues --    0.46540   0.46837   0.47607   0.48207   0.49241
 Alpha virt. eigenvalues --    0.49845   0.50699   0.51621   0.52233   0.53123
 Alpha virt. eigenvalues --    0.54773   0.55704   0.55954   0.56939   0.57747
 Alpha virt. eigenvalues --    0.59152   0.59989   0.60968   0.61856   0.62374
 Alpha virt. eigenvalues --    0.63233   0.64008   0.65109   0.65721   0.65997
 Alpha virt. eigenvalues --    0.66373   0.66761   0.67957   0.68410   0.68636
 Alpha virt. eigenvalues --    0.68850   0.69016   0.69546   0.69762   0.70180
 Alpha virt. eigenvalues --    0.70255   0.70886   0.71278   0.71573   0.71908
 Alpha virt. eigenvalues --    0.72420   0.72835   0.73320   0.73646   0.73919
 Alpha virt. eigenvalues --    0.74508   0.74869   0.75236   0.75476   0.75946
 Alpha virt. eigenvalues --    0.76369   0.76817   0.77470   0.77788   0.78119
 Alpha virt. eigenvalues --    0.78504   0.79097   0.79793   0.80230   0.80746
 Alpha virt. eigenvalues --    0.81209   0.81353   0.82406   0.82861   0.83892
 Alpha virt. eigenvalues --    0.83969   0.84550   0.85005   0.85371   0.85812
 Alpha virt. eigenvalues --    0.86521   0.87513   0.88046   0.88345   0.88890
 Alpha virt. eigenvalues --    0.89336   0.90191   0.90381   0.90936   0.91478
 Alpha virt. eigenvalues --    0.92233   0.92875   0.93439   0.94147   0.94635
 Alpha virt. eigenvalues --    0.95038   0.95282   0.95617   0.96163   0.96855
 Alpha virt. eigenvalues --    0.97231   0.97632   0.98221   0.99110   0.99612
 Alpha virt. eigenvalues --    1.00154   1.01249   1.01995   1.02579   1.02791
 Alpha virt. eigenvalues --    1.03650   1.03998   1.04397   1.04913   1.05030
 Alpha virt. eigenvalues --    1.05399   1.06160   1.06750   1.07187   1.07858
 Alpha virt. eigenvalues --    1.08768   1.09067   1.09448   1.09884   1.10091
 Alpha virt. eigenvalues --    1.11660   1.11718   1.12216   1.13043   1.13715
 Alpha virt. eigenvalues --    1.14824   1.15008   1.15344   1.16472   1.16651
 Alpha virt. eigenvalues --    1.16916   1.17544   1.18132   1.18968   1.19910
 Alpha virt. eigenvalues --    1.20167   1.21134   1.22239   1.22660   1.23362
 Alpha virt. eigenvalues --    1.24025   1.24605   1.24804   1.25589   1.26707
 Alpha virt. eigenvalues --    1.26826   1.28324   1.28960   1.29474   1.30060
 Alpha virt. eigenvalues --    1.30683   1.31641   1.32493   1.33401   1.34015
 Alpha virt. eigenvalues --    1.34473   1.35215   1.36054   1.36918   1.37061
 Alpha virt. eigenvalues --    1.38065   1.38693   1.39261   1.41169   1.41673
 Alpha virt. eigenvalues --    1.43413   1.43679   1.45147   1.47105   1.47971
 Alpha virt. eigenvalues --    1.48314   1.49173   1.50478   1.50931   1.51615
 Alpha virt. eigenvalues --    1.52324   1.52956   1.54400   1.56202   1.56718
 Alpha virt. eigenvalues --    1.57853   1.59747   1.60616   1.61817   1.64568
 Alpha virt. eigenvalues --    1.64942   1.66715   1.66989   1.68738   1.68886
 Alpha virt. eigenvalues --    1.69285   1.70759   1.73268   1.74076   1.74914
 Alpha virt. eigenvalues --    1.76475   1.78056   1.78543   1.80037   1.80309
 Alpha virt. eigenvalues --    1.81193   1.81310   1.82096   1.82567   1.83530
 Alpha virt. eigenvalues --    1.84123   1.84555   1.85722   1.86541   1.87432
 Alpha virt. eigenvalues --    1.88224   1.89027   1.90402   1.90890   1.91770
 Alpha virt. eigenvalues --    1.92310   1.92346   1.93928   1.94405   1.94851
 Alpha virt. eigenvalues --    1.95400   1.95837   1.97683   1.98009   1.98923
 Alpha virt. eigenvalues --    1.99501   1.99861   2.00249   2.00722   2.02770
 Alpha virt. eigenvalues --    2.03626   2.05109   2.05344   2.05768   2.06367
 Alpha virt. eigenvalues --    2.07349   2.07818   2.09036   2.10940   2.12068
 Alpha virt. eigenvalues --    2.12878   2.13958   2.15329   2.16573   2.17272
 Alpha virt. eigenvalues --    2.18080   2.19107   2.19962   2.21047   2.21134
 Alpha virt. eigenvalues --    2.22232   2.23130   2.23586   2.24489   2.25810
 Alpha virt. eigenvalues --    2.26658   2.27330   2.28820   2.29505   2.31014
 Alpha virt. eigenvalues --    2.31269   2.32114   2.33635   2.34328   2.34359
 Alpha virt. eigenvalues --    2.35033   2.36215   2.36620   2.37211   2.37720
 Alpha virt. eigenvalues --    2.38648   2.39326   2.40238   2.41883   2.42467
 Alpha virt. eigenvalues --    2.43564   2.44282   2.45368   2.46835   2.47303
 Alpha virt. eigenvalues --    2.47815   2.48199   2.49192   2.49513   2.50031
 Alpha virt. eigenvalues --    2.50445   2.51346   2.52361   2.52640   2.53185
 Alpha virt. eigenvalues --    2.53459   2.55273   2.55555   2.57078   2.58649
 Alpha virt. eigenvalues --    2.58791   2.60495   2.62643   2.63661   2.64701
 Alpha virt. eigenvalues --    2.66361   2.66367   2.66997   2.68324   2.68751
 Alpha virt. eigenvalues --    2.69908   2.71583   2.71937   2.73532   2.74352
 Alpha virt. eigenvalues --    2.75397   2.76678   2.76812   2.78871   2.82918
 Alpha virt. eigenvalues --    2.84041   2.84881   2.86110   2.87392   2.87907
 Alpha virt. eigenvalues --    2.89266   2.92222   2.95069   2.97138   2.99801
 Alpha virt. eigenvalues --    3.02648   3.03672   3.03876   3.07503   3.09114
 Alpha virt. eigenvalues --    3.12124   3.16182   3.20354   3.22908   3.25831
 Alpha virt. eigenvalues --    3.28013   3.31357   3.33172   3.34338   3.37503
 Alpha virt. eigenvalues --    3.40126   3.51994   3.59858   3.87264   3.92759
 Alpha virt. eigenvalues --    3.97405   4.01643   4.03879   4.11609   4.16724
 Alpha virt. eigenvalues --    4.22933   4.26323   4.28413   4.30432   4.32043
 Alpha virt. eigenvalues --    4.33647   4.35798   4.36788   4.37705   4.40500
 Alpha virt. eigenvalues --    4.40728   4.42958   4.43847   4.48104   4.50606
 Alpha virt. eigenvalues --    4.51867   4.53051   4.53785   4.58109   4.59706
 Alpha virt. eigenvalues --    4.64710   4.69317   4.73388   4.78451   4.84067
          Condensed to atoms (all electrons):
              1          2          3          4          5          6
     1  Si  15.068690   0.211906   0.225083  -1.861270   2.147384   0.329825
     2  H    0.211906   0.798989  -0.050782   0.116618   0.137387  -0.270481
     3  H    0.225083  -0.050782   0.906437   0.103796  -0.271556   0.168353
     4  C   -1.861270   0.116618   0.103796  20.079616  -8.972012  -0.249267
     5  C    2.147384   0.137387  -0.271556  -8.972012  26.476324  -4.924675
     6  C    0.329825  -0.270481   0.168353  -0.249267  -4.924675  17.686463
     7  C    0.334615   0.131893  -0.163595   0.786515   6.402460   0.613888
     8  C   -1.490062  -0.011229   0.037437  -0.032273  -6.450234  -7.009206
     9  S   -0.075624   0.011282  -0.015479  -0.180106   0.540361   0.154119
    10  C   -0.464515  -0.060180   0.054505  -1.714520  -3.456834   2.685283
    11  C   -0.169951  -0.012510   0.016957  -1.092215  -2.421267   0.663248
    12  C   -0.063286   0.004915  -0.002072   0.063219  -1.482446  -0.390212
    13  N   -0.006758   0.000390   0.000271  -0.003704  -0.008232  -0.040362
    14  S   -0.001535   0.000131   0.000019   0.007472   0.002570  -0.007248
    15  N   -0.000376   0.000037   0.000013  -0.001217  -0.028879   0.026238
    16  C   -0.024290   0.000680   0.000683  -0.111779  -0.520873   0.110854
    17  C    0.044114  -0.001359  -0.000729   0.271906   0.198460  -0.268262
    18  C    0.002285  -0.000095   0.000067   0.008452  -0.266367   0.139927
    19  C   -0.000503   0.000007   0.000058  -0.000781  -0.016224  -0.021399
    20  C    0.000116  -0.000000   0.000004  -0.011282   0.041406  -0.017513
    21  N   -0.000001   0.000000  -0.000000   0.000070  -0.000265   0.000122
    22  S   -0.000019   0.000001   0.000001   0.000024  -0.000803  -0.000065
    23  N   -0.000008   0.000000   0.000000   0.000166   0.000439  -0.000228
    24  C   -0.004823   0.000243   0.000291   0.016114  -0.101279  -0.017434
    25  C   -0.072817   0.004879   0.004135   0.246148  -0.018128  -0.758144
    26  C   -0.002004   0.016432  -0.000908  -1.272441   1.038813  -1.791915
    27  C    0.292881  -0.063435  -0.042663  -1.683102  -2.987244   1.437195
    28  C   -0.697349   0.029221   0.083895   2.123543   0.594613  -0.775194
    29  C   -0.123864   0.031257   0.007878  -0.122099  -0.022602  -0.927713
    30  C   -0.075182   0.014301   0.016371  -0.018644  -0.199645  -0.360575
    31  C   -0.000395  -0.007359   0.005636  -0.005757   0.002768  -0.341647
    32  C   -0.010017   0.004933  -0.000468   0.000513  -0.024409  -0.049919
    33  C    0.006686  -0.004936  -0.004046   0.002236   0.022135   0.046566
    34  N   -0.012717   0.003791  -0.003366   0.019809  -0.004851  -0.128989
    35  H   -0.097736  -0.001237   0.009072   0.291830   0.035942  -0.013538
    36  H   -0.082168  -0.019030   0.026880   0.196863  -0.284137  -0.462557
    37  H    0.000703  -0.000012  -0.000035   0.002362   0.000305   0.007253
    38  H    0.000030  -0.000002   0.000001  -0.000990   0.000015  -0.000852
    39  H    0.349907  -0.011665  -0.008645  -0.479059   0.048437   0.170915
    40  H    0.001546  -0.000091  -0.000138   0.001937   0.019305  -0.029232
    41  H    0.000115  -0.000104   0.000049  -0.000074   0.000174   0.007182
    42  H    0.000091  -0.000010  -0.000037  -0.000061  -0.000079   0.000440
    43  H    0.001265  -0.000623  -0.000556  -0.000168   0.001229   0.004490
              7          8          9         10         11         12
     1  Si   0.334615  -1.490062  -0.075624  -0.464515  -0.169951  -0.063286
     2  H    0.131893  -0.011229   0.011282  -0.060180  -0.012510   0.004915
     3  H   -0.163595   0.037437  -0.015479   0.054505   0.016957  -0.002072
     4  C    0.786515  -0.032273  -0.180106  -1.714520  -1.092215   0.063219
     5  C    6.402460  -6.450234   0.540361  -3.456834  -2.421267  -1.482446
     6  C    0.613888  -7.009206   0.154119   2.685283   0.663248  -0.390212
     7  C   20.536777 -10.992782   0.120778  -5.667715  -1.939023  -1.776405
     8  C  -10.992782  27.657944  -1.809012   1.578361   1.964175   1.436723
     9  S    0.120778  -1.809012  19.814165  -0.094483  -0.737505  -0.619947
    10  C   -5.667715   1.578361  -0.094483  16.578458   3.196814  -0.310507
    11  C   -1.939023   1.964175  -0.737505   3.196814  19.247337   0.771161
    12  C   -1.776405   1.436723  -0.619947  -0.310507   0.771161  11.608715
    13  N   -0.004921  -0.004015   0.304129  -0.201426  -0.147790  -0.180921
    14  S   -0.005198  -0.059723  -0.027214   0.062750  -0.123571  -0.210989
    15  N   -0.012319   0.029769   0.002020  -0.087614   0.146996   0.546511
    16  C   -0.135343  -0.046641  -0.129749   0.681622   2.189472   2.150560
    17  C    0.081968   0.172438  -0.299594  -1.541354  -3.339967  -4.259349
    18  C   -0.009073  -0.005152  -0.317176  -0.260166  -1.178264  -2.471311
    19  C   -0.003659   0.009743   0.035092  -0.075351  -0.398614   0.717062
    20  C    0.002664   0.004432  -0.001190   0.005488  -0.234681  -0.575962
    21  N    0.000000  -0.000017   0.000174   0.000808   0.010266   0.013380
    22  S   -0.000002   0.000140   0.000561   0.002033  -0.011188   0.052884
    23  N   -0.000052  -0.000052   0.000281   0.001995   0.024629   0.042585
    24  C    0.009232   0.032424  -0.019708  -0.015891  -1.624184  -0.348661
    25  C   -0.094160   0.186626   0.157884  -1.606810  -5.428973   0.866476
    26  C   -0.665612   0.511981   0.225050  -2.609096  -2.259371   1.789613
    27  C   -0.057807  -0.538110  -0.096729   0.773126   0.271305  -0.746603
    28  C    0.194201   0.392557  -0.073604  -0.528344  -1.209404  -0.098845
    29  C   -1.976381   1.453529   0.043015   0.400722  -0.268925   0.015482
    30  C    0.395582  -1.374738  -0.308067  -0.982824   0.311418  -0.063627
    31  C   -0.740689   1.289479  -0.870653   0.513902   0.062676  -0.017260
    32  C   -0.016255  -0.902637  -0.139663  -0.101760   0.015729  -0.001639
    33  C   -0.103885   0.849712   0.112697   0.110117  -0.023957   0.001438
    34  N    0.179245  -0.603606   0.041748  -0.085001   0.002763   0.008151
    35  H    0.034440  -0.007247   0.003354   0.001959   0.018874  -0.007005
    36  H    0.056746   0.614209   0.068847  -0.095853  -0.009751  -0.017419
    37  H    0.001766  -0.002261  -0.004004   0.006269   0.071338  -0.050578
    38  H   -0.000174  -0.001487   0.001717  -0.012100  -0.037608  -0.067990
    39  H   -0.111681   0.019303   0.000968   0.063878   0.030478   0.012859
    40  H    0.010742  -0.055029  -0.048825  -0.049690   0.008804  -0.010197
    41  H    0.008748   0.011290   0.010918   0.006389  -0.001522  -0.000354
    42  H    0.003302  -0.009799  -0.005464  -0.001433   0.000117  -0.000126
    43  H   -0.015747   0.048741   0.002160   0.003007  -0.001204  -0.000057
             13         14         15         16         17         18
     1  Si  -0.006758  -0.001535  -0.000376  -0.024290   0.044114   0.002285
     2  H    0.000390   0.000131   0.000037   0.000680  -0.001359  -0.000095
     3  H    0.000271   0.000019   0.000013   0.000683  -0.000729   0.000067
     4  C   -0.003704   0.007472  -0.001217  -0.111779   0.271906   0.008452
     5  C   -0.008232   0.002570  -0.028879  -0.520873   0.198460  -0.266367
     6  C   -0.040362  -0.007248   0.026238   0.110854  -0.268262   0.139927
     7  C   -0.004921  -0.005198  -0.012319  -0.135343   0.081968  -0.009073
     8  C   -0.004015  -0.059723   0.029769  -0.046641   0.172438  -0.005152
     9  S    0.304129  -0.027214   0.002020  -0.129749  -0.299594  -0.317176
    10  C   -0.201426   0.062750  -0.087614   0.681622  -1.541354  -0.260166
    11  C   -0.147790  -0.123571   0.146996   2.189472  -3.339967  -1.178264
[...]
    14  S    5.862434   6.538451   5.923718   4.246715   4.502597
    15  N    6.038347   7.009488   6.690314   5.062858   4.747980
    16  C    4.954454   6.068384   5.968441   4.462771   3.756721
    17  C    5.212467   6.514015   6.694434   5.375346   4.268336
    18  C    6.228281   7.557906   7.781174   6.487263   5.394542
    19  C    7.353153   8.617369   8.680942   7.244959   6.374015
    20  C    7.779055   9.121091   9.329518   7.975654   6.902095
    21  N    8.931286  10.305694  10.582357   9.268584   8.138138
    22  S    9.665132  11.003531  11.206871   9.829342   8.773869
    23  N    8.136334   9.418187   9.586971   8.229621   7.194362
    24  C    6.915004   8.263009   8.566307   7.317852   6.097780
    25  C    5.027708   6.379049   6.744925   5.609909   4.262567
    26  C    3.251921   4.620823   5.143092   4.277615   2.697315
    27  C    2.460220   3.746575   4.712325   4.501524   2.814022
    28  C    2.860386   3.678842   4.851726   5.133364   3.677829
    29  C    3.762604   2.538491   1.451910   2.732742   3.916157
    30  C    4.769229   3.707688   2.463872   3.120253   4.599009
    31  C    6.024096   4.834981   3.706537   4.498043   5.957926
    32  C    6.413848   5.073498   4.158317   5.290258   6.610477
    33  C    5.671865   4.280906   3.605182   4.988271   6.094866
    34  N    4.344750   2.967021   2.383866   3.888261   4.831422
    35  H    3.536297   4.460130   5.736811   6.034909   4.508067
    36  H    2.294402   1.075136   2.062764   3.497520   3.366210
    37  H    6.448890   7.848719   8.256154   7.113186   5.813867
    38  H    7.421504   8.603489   8.522492   6.987483   6.301713
    39  H    3.682183   4.266977   5.571018   6.114009   4.736855
    40  H    4.792224   3.998028   2.703176   2.747777   4.321260
    41  H    6.855439   5.746978   4.577085   5.130751   6.648361
    42  H    7.476218   6.117135   5.236968   6.352223   7.687919
    43  H    6.323854   4.932976   4.444896   5.884901   6.883961
                   11         12         13         14         15
    11  C    0.000000
    12  C    1.434529   0.000000
    13  N    2.514053   1.343492   0.000000
    14  S    3.847049   2.432669   1.622950   0.000000
    15  N    3.645889   2.319453   2.442654   1.627478   0.000000
    16  C    2.479034   1.426461   2.272862   2.402516   1.337313
    17  C    2.832836   2.452127   3.590775   3.803871   2.475015
    18  C    4.039129   3.640126   4.642717   4.603937   3.132260
    19  C    5.014591   4.280602   5.019680   4.513007   2.940389
    20  C    5.459259   4.970978   5.893986   5.516430   3.891504
    21  N    6.705778   6.290974   7.220024   6.794797   5.172502
    22  S    7.301359   6.794601   7.640911   7.053998   5.467179
    23  N    5.733724   5.274192   6.151778   5.742488   4.246308
    24  C    4.630140   4.422571   5.515116   5.453276   3.943805
    25  C    2.823272   2.977807   4.251427   4.708854   3.517065
    26  C    1.522196   2.533274   3.820462   4.870858   4.200563
    27  C    2.617710   4.018603   5.113354   6.443609   6.013327
    28  C    3.938809   5.358999   6.302777   7.732928   7.458430
    29  C    5.329921   5.776880   5.345416   6.778142   7.763899
    30  C    5.862404   6.050682   5.373519   6.619623   7.805818
    31  C    7.235722   7.411501   6.676529   7.829346   9.093352
    32  C    7.995060   8.318751   7.681559   8.920677  10.122238
    33  C    7.545591   8.030205   7.555043   8.919706   9.978303
    34  N    6.296667   6.875302   6.533383   7.987944   8.917171
    35  H    4.674202   6.048335   7.080338   8.457102   8.012511
    36  H    4.745366   5.789300   5.988019   7.605814   8.079885
    37  H    4.472336   4.405018   5.548440   5.675456   4.215914
    38  H    4.957725   3.995113   4.540112   3.777664   2.202194
    39  H    5.111524   6.545225   7.478379   8.936354   8.649664
    40  H    5.404726   5.401960   4.610174   5.747676   6.997343
    41  H    7.824868   7.869526   7.030968   8.031421   9.381439
    42  H    9.067009   9.366829   8.687387   9.871132  11.121537
    43  H    8.348216   8.889891   8.461297   9.836571  10.859315
                   16         17         18         19         20
    16  C    0.000000
    17  C    1.424758   0.000000
    18  C    2.490259   1.396508   0.000000
    19  C    2.907068   2.290403   1.381244   0.000000
    20  C    3.639486   2.638127   1.809417   1.370184   0.000000
    21  N    4.971072   3.912270   2.897703   2.412423   1.344851
    22  S    5.453587   4.583173   3.963864   3.268891   2.158936
    23  N    4.076908   3.345652   3.376448   3.037681   2.115983
    24  C    3.335776   2.228838   2.322928   2.621711   1.746106
    25  C    2.392940   1.370566   2.368315   3.316383   3.116361
    26  C    2.889352   2.485965   3.609047   4.750583   4.820545
    27  C    4.709685   4.333823   5.275845   6.533335   6.534794
    28  C    6.191237   5.889353   6.849793   8.102348   8.040798
    29  C    7.192084   8.033400   9.118243   9.944356  10.657895
    30  C    7.433386   8.444040   9.587760  10.265419  11.019880
    31  C    8.781588   9.816084  10.960142  11.613527  12.381909
    32  C    9.715658  10.660906  11.754453  12.498985  13.265354
    33  C    9.434018  10.250248  11.275094  12.126859  12.871122
    34  N    8.276843   9.014763  10.026545  10.932045  11.638215
    35  H    6.694131   6.140964   6.727528   8.093761   8.054869
    36  H    7.115832   7.491934   8.506208   9.611607  10.071958
    37  H    3.416166   2.067652   1.158124   2.215583   1.925620
    38  H    2.577075   2.447228   2.154872   1.116846   2.002851
    39  H    7.360092   6.969218   7.803092   9.110436   9.009072
    40  H    6.734562   7.835416   9.010683   9.588714  10.351443
    41  H    9.190942  10.302597  11.476318  12.035731  12.811385
    42  H   10.756750  11.724955  12.821286  13.544950  14.322962
    43  H   10.279722  11.037289  12.003772  12.897670  13.647795
                   21         22         23         24         25
    21  N    0.000000
    22  S    1.658448   0.000000
    23  N    2.759155   2.031225   0.000000
    24  C    2.687041   2.846018   1.508823   0.000000
    25  C    4.249997   4.708209   3.196035   1.894173   0.000000
    26  C    5.946078   6.531432   4.989303   3.717368   1.829939
    27  C    7.529942   8.198745   6.716799   5.389505   3.601255
    28  C    8.995108   9.593085   8.055974   6.785082   5.059147
    29  C   11.930015  12.519886  10.876743   9.924461   8.132381
    30  C   12.333641  12.783632  11.080909  10.287649   8.589974
    31  C   13.700029  14.123369  12.401027  11.641586   9.951507
    32  C   14.557847  15.085011  13.398530  12.535672  10.775529
    33  C   14.121772  14.773908  13.154947  12.166934  10.349836
    34  N   12.870825  13.559700  11.967420  10.926105   9.091145
    35  H    8.832515   9.748410   8.560503   7.116469   5.520217
    36  H   11.223896  11.944669  10.362621   9.173849   7.280569
    37  H    2.638245   3.862946   3.465703   2.196718   2.413376
    38  H    3.118847   3.462123   2.869592   2.828854   3.468279
    39  H    9.869928  10.554204   9.126658   7.804880   6.148234
    40  H   11.682953  12.041699  10.320325   9.630207   8.020359
    41  H   14.145595  14.466778  12.712678  12.064180  10.449056
    42  H   15.620346  16.128088  14.428603  13.590986  11.839158
    43  H   14.869440  15.595317  14.022840  12.978069  11.142819
                   26         27         28         29         30
    26  C    0.000000
    27  C    1.924082   0.000000
    28  C    3.428330   1.586209   0.000000
    29  C    6.569118   6.114460   6.085542   0.000000
    30  C    7.181739   6.983280   7.027570   1.391752   0.000000
    31  C    8.532908   8.244337   8.144541   2.380057   1.379934
    32  C    9.239186   8.714863   8.460570   2.713016   2.381243
    33  C    8.721085   8.018261   7.718115   2.290918   2.717282
    34  N    7.436063   6.713380   6.486745   1.353653   2.418990
    35  H    4.071491   2.375924   2.148432   6.991652   8.143530
    36  H    5.478746   4.317378   3.878031   2.725274   3.998379
    37  H    3.674064   5.112629   6.626974   9.650654  10.227380
    38  H    4.882641   6.768943   8.308701   9.716843   9.891153
    39  H    4.577109   2.664810   1.303874   6.687114   7.752630
    40  H    6.764553   6.833739   7.051247   2.158955   1.083156
    41  H    9.133528   8.978054   8.911058   3.362427   2.133321
    42  H   10.307478   9.758800   9.441679   3.793772   3.364857
    43  H    9.475790   8.650663   8.273268   3.256202   3.792676
                   31         32         33         34         35
    31  C    0.000000
    32  C    1.387974   0.000000
    33  C    2.388748   1.388961   0.000000
    34  N    2.802163   2.406451   1.344411   0.000000
    35  H    9.276350   9.410881   8.433353   7.153040   0.000000
    36  H    4.898421   4.867922   3.918940   2.683452   4.563594
    37  H   11.607135  12.335886  11.773839  10.483174   6.321035
    38  H   11.210193  12.186327  11.935029  10.795409   8.560808
    39  H    8.770923   8.899089   8.027235   6.842861   1.810284
    40  H    2.145342   3.370339   3.796195   3.389565   8.273476
    41  H    1.082697   2.163077   3.385498   3.883920  10.165026
    42  H    2.143856   1.081385   2.158566   3.378146  10.400472
    43  H    3.376629   2.156708   1.085945   2.063898   8.799048
                   36         37         38         39         40
    36  H    0.000000
    37  H    8.721240   0.000000
    38  H    9.637107   3.105563   0.000000
    39  H    4.164011   7.466952   9.411664   0.000000
    40  H    4.516519   9.715800   9.128331   7.925575   0.000000
    41  H    5.872381  12.176009  11.542929   9.603891   2.468424
    42  H    5.839356  13.413261  13.209595   9.830453   4.271273
    43  H    4.414363  12.460979  12.766335   8.434203   4.866183
                   41         42         43
    41  H    0.000000
    42  H    2.497765   0.000000
    43  H    4.296234   2.510144   0.000000
 Stoichiometry    C23H11N5S3Si
 Framework group  C1[X(C23H11N5S3Si)]
 Deg. of freedom   123
 Full point group                 C1      NOp   1
 Largest Abelian subgroup         C1      NOp   1
 Largest concise Abelian subgroup C1      NOp   1
                         Standard orientation:                         
 ---------------------------------------------------------------------
 Center     Atomic      Atomic             Coordinates (Angstroms)
 Number     Number       Type             X           Y           Z
 ---------------------------------------------------------------------
      1         14           0        3.422741    4.184026    0.060548
      2          1           0        4.192964    3.416361    1.164026
      3          1           0        4.259337    3.624329   -1.191835
      4          6           0        1.656769    3.803335   -0.921457
      5          6           0        1.252169    2.550833   -0.518789
      6          6           0        2.015345    1.327752   -0.274554
      7          6           0        3.409932    0.987365   -0.174005
      8          6           0        3.650695   -0.356272   -0.111843
      9         16           0        2.200302   -1.198881   -0.085756
     10          6           0        1.223205    0.224868   -0.035940
     11          6           0       -0.242972    0.235407    0.124799
     12          6           0       -0.848415   -1.057013   -0.019983
     13          7           0       -0.274223   -2.270203   -0.078687
     14         16           0       -1.419016   -3.420322   -0.104002
     15          7           0       -2.709126   -2.431682   -0.187008
     16          6           0       -2.261425   -1.171566   -0.178320
     17          6           0       -3.029488    0.017941   -0.336716
     18          6           0       -4.019005    0.183322   -1.308179
     19          6           0       -4.940222   -0.844683   -1.259170
     20          6           0       -5.658295    0.081314   -0.549026
     21          7           0       -6.861687    0.568920   -0.899330
     22         16           0       -7.530879    0.045022    0.524805
     23          7           0       -5.785939   -0.081488    1.556820
     24          6           0       -4.792169    0.767450    0.802983
     25          6           0       -2.918192    0.982677    0.630418
     26          6           0       -1.142751    1.405407    0.497060
     27          6           0        0.195410    2.787920    0.505466
     28          6           0        1.315111    3.702065    1.158666
     29          6           0        4.928369   -1.043138   -0.050149
     30          6           0        5.047597   -2.231779    0.663918
     31          6           0        6.313043   -2.723862    0.910326
     32          6           0        7.396806   -2.115482    0.292423
     33          6           0        7.164322   -1.035048   -0.548902
     34          7           0        5.967959   -0.433036   -0.666109
     35          1           0        0.957954    4.672098   -0.724744
     36          1           0        4.290950    1.603580   -0.175450
     37          1           0       -4.353833    1.291740   -1.284732
     38          1           0       -4.751892   -1.704554   -0.571785
     39          1           0        1.867857    4.836773    0.831561
     40          1           0        4.171976   -2.743501    1.044257
     41          1           0        6.436030   -3.579432    1.562329
     42          1           0        8.394213   -2.504541    0.444762
     43          1           0        7.955629   -0.642772   -1.180749
 ---------------------------------------------------------------------
 Rotational constants (GHZ):      0.2277615      0.0574099      0.0474645
 Standard basis: 6-31++G(d,p) (6D, 7F)
 There are   690 symmetry adapted basis functions of A   symmetry.
 Integral buffers will be    131072 words long.
 Raffenetti 2 integral format.
 Two-electron integral symmetry is turned on.
   690 basis functions,  1208 primitive gaussians,   690 cartesian basis functions
   123 alpha electrons      123 beta electrons
       nuclear repulsion energy      3479.6016161498 Hartrees.
 NAtoms=   43 NActive=   43 NUniq=   43 SFac= 1.00D+00 NAtFMM=   60 NAOKFM=F Big=F
 One-electron integrals computed using PRISM.
 NBasis=   690 RedAO= T  NBF=   690
 NBsUse=   683 1.00D-06 NBFU=   683
 Initial guess read from the read-write file.
 B after Tr=     0.000000   -0.000000   -0.000000
         Rot=    1.000000   -0.000000    0.000000    0.000000 Ang=   0.00 deg.
 Initial guess orbital symmetries:
       Occupied  (A) (A) (A) (A) (A) (A) (A) (A) (A) (A) (A) (A)
                 (A) (A) (A) (A) (A) (A) (A) (A) (A) (A) (A) (A)
                 (A) (A) (A) (A) (A) (A) (A) (A) (A) (A) (A) (A)
                 (A) (A) (A) (A) (A) (A) (A) (A) (A) (A) (A) (A)
                 (A) (A) (A) (A) (A) (A) (A) (A) (A) (A) (A) (A)
                 (A) (A) (A) (A) (A) (A) (A) (A) (A) (A) (A) (A)
                 (A) (A) (A) (A) (A) (A) (A) (A) (A) (A) (A) (A)
                 (A) (A) (A) (A) (A) (A) (A) (A) (A) (A) (A) (A)
                 (A) (A) (A) (A) (A) (A) (A) (A) (A) (A) (A) (A)
                 (A) (A) (A) (A) (A) (A) (A) (A) (A) (A) (A) (A)
                 (A) (A) (A)
       Virtual   (A) (A) (A) (A) (A) (A) (A) (A) (A) (A) (A) (A)
                 (A) (A) (A) (A) (A) (A) (A) (A) (A) (A) (A) (A)
                 (A) (A) (A) (A) (A) (A) (A) (A) (A) (A) (A) (A)
                 (A) (A) (A) (A) (A) (A) (A) (A) (A) (A) (A) (A)
                 (A) (A) (A) (A) (A) (A) (A) (A) (A) (A) (A) (A)
                 (A) (A) (A) (A) (A) (A) (A) (A) (A) (A) (A) (A)
                 (A) (A) (A) (A) (A) (A) (A) (A) (A) (A) (A) (A)
                 (A) (A) (A) (A) (A) (A) (A) (A) (A) (A) (A) (A)
                 (A) (A) (A) (A) (A) (A) (A) (A) (A) (A) (A) (A)
                 (A) (A) (A) (A) (A) (A) (A) (A) (A) (A) (A) (A)
                 (A) (A) (A) (A) (A) (A) (A) (A) (A) (A) (A) (A)
                 (A) (A) (A) (A) (A) (A) (A) (A) (A) (A) (A) (A)
                 (A) (A) (A) (A) (A) (A) (A) (A) (A) (A) (A) (A)
                 (A) (A) (A) (A) (A) (A) (A) (A) (A) (A) (A) (A)
                 (A) (A) (A) (A) (A) (A) (A) (A) (A) (A) (A) (A)
                 (A) (A) (A) (A) (A) (A) (A) (A) (A) (A) (A) (A)
                 (A) (A) (A) (A) (A) (A) (A) (A) (A) (A) (A) (A)
                 (A) (A) (A) (A) (A) (A) (A) (A) (A) (A) (A) (A)
                 (A) (A) (A) (A) (A) (A) (A) (A) (A) (A) (A) (A)
                 (A) (A) (A) (A) (A) (A) (A) (A) (A) (A) (A) (A)
                 (A) (A) (A) (A) (A) (A) (A) (A) (A) (A) (A) (A)
                 (A) (A) (A) (A) (A) (A) (A) (A) (A) (A) (A) (A)
                 (A) (A) (A) (A) (A) (A) (A) (A) (A) (A) (A) (A)
                 (A) (A) (A) (A) (A) (A) (A) (A) (A) (A) (A) (A)
                 (A) (A) (A) (A) (A) (A) (A) (A) (A) (A) (A) (A)
                 (A) (A) (A) (A) (A) (A) (A) (A) (A) (A) (A) (A)
                 (A) (A) (A) (A) (A) (A) (A) (A) (A) (A) (A) (A)
                 (A) (A) (A) (A) (A) (A) (A) (A) (A) (A) (A) (A)
                 (A) (A) (A) (A) (A) (A) (A) (A) (A) (A) (A) (A)
                 (A) (A) (A) (A) (A) (A) (A) (A) (A) (A) (A) (A)
                 (A) (A) (A) (A) (A) (A) (A) (A) (A) (A) (A) (A)
                 (A) (A) (A) (A) (A) (A) (A) (A) (A) (A) (A) (A)
                 (A) (A) (A) (A) (A) (A) (A) (A) (A) (A) (A) (A)
                 (A) (A) (A) (A) (A) (A) (A) (A) (A) (A) (A) (A)
                 (A) (A) (A) (A) (A) (A) (A) (A) (A) (A) (A) (A)
                 (A) (A) (A) (A) (A) (A) (A) (A) (A) (A) (A) (A)
                 (A) (A) (A) (A) (A) (A) (A) (A) (A) (A) (A) (A)
                 (A) (A) (A) (A) (A) (A) (A) (A) (A) (A) (A) (A)
                 (A) (A) (A) (A) (A) (A) (A) (A) (A) (A) (A) (A)
                 (A) (A) (A) (A) (A) (A) (A) (A) (A) (A) (A) (A)
                 (A) (A) (A) (A) (A) (A) (A) (A) (A) (A) (A) (A)
                 (A) (A) (A) (A) (A) (A) (A) (A) (A) (A) (A) (A)
                 (A) (A) (A) (A) (A) (A) (A) (A) (A) (A) (A) (A)
                 (A) (A) (A) (A) (A) (A) (A) (A) (A) (A) (A) (A)
                 (A) (A) (A) (A) (A) (A) (A) (A) (A) (A) (A) (A)
                 (A) (A) (A) (A) (A) (A) (A) (A) (A) (A) (A) (A)
                 (A) (A) (A) (A) (A) (A) (A) (A)
 Harris functional with IExCor=  402 diagonalized for initial guess.
 ExpMin= 3.31D-02 ExpMax= 2.19D+04 ExpMxC= 3.30D+03 IAcc=3 IRadAn=         5 AccDes= 0.00D+00
 HarFok:  IExCor=  402 AccDes= 0.00D+00 IRadAn=         5 IDoV= 1
 ScaDFX=  1.000000  1.000000  1.000000  1.000000
 FoFCou: FMM=F IPFlag=           0 FMFlag=      100000 FMFlg1=           0
         NFxFlg=           0 DoJE=T BraDBF=F KetDBF=T FulRan=T
         Omega=  0.000000  0.000000  1.000000  0.000000  0.000000 ICntrl=     500 IOpCl=  0
         NMat0=    1 NMatS0=    1 NMatT0=    0 NMatD0=    1 NMtDS0=    0 NMtDT0=    0
         I1Cent=           4 NGrid=           0.
 Petite list used in FoFCou.
 Requested convergence on RMS density matrix=1.00D-08 within 128 cycles.
 Requested convergence on MAX density matrix=1.00D-06.
 Requested convergence on             energy=1.00D-06.
 No special actions if energy rises.
 EnCoef did     5 forward-backward iterations
 Restarting incremental Fock formation.
 Restarting incremental Fock formation.
 Restarting incremental Fock formation.
 Restarting incremental Fock formation.
 Restarting incremental Fock formation.
 Restarting incremental Fock formation.
 >>>>>>>>>> Convergence criterion not met.
 SCF Done:  E(RB3LYP) =  -2639.68840174     A.U. after  129 cycles
             Convg  =    0.5915D-03             -V/T =  2.0062
 Convergence failure -- run terminated.
 Error termination via Lnk1e in /opt/gaussian/g09/l502.exe at Sun Dec 29 04:19:47 2013.
 Job cpu time:  1 days  0 hours 32 minutes 40.9 seconds.
 File lengths (MBytes):  RWF=    288 Int=      0 D2E=      0 Chk=     28 Scr=      1
