 Entering Gaussian System, Link 0=g09
 Initial command:
 /opt/gaussian/g09/l1.exe /panfs/panfs.cluster/home/shuo/Gau-7604.inp -scrdir=/panfs/panfs.cluster/home/shuo/
 Default is to use a total of  12 processors:
                               12 via shared-memory
                                1 via Linda
 Entering Link 1 = /opt/gaussian/g09/l1.exe PID=      7605.
  
 Copyright (c) 1988,1990,1992,1993,1995,1998,2003,2009,2011,
            Gaussian, Inc.  All Rights Reserved.
  
 This is part of the Gaussian(R) 09 program.  It is based on
 the Gaussian(R) 03 system (copyright 2003, Gaussian, Inc.),
 the Gaussian(R) 98 system (copyright 1998, Gaussian, Inc.),
 the Gaussian(R) 94 system (copyright 1995, Gaussian, Inc.),
 the Gaussian 92(TM) system (copyright 1992, Gaussian, Inc.),
 the Gaussian 90(TM) system (copyright 1990, Gaussian, Inc.),
 the Gaussian 88(TM) system (copyright 1988, Gaussian, Inc.),
 the Gaussian 86(TM) system (copyright 1986, Carnegie Mellon
 University), and the Gaussian 82(TM) system (copyright 1983,
 Carnegie Mellon University). Gaussian is a federally registered
 trademark of Gaussian, Inc.
  
 This software contains proprietary and confidential information,
 including trade secrets, belonging to Gaussian, Inc.
  
 This software is provided under written license and may be
 used, copied, transmitted, or stored only in accord with that
 written license.
  
 The following legend is applicable only to US Government
 contracts under FAR:
  
                    RESTRICTED RIGHTS LEGEND
  
 Use, reproduction and disclosure by the US Government is
 subject to restrictions as set forth in subparagraphs (a)
 and (c) of the Commercial Computer Software - Restricted
 Rights clause in FAR 52.227-19.
  
 Gaussian, Inc.
 340 Quinnipiac St., Bldg. 40, Wallingford CT 06492
  
  
 ---------------------------------------------------------------
 Warning -- This program may not be used in any manner that
 competes with the business of Gaussian, Inc. or will provide
 assistance to any competitor of Gaussian, Inc.  The licensee
 of this program is prohibited from giving any competitor of
 Gaussian, Inc. access to this program.  By using this program,
 the user acknowledges that Gaussian, Inc. is engaged in the
 business of creating and licensing software in the field of
 computational chemistry and represents and warrants to the
 licensee that it is not a competitor of Gaussian, Inc. and that
 it will not use this program in any manner prohibited above.
 ---------------------------------------------------------------
  

 Cite this work as:
 Gaussian 09, Revision C.01,
 M. J. Frisch, G. W. Trucks, H. B. Schlegel, G. E. Scuseria, 
 M. A. Robb, J. R. Cheeseman, G. Scalmani, V. Barone, B. Mennucci, 
 G. A. Petersson, H. Nakatsuji, M. Caricato, X. Li, H. P. Hratchian, 
 A. F. Izmaylov, J. Bloino, G. Zheng, J. L. Sonnenberg, M. Hada, 
 M. Ehara, K. Toyota, R. Fukuda, J. Hasegawa, M. Ishida, T. Nakajima, 
 Y. Honda, O. Kitao, H. Nakai, T. Vreven, J. A. Montgomery, Jr., 
 J. E. Peralta, F. Ogliaro, M. Bearpark, J. J. Heyd, E. Brothers, 
 K. N. Kudin, V. N. Staroverov, T. Keith, R. Kobayashi, J. Normand, 
 K. Raghavachari, A. Rendell, J. C. Burant, S. S. Iyengar, J. Tomasi, 
 M. Cossi, N. Rega, J. M. Millam, M. Klene, J. E. Knox, J. B. Cross, 
 V. Bakken, C. Adamo, J. Jaramillo, R. Gomperts, R. E. Stratmann, 
 O. Yazyev, A. J. Austin, R. Cammi, C. Pomelli, J. W. Ochterski, 
 R. L. Martin, K. Morokuma, V. G. Zakrzewski, G. A. Voth, 
 P. Salvador, J. J. Dannenberg, S. Dapprich, A. D. Daniels, 
 O. Farkas, J. B. Foresman, J. V. Ortiz, J. Cioslowski, 
 and D. J. Fox, Gaussian, Inc., Wallingford CT, 2010.
 
 ******************************************
 Gaussian 09:  EM64L-G09RevC.01 23-Sep-2011
                29-Dec-2013 
 ******************************************
 %chk=45_C24H12N4OS3.chk
 %NProcShared=12
 Will use up to   12 processors via shared memory.
 %Mem=8000MB
 Default route:  MaxDisk=100GB
 --------------------------------------------
 #B3LYP/6-31++G(d,p) opt scf=direct freq test
 --------------------------------------------
 1/14=-1,18=20,19=15,26=3,38=1/1,3;
 2/9=110,12=2,17=6,18=5,40=1/2;
 3/5=1,6=6,7=1111,11=2,16=1,25=1,30=1,71=1,74=-5/1,2,3;
 4//1;
 5/5=2,38=5/2;
 6/7=2,8=2,9=2,10=2,28=1/1;
 7//1,2,3,16;
 1/14=-1,18=20,19=15/3(2);
 2/9=110/2;
 99//99;
 2/9=110/2;
 3/5=1,6=6,7=1111,11=2,16=1,25=1,30=1,71=1,74=-5/1,2,3;
 4/5=5,16=3/1;
 5/5=2,38=5/2;
 7//1,2,3,16;
 1/14=-1,18=20,19=15/3(-5);
 2/9=110/2;
 6/7=2,8=2,9=2,10=2,19=2,28=1/1;
 99/9=1/99;
 ----------------------------------------------------------------------
 Geom opt of No.45 candidate from the CEPDB database with SMILE code of
  c1cc(oc1-c1ccc(-c2cncc3nsnc23)c2cscc12)-c1cncc2nsnc12, HPC, 20131227,
  Shuo Dai, Gaussian09
 ----------------------------------------------------------------------
 Charge =  0 Multiplicity = 1
 Symbolic Z-Matrix:
 C                    -1.3034    0.11671  -0.00146 
 C                    -0.51367   1.25989  -0.00045 
 C                     0.79971   0.83891  -0.00572 
 O                     0.85184  -0.5116   -0.0167 
 C                    -0.43722  -0.93406  -0.01191 
 C                    -0.69011  -2.34121  -0.01774 
 C                    -2.0228   -2.78675  -0.0735 
 C                    -2.383    -4.14436  -0.07298 
 C                    -1.46184  -5.22528   0.01425 
 C                    -1.92673  -6.60718  -0.01805 
 C                    -3.281    -6.98409   0.11617 
 N                    -3.82453  -8.24162   0.15738 
 C                    -3.01464  -9.33038   0.12805 
 C                    -1.63648  -9.12758  -0.01627 
 N                    -0.68266  -10.07397   0.01992 
 S                     0.74952  -9.30875  -0.2897 
 N                     0.17659  -7.7971   -0.6046 
 C                    -1.10403  -7.74782  -0.20176 
 C                    -0.11909  -4.75741   0.12426 
 C                     0.99542  -5.47756   0.48638 
 S                     2.45876  -4.66689   0.12515 
 C                     1.62228  -3.18178   0.14386 
 C                     0.25314  -3.36025   0.06617 
 C                     2.0514    1.53889  -0.00117 
 C                     3.33555   0.99116   0.00669 
 N                     4.51805   1.69276   0.01724 
 C                     4.52009   3.06145   0.01899 
 C                     3.28428   3.73394   0.0093 
 N                     3.08553   5.06266   0.00834 
 S                     1.44647   5.30366  -0.00534 
 N                     0.93424   3.74316  -0.00919 
 C                     2.02314   2.95146  -0.00094 
 H                    -2.38527   0.07541   0.00493 
 H                    -0.87828   2.27008   0.00532 
 H                    -2.83918  -2.06817  -0.12661 
 H                    -3.4577   -4.31154  -0.14032 
 H                    -4.06303  -6.22739   0.19615 
 H                    -3.46677  -10.30631   0.19196 
 H                     1.10042  -6.47103   0.87669 
 H                     2.21644  -2.28692   0.18573 
 H                     3.48032  -0.09107   0.00514 
 H                     5.47106   3.57222   0.02715 
 

 GradGradGradGradGradGradGradGradGradGradGradGradGradGradGradGradGradGrad
 Berny optimization.
 Initialization pass.
                           ----------------------------
                           !    Initial Parameters    !
                           ! (Angstroms and Degrees)  !
 --------------------------                            --------------------------
 ! Name  Definition              Value          Derivative Info.                !
 --------------------------------------------------------------------------------
 ! R1    R(1,2)                  1.3894         estimate D2E/DX2                !
 ! R2    R(1,5)                  1.3618         estimate D2E/DX2                !
 ! R3    R(1,33)                 1.0827         estimate D2E/DX2                !
 ! R4    R(2,3)                  1.3792         estimate D2E/DX2                !
 ! R5    R(2,34)                 1.074          estimate D2E/DX2                !
 ! R6    R(3,4)                  1.3516         estimate D2E/DX2                !
 ! R7    R(3,24)                 1.4341         estimate D2E/DX2                !
 ! R8    R(4,5)                  1.3565         estimate D2E/DX2                !
 ! R9    R(5,6)                  1.4297         estimate D2E/DX2                !
 ! R10   R(6,7)                  1.4063         estimate D2E/DX2                !
 ! R11   R(6,23)                 1.3911         estimate D2E/DX2                !
 ! R12   R(7,8)                  1.4046         estimate D2E/DX2                !
 ! R13   R(7,35)                 1.0889         estimate D2E/DX2                !
 ! R14   R(8,9)                  1.4229         estimate D2E/DX2                !
 ! R15   R(8,36)                 1.0897         estimate D2E/DX2                !
 ! R16   R(9,10)                 1.4584         estimate D2E/DX2                !
 ! R17   R(9,19)                 1.4262         estimate D2E/DX2                !
 ! R18   R(10,11)                1.4121         estimate D2E/DX2                !
 ! R19   R(10,18)                1.4183         estimate D2E/DX2                !
 ! R20   R(11,12)                1.3706         estimate D2E/DX2                !
 ! R21   R(11,37)                1.0911         estimate D2E/DX2                !
 ! R22   R(12,13)                1.3573         estimate D2E/DX2                !
 ! R23   R(13,14)                1.4005         estimate D2E/DX2                !
 ! R24   R(13,38)                1.0775         estimate D2E/DX2                !
 ! R25   R(14,15)                1.3441         estimate D2E/DX2                !
 ! R26   R(14,18)                1.4905         estimate D2E/DX2                !
 ! R27   R(15,16)                1.653          estimate D2E/DX2                !
 ! R28   R(16,17)                1.647          estimate D2E/DX2                !
 ! R29   R(17,18)                1.3434         estimate D2E/DX2                !
 ! R30   R(19,20)                1.3755         estimate D2E/DX2                !
 ! R31   R(19,23)                1.4471         estimate D2E/DX2                !
 ! R32   R(20,21)                1.7114         estimate D2E/DX2                !
 ! R33   R(20,39)                1.0725         estimate D2E/DX2                !
 ! R34   R(21,22)                1.7046         estimate D2E/DX2                !
 ! R35   R(22,23)                1.3829         estimate D2E/DX2                !
 ! R36   R(22,40)                1.075          estimate D2E/DX2                !
 ! R37   R(24,25)                1.3961         estimate D2E/DX2                !
 ! R38   R(24,32)                1.4129         estimate D2E/DX2                !
 ! R39   R(25,26)                1.375          estimate D2E/DX2                !
 ! R40   R(25,41)                1.0919         estimate D2E/DX2                !
 ! R41   R(26,27)                1.3687         estimate D2E/DX2                !
 ! R42   R(27,28)                1.407          estimate D2E/DX2                !
 ! R43   R(27,42)                1.0795         estimate D2E/DX2                !
 ! R44   R(28,29)                1.3435         estimate D2E/DX2                !
 ! R45   R(28,32)                1.4842         estimate D2E/DX2                !
 ! R46   R(29,30)                1.6567         estimate D2E/DX2                !
 ! R47   R(30,31)                1.6424         estimate D2E/DX2                !
 ! R48   R(31,32)                1.3463         estimate D2E/DX2                !
 ! A1    A(2,1,5)              105.8627         estimate D2E/DX2                !
 ! A2    A(2,1,33)             126.8226         estimate D2E/DX2                !
 ! A3    A(5,1,33)             127.3148         estimate D2E/DX2                !
 ! A4    A(1,2,3)              106.8648         estimate D2E/DX2                !
 ! A5    A(1,2,34)             125.5161         estimate D2E/DX2                !
 ! A6    A(3,2,34)             127.619          estimate D2E/DX2                !
 ! A7    A(2,3,4)              109.9839         estimate D2E/DX2                !
 ! A8    A(2,3,24)             133.0109         estimate D2E/DX2                !
 ! A9    A(4,3,24)             117.0052         estimate D2E/DX2                !
 ! A10   A(3,4,5)              105.9325         estimate D2E/DX2                !
 ! A11   A(1,5,4)              111.3552         estimate D2E/DX2                !
 ! A12   A(1,5,6)              130.3125         estimate D2E/DX2                !
 ! A13   A(4,5,6)              118.3323         estimate D2E/DX2                !
 ! A14   A(5,6,7)              118.6596         estimate D2E/DX2                !
 ! A15   A(5,6,23)             126.9269         estimate D2E/DX2                !
 ! A16   A(7,6,23)             114.3855         estimate D2E/DX2                !
 ! A17   A(6,7,8)              123.3143         estimate D2E/DX2                !
 ! A18   A(6,7,35)             120.2225         estimate D2E/DX2                !
 ! A19   A(8,7,35)             116.4622         estimate D2E/DX2                !
 ! A20   A(7,8,9)              124.63           estimate D2E/DX2                !
 ! A21   A(7,8,36)             113.6519         estimate D2E/DX2                !
 ! A22   A(9,8,36)             121.717          estimate D2E/DX2                !
 ! A23   A(8,9,10)             120.805          estimate D2E/DX2                !
 ! A24   A(8,9,19)             111.4099         estimate D2E/DX2                !
 ! A25   A(10,9,19)            127.7847         estimate D2E/DX2                !
 ! A26   A(9,10,11)            123.8157         estimate D2E/DX2                !
 ! A27   A(9,10,18)            125.4516         estimate D2E/DX2                !
 ! A28   A(11,10,18)           110.7286         estimate D2E/DX2                !
 ! A29   A(10,11,12)           128.9077         estimate D2E/DX2                !
 ! A30   A(10,11,37)           120.6115         estimate D2E/DX2                !
 ! A31   A(12,11,37)           110.4791         estimate D2E/DX2                !
 ! A32   A(11,12,13)           119.9151         estimate D2E/DX2                !
 ! A33   A(12,13,14)           118.2468         estimate D2E/DX2                !
 ! A34   A(12,13,38)           118.3529         estimate D2E/DX2                !
 ! A35   A(14,13,38)           123.3818         estimate D2E/DX2                !
 ! A36   A(13,14,15)           126.4114         estimate D2E/DX2                !
 ! A37   A(13,14,18)           119.8949         estimate D2E/DX2                !
 ! A38   A(15,14,18)           113.6796         estimate D2E/DX2                !
 ! A39   A(14,15,16)           106.4886         estimate D2E/DX2                !
 ! A40   A(15,16,17)            99.1665         estimate D2E/DX2                !
 ! A41   A(16,17,18)           107.9358         estimate D2E/DX2                !
 ! A42   A(10,18,14)           121.408          estimate D2E/DX2                !
 ! A43   A(10,18,17)           128.4104         estimate D2E/DX2                !
 ! A44   A(14,18,17)           110.1143         estimate D2E/DX2                !
 ! A45   A(9,19,20)            127.693          estimate D2E/DX2                !
 ! A46   A(9,19,23)            123.7682         estimate D2E/DX2                !
 ! A47   A(20,19,23)           107.9179         estimate D2E/DX2                !
 ! A48   A(19,20,21)           112.9077         estimate D2E/DX2                !
 ! A49   A(19,20,39)           131.3078         estimate D2E/DX2                !
 ! A50   A(21,20,39)           115.5855         estimate D2E/DX2                !
 ! A51   A(20,21,22)            89.4721         estimate D2E/DX2                !
 ! A52   A(21,22,23)           111.8875         estimate D2E/DX2                !
 ! A53   A(21,22,40)           117.0305         estimate D2E/DX2                !
 ! A54   A(23,22,40)           131.0594         estimate D2E/DX2                !
 ! A55   A(6,23,19)            122.3628         estimate D2E/DX2                !
 ! A56   A(6,23,22)            125.4614         estimate D2E/DX2                !
 ! A57   A(19,23,22)           112.1492         estimate D2E/DX2                !
 ! A58   A(3,24,25)            127.6855         estimate D2E/DX2                !
 ! A59   A(3,24,32)            118.0689         estimate D2E/DX2                !
 ! A60   A(25,24,32)           114.2454         estimate D2E/DX2                !
 ! A61   A(24,25,26)           126.2199         estimate D2E/DX2                !
 ! A62   A(24,25,41)           120.7179         estimate D2E/DX2                !
 ! A63   A(26,25,41)           113.0622         estimate D2E/DX2                !
 ! A64   A(25,26,27)           120.7665         estimate D2E/DX2                !
 ! A65   A(26,27,28)           118.4669         estimate D2E/DX2                !
 ! A66   A(26,27,42)           118.3256         estimate D2E/DX2                !
 ! A67   A(28,27,42)           123.2075         estimate D2E/DX2                !
 ! A68   A(27,28,29)           127.0602         estimate D2E/DX2                !
 ! A69   A(27,28,32)           119.6302         estimate D2E/DX2                !
 ! A70   A(29,28,32)           113.3096         estimate D2E/DX2                !
 ! A71   A(28,29,30)           106.8716         estimate D2E/DX2                !
 ! A72   A(29,30,31)            99.8085         estimate D2E/DX2                !
 ! A73   A(30,31,32)           107.846          estimate D2E/DX2                !
 ! A74   A(24,32,28)           120.6709         estimate D2E/DX2                !
 ! A75   A(24,32,31)           127.1648         estimate D2E/DX2                !
 ! A76   A(28,32,31)           112.1644         estimate D2E/DX2                !
 ! D1    D(5,1,2,3)             -0.2039         estimate D2E/DX2                !
 ! D2    D(5,1,2,34)           179.9032         estimate D2E/DX2                !
 ! D3    D(33,1,2,3)           179.7878         estimate D2E/DX2                !
 ! D4    D(33,1,2,34)           -0.1052         estimate D2E/DX2                !
 ! D5    D(2,1,5,4)              0.0363         estimate D2E/DX2                !
 ! D6    D(2,1,5,6)           -179.985          estimate D2E/DX2                !
 ! D7    D(33,1,5,4)          -179.9552         estimate D2E/DX2                !
 ! D8    D(33,1,5,6)             0.0234         estimate D2E/DX2                !
 ! D9    D(1,2,3,4)              0.3058         estimate D2E/DX2                !
 ! D10   D(1,2,3,24)          -179.6571         estimate D2E/DX2                !
 ! D11   D(34,2,3,4)          -179.8042         estimate D2E/DX2                !
 ! D12   D(34,2,3,24)            0.2329         estimate D2E/DX2                !
 ! D13   D(2,3,4,5)             -0.2796         estimate D2E/DX2                !
 ! D14   D(24,3,4,5)           179.6899         estimate D2E/DX2                !
 ! D15   D(2,3,24,25)          179.2638         estimate D2E/DX2                !
 ! D16   D(2,3,24,32)           -0.5554         estimate D2E/DX2                !
 ! D17   D(4,3,24,25)           -0.697          estimate D2E/DX2                !
 ! D18   D(4,3,24,32)          179.4838         estimate D2E/DX2                !
 ! D19   D(3,4,5,1)              0.1488         estimate D2E/DX2                !
 ! D20   D(3,4,5,6)           -179.8327         estimate D2E/DX2                !
 ! D21   D(1,5,6,7)              2.8404         estimate D2E/DX2                !
 ! D22   D(1,5,6,23)          -175.1181         estimate D2E/DX2                !
 ! D23   D(4,5,6,7)           -177.1821         estimate D2E/DX2                !
 ! D24   D(4,5,6,23)             4.8593         estimate D2E/DX2                !
 ! D25   D(5,6,7,8)           -179.4564         estimate D2E/DX2                !
 ! D26   D(5,6,7,35)             0.9364         estimate D2E/DX2                !
 ! D27   D(23,6,7,8)            -1.2481         estimate D2E/DX2                !
 ! D28   D(23,6,7,35)          179.1447         estimate D2E/DX2                !
 ! D29   D(5,6,23,19)          176.57           estimate D2E/DX2                !
 ! D30   D(5,6,23,22)           -1.403          estimate D2E/DX2                !
 ! D31   D(7,6,23,19)           -1.4633         estimate D2E/DX2                !
 ! D32   D(7,6,23,22)         -179.4363         estimate D2E/DX2                !
 ! D33   D(6,7,8,9)              1.5246         estimate D2E/DX2                !
 ! D34   D(6,7,8,36)          -178.8559         estimate D2E/DX2                !
 ! D35   D(35,7,8,9)          -178.8545         estimate D2E/DX2                !
 ! D36   D(35,7,8,36)            0.765          estimate D2E/DX2                !
 ! D37   D(7,8,9,10)          -178.8245         estimate D2E/DX2                !
 ! D38   D(7,8,9,19)             0.9729         estimate D2E/DX2                !
 ! D39   D(36,8,9,10)            1.5852         estimate D2E/DX2                !
 ! D40   D(36,8,9,19)         -178.6174         estimate D2E/DX2                !
 ! D41   D(8,9,10,11)          -12.2805         estimate D2E/DX2                !
 ! D42   D(8,9,10,18)          166.9097         estimate D2E/DX2                !
 ! D43   D(19,9,10,11)         167.9582         estimate D2E/DX2                !
 ! D44   D(19,9,10,18)         -12.8516         estimate D2E/DX2                !
 ! D45   D(8,9,19,20)          166.1487         estimate D2E/DX2                !
 ! D46   D(8,9,19,23)           -3.7021         estimate D2E/DX2                !
 ! D47   D(10,9,19,20)         -14.0715         estimate D2E/DX2                !
 ! D48   D(10,9,19,23)         176.0777         estimate D2E/DX2                !
 ! D49   D(9,10,11,12)        -176.9861         estimate D2E/DX2                !
 ! D50   D(9,10,11,37)           3.5404         estimate D2E/DX2                !
 ! D51   D(18,10,11,12)          3.7192         estimate D2E/DX2                !
 ! D52   D(18,10,11,37)       -175.7543         estimate D2E/DX2                !
 ! D53   D(9,10,18,14)         170.6514         estimate D2E/DX2                !
 ! D54   D(9,10,18,17)         -12.641          estimate D2E/DX2                !
 ! D55   D(11,10,18,14)        -10.068          estimate D2E/DX2                !
 ! D56   D(11,10,18,17)        166.6396         estimate D2E/DX2                !
 ! D57   D(10,11,12,13)          3.1979         estimate D2E/DX2                !
 ! D58   D(37,11,12,13)       -177.2858         estimate D2E/DX2                !
 ! D59   D(11,12,13,14)         -3.3485         estimate D2E/DX2                !
 ! D60   D(11,12,13,38)        178.1659         estimate D2E/DX2                !
 ! D61   D(12,13,14,15)        175.4582         estimate D2E/DX2                !
 ! D62   D(12,13,14,18)         -3.0854         estimate D2E/DX2                !
 ! D63   D(38,13,14,15)         -6.1378         estimate D2E/DX2                !
 ! D64   D(38,13,14,18)        175.3185         estimate D2E/DX2                !
 ! D65   D(13,14,15,16)        176.7743         estimate D2E/DX2                !
 ! D66   D(18,14,15,16)         -4.6044         estimate D2E/DX2                !
 ! D67   D(13,14,18,10)         10.5359         estimate D2E/DX2                !
 ! D68   D(13,14,18,17)       -166.7172         estimate D2E/DX2                !
 ! D69   D(15,14,18,10)       -168.1844         estimate D2E/DX2                !
 ! D70   D(15,14,18,17)         14.5626         estimate D2E/DX2                !
 ! D71   D(14,15,16,17)         -4.7008         estimate D2E/DX2                !
 ! D72   D(15,16,17,18)         13.2768         estimate D2E/DX2                !
 ! D73   D(16,17,18,10)        166.152          estimate D2E/DX2                !
 ! D74   D(16,17,18,14)        -16.8402         estimate D2E/DX2                !
 ! D75   D(9,19,20,21)         165.644          estimate D2E/DX2                !
 ! D76   D(9,19,20,39)          -8.9049         estimate D2E/DX2                !
 ! D77   D(23,19,20,21)        -23.2119         estimate D2E/DX2                !
 ! D78   D(23,19,20,39)        162.2392         estimate D2E/DX2                !
 ! D79   D(9,19,23,6)            4.2394         estimate D2E/DX2                !
 ! D80   D(9,19,23,22)        -177.543          estimate D2E/DX2                !
 ! D81   D(20,19,23,6)        -167.3339         estimate D2E/DX2                !
 ! D82   D(20,19,23,22)         10.8837         estimate D2E/DX2                !
 ! D83   D(19,20,21,22)         23.0893         estimate D2E/DX2                !
 ! D84   D(39,20,21,22)       -161.4485         estimate D2E/DX2                !
 ! D85   D(20,21,22,23)        -15.9046         estimate D2E/DX2                !
 ! D86   D(20,21,22,40)        165.6346         estimate D2E/DX2                !
 ! D87   D(21,22,23,6)        -176.0718         estimate D2E/DX2                !
 ! D88   D(21,22,23,19)          5.7767         estimate D2E/DX2                !
 ! D89   D(40,22,23,6)           2.1098         estimate D2E/DX2                !
 ! D90   D(40,22,23,19)       -176.0417         estimate D2E/DX2                !
 ! D91   D(3,24,25,26)        -179.6719         estimate D2E/DX2                !
 ! D92   D(3,24,25,41)           0.3058         estimate D2E/DX2                !
 ! D93   D(32,24,25,26)          0.1532         estimate D2E/DX2                !
 ! D94   D(32,24,25,41)       -179.8692         estimate D2E/DX2                !
 ! D95   D(3,24,32,28)         179.747          estimate D2E/DX2                !
 ! D96   D(3,24,32,31)          -0.2466         estimate D2E/DX2                !
 ! D97   D(25,24,32,28)         -0.0961         estimate D2E/DX2                !
 ! D98   D(25,24,32,31)        179.9103         estimate D2E/DX2                !
 ! D99   D(24,25,26,27)         -0.0986         estimate D2E/DX2                !
 ! D100  D(41,25,26,27)        179.9223         estimate D2E/DX2                !
 ! D101  D(25,26,27,28)         -0.0206         estimate D2E/DX2                !
 ! D102  D(25,26,27,42)       -179.9845         estimate D2E/DX2                !
 ! D103  D(26,27,28,29)       -179.9494         estimate D2E/DX2                !
 ! D104  D(26,27,28,32)          0.067          estimate D2E/DX2                !
 ! D105  D(42,27,28,29)          0.0126         estimate D2E/DX2                !
 ! D106  D(42,27,28,32)       -179.971          estimate D2E/DX2                !
 ! D107  D(27,28,29,30)        179.9816         estimate D2E/DX2                !
 ! D108  D(32,28,29,30)         -0.0339         estimate D2E/DX2                !
 ! D109  D(27,28,32,24)         -0.0055         estimate D2E/DX2                !
 ! D110  D(27,28,32,31)        179.989          estimate D2E/DX2                !
 ! D111  D(29,28,32,24)       -179.9913         estimate D2E/DX2                !
 ! D112  D(29,28,32,31)          0.0032         estimate D2E/DX2                !
 ! D113  D(28,29,30,31)          0.0462         estimate D2E/DX2                !
 ! D114  D(29,30,31,32)         -0.0448         estimate D2E/DX2                !
 ! D115  D(30,31,32,24)       -179.9763         estimate D2E/DX2                !
 ! D116  D(30,31,32,28)          0.0297         estimate D2E/DX2                !
 --------------------------------------------------------------------------------
 Trust Radius=3.00D-01 FncErr=1.00D-07 GrdErr=1.00D-06
 Number of steps in this run=    250 maximum allowed number of steps=    252.
 GradGradGradGradGradGradGradGradGradGradGradGradGradGradGradGradGradGrad

                          Input orientation:                          
 ---------------------------------------------------------------------
 Center     Atomic      Atomic             Coordinates (Angstroms)
 Number     Number       Type             X           Y           Z
 ---------------------------------------------------------------------
      1          6           0       -1.303400    0.116710   -0.001460
      2          6           0       -0.513670    1.259890   -0.000450
      3          6           0        0.799710    0.838910   -0.005720
      4          8           0        0.851840   -0.511600   -0.016700
      5          6           0       -0.437220   -0.934060   -0.011910
      6          6           0       -0.690110   -2.341210   -0.017740
      7          6           0       -2.022800   -2.786750   -0.073500
      8          6           0       -2.383000   -4.144360   -0.072980
      9          6           0       -1.461840   -5.225280    0.014250
     10          6           0       -1.926730   -6.607180   -0.018050
     11          6           0       -3.281000   -6.984090    0.116170
     12          7           0       -3.824530   -8.241620    0.157380
     13          6           0       -3.014640   -9.330380    0.128050
     14          6           0       -1.636480   -9.127580   -0.016270
     15          7           0       -0.682660  -10.073970    0.019920
     16         16           0        0.749520   -9.308750   -0.289700
     17          7           0        0.176590   -7.797100   -0.604600
     18          6           0       -1.104030   -7.747820   -0.201760
     19          6           0       -0.119090   -4.757410    0.124260
     20          6           0        0.995420   -5.477560    0.486380
     21         16           0        2.458760   -4.666890    0.125150
     22          6           0        1.622280   -3.181780    0.143860
     23          6           0        0.253140   -3.360250    0.066170
     24          6           0        2.051400    1.538890   -0.001170
     25          6           0        3.335550    0.991160    0.006690
     26          7           0        4.518050    1.692760    0.017240
     27          6           0        4.520090    3.061450    0.018990
     28          6           0        3.284280    3.733940    0.009300
     29          7           0        3.085530    5.062660    0.008340
     30         16           0        1.446470    5.303660   -0.005340
     31          7           0        0.934240    3.743160   -0.009190
     32          6           0        2.023140    2.951460   -0.000940
     33          1           0       -2.385270    0.075410    0.004930
     34          1           0       -0.878280    2.270080    0.005320
     35          1           0       -2.839180   -2.068170   -0.126610
     36          1           0       -3.457700   -4.311540   -0.140320
     37          1           0       -4.063030   -6.227390    0.196150
     38          1           0       -3.466770  -10.306310    0.191960
     39          1           0        1.100420   -6.471030    0.876690
     40          1           0        2.216440   -2.286920    0.185730
     41          1           0        3.480320   -0.091070    0.005140
     42          1           0        5.471060    3.572220    0.027150
 ---------------------------------------------------------------------
                    Distance matrix (angstroms):
                    1          2          3          4          5
     1  C    0.000000
     2  C    1.389437   0.000000
     3  C    2.223660   1.379210   0.000000
     4  O    2.245009   2.236752   1.351560   0.000000
     5  C    1.361798   2.195311   2.161818   1.356529   0.000000
     6  C    2.533330   3.605461   3.511819   2.392715   1.429706
     7  C    2.992124   4.319503   4.595277   3.666482   2.439327
     8  C    4.396290   5.718879   5.913303   4.864597   3.754439
     9  C    5.344362   6.554134   6.472203   5.250986   4.411927
    10  C    6.752741   7.992987   7.929558   6.698996   5.865404
    11  C    7.371981   8.696834   8.824193   7.680569   6.686281
    12  N    8.731724  10.063071  10.191478   9.036147   8.056237
    13  C    9.601699  10.882333  10.861934   9.630239   8.784126
    14  C    9.250300  10.447990  10.259925   8.968102   8.280822
    15  N   10.209590  11.335138  11.013130   9.684779   9.143260
    16  S    9.650744  10.647792  10.151757   8.801980   8.462916
    17  N    8.073570   9.103325   8.679148   7.340306   6.915878
    18  C    7.869606   9.029280   8.797419   7.498170   6.848942
    19  C    5.017513   6.031513   5.672732   4.357692   3.838978
    20  C    6.067818   6.921531   6.338632   4.993442   4.790004
    21  S    6.087093   6.631579   5.751818   4.457437   4.726469
    22  C    4.411435   4.930673   4.106695   2.783742   3.052548
    23  C    3.810071   4.683816   4.235192   2.912064   2.523706
    24  C    3.643800   2.580199   1.434127   2.375646   3.508394
    25  C    4.720655   3.858596   2.540437   2.903042   4.235636
    26  N    6.031050   5.050336   3.815185   4.278019   5.608541
    27  C    6.525714   5.346469   4.333765   5.120939   6.367101
    28  C    5.842198   4.532708   3.815038   4.893061   5.969944
    29  N    6.612505   5.235970   4.802628   6.005195   6.954914
    30  S    5.870796   4.493801   4.511351   5.845593   6.515941
    31  N    4.261248   2.874569   2.907366   4.255564   4.874146
    32  C    4.370546   3.049068   2.441244   3.655814   4.598995
    33  H    1.082677   2.214929   3.275232   3.289974   2.194131
    34  H    2.194943   1.073991   2.205452   3.275903   3.234400
    35  H    2.673571   4.062006   4.659104   4.007321   2.658716
    36  H    4.926428   6.302992   6.683621   5.746909   4.532897
    37  H    6.921142   8.288303   8.580186   7.541320   6.419434
    38  H   10.646921  11.938794  11.935571  10.706553   9.851843
    39  H    7.067377   7.946181   7.369145   6.031148   5.814807
    40  H    4.266351   4.479735   3.437236   2.248304   2.985164
    41  H    4.788235   4.216288   2.837367   2.661997   4.007249
    42  H    7.604911   6.415966   5.412354   6.165769   7.430737
                    6          7          8          9         10
     6  C    0.000000
     7  C    1.406299   0.000000
     8  C    2.473920   1.404582   0.000000
     9  C    2.985708   2.503758   1.422861   0.000000
    10  C    4.441591   3.822040   2.505331   1.458360   0.000000
    11  C    5.318550   4.385967   2.984334   2.532418   1.412134
    12  N    6.683569   5.749360   4.349553   3.834201   2.510740
    13  C    7.367034   6.621440   5.228211   4.390442   2.936105
    14  C    6.852039   6.352845   5.039146   3.906325   2.537058
    15  N    7.732855   7.410012   6.169284   4.910901   3.683447
    16  S    7.119909   7.090062   6.044053   4.653732   3.812426
    17  N    5.555386   5.497544   4.491840   3.111541   2.486746
    18  C    5.425553   5.047059   3.825869   2.556931   1.418324
    19  C    2.486815   2.747130   2.353725   1.426177   2.590263
    20  C    3.596087   4.082104   3.674783   2.514891   3.173240
    21  S    3.917217   4.864028   4.873903   3.961717   4.797682
    22  C    2.465729   3.672860   4.125027   3.701957   4.935084
    23  C    1.391116   2.351236   2.753802   2.534204   3.911711
    24  C    4.750929   5.942684   7.208911   7.622145   9.065553
    25  C    5.226014   6.556748   7.686464   7.852333   9.242671
    26  N    6.587797   7.928238   9.039060   9.144308  10.508351
    27  C    7.505749   8.776070   9.979219  10.220245  11.620898
    28  C    7.259749   8.407815   9.705279  10.138703  11.579902
    29  N    8.311043   9.365627  10.708905  11.248125  12.700733
    30  S    7.937831   8.803137  10.194827  10.923243  12.379287
    31  N    6.297471   7.168539   8.556934   9.283031  10.738471
    32  C    5.947635   7.021535   8.352839   8.888442  10.342600
    33  H    2.951971   2.886087   4.220490   5.380532   6.698343
    34  H    4.615185   5.185332   6.589033   7.518048   8.938990
    35  H    2.169079   1.088877   2.126392   3.447354   4.631086
    36  H    3.399527   2.094848   1.089708   2.200516   2.762025
    37  H    5.150217   4.009146   2.689600   2.793475   2.180344
    38  H    8.437810   7.661547   6.262138   5.465180   4.012405
    39  H    4.589272   4.922528   4.295286   2.976722   3.159546
    40  H    2.914169   4.276469   4.967078   4.710956   5.989326
    41  H    4.738791   6.128393   7.128379   7.126369   8.467374
    42  H    8.539946   9.828762  11.010990  11.200950  12.583701
                   11         12         13         14         15
    11  C    0.000000
    12  N    1.370586   0.000000
    13  C    2.361391   1.357269   0.000000
    14  C    2.704910   2.366990   1.400457   0.000000
    15  N    4.038316   3.639746   2.450051   1.344149   0.000000
    16  S    4.670532   4.718112   3.787332   2.408440   1.653047
    17  N    3.624282   4.097215   3.615477   2.324550   2.512463
    18  C    2.328854   2.788179   2.502739   1.490519   2.374378
    19  C    3.867279   5.086364   5.412604   4.628240   5.347365
    20  C    4.549116   5.565985   5.572540   4.527936   4.915335
    21  S    6.189858   7.229071   7.190706   6.057124   6.254287
    22  C    6.204876   7.434373   7.701075   6.782160   7.268452
    23  C    5.062101   6.361091   6.806223   6.069560   6.778783
    24  C   10.054325  11.410963  11.992601  11.286021  11.930383
    25  C   10.363172  11.684763  12.119151  11.274330  11.772140
    26  N   11.667163  12.973442  13.351528  12.448258  12.864810
    27  C   12.719250  14.050311  14.503155  13.655660  14.128265
    28  C   12.569427  13.927352  14.504032  13.770738  14.366458
    29  N   13.626024  14.992498  15.632850  14.955297  15.598620
    30  S   13.166341  14.535630  15.299491  14.756876  15.524347
    31  N   11.526398  12.896069  13.657596  13.124961  13.911445
    32  C   11.263337  12.629543  13.275521  12.621262  13.303519
    33  H    7.116969   8.442020   9.427627   9.233426  10.291211
    34  H    9.561643  10.917845  11.796176  11.422871  12.345609
    35  H    4.941702   6.258039   7.268792   7.161978   8.292459
    36  H    2.690638   3.958373   5.045501   5.150386   6.397822
    37  H    1.091129   2.028671   3.276020   3.787396   5.123879
    38  H    3.328273   2.095742   1.077472   2.186944   2.799080
    39  H    4.476434   5.282758   5.066563   3.917302   4.110305
    40  H    7.231189   8.482486   8.773702   7.853689   8.310862
    41  H    9.656164  10.946026  11.294444  10.384634  10.816141
    42  H   13.712847  15.033023  15.443263  14.553485  14.969530
                   16         17         18         19         20
    16  S    0.000000
    17  N    1.646966   0.000000
    18  C    2.424847   1.343390   0.000000
    19  C    4.651940   3.139806   3.165272   0.000000
    20  C    3.916731   2.690908   3.167855   1.375456   0.000000
    21  S    4.963916   3.941960   4.721490   2.579439   1.711443
    22  C    6.203986   4.894016   5.329253   2.348481   2.404346
    23  C    5.979773   4.487920   4.600486   1.447061   2.282665
    24  C   10.929293   9.541475   9.810197   6.661092   7.112199
    25  C   10.623726   9.358751   9.804239   6.707788   6.895698
    26  N   11.633110  10.454301  10.990009   7.944760   8.002656
    27  C   12.935777  11.711659  12.186869   9.092175   9.249673
    28  C   13.290078  11.958240  12.293601   9.148725   9.503590
    29  N   14.563076  13.198904  13.479798  10.330382  10.756083
    30  S   14.631785  13.175797  13.299803  10.182971  10.801849
    31  N   13.056231  11.580421  11.671943   8.566621   9.234230
    32  C   12.329568  10.922715  11.148727   8.001969   8.505414
    33  H    9.898291   8.301269   7.930147   5.339097   6.518921
    34  H   11.696413  10.140654  10.022583   7.069380   7.985493
    35  H    8.082782   6.491840   5.939261   3.833254   5.167577
    36  H    6.534150   5.056950   4.165520   3.378627   4.645711
    37  H    5.735108   4.591249   3.350481   4.209593   5.121952
    38  H    4.359383   4.494965   3.504772   6.480882   6.581387
    39  H    3.088082   2.192292   2.766378   2.233797   1.072543
    40  H    7.189157   5.928549   6.402898   3.400265   3.429499
    41  H    9.618203   8.406504   8.926640   5.894461   5.951520
    42  H   13.722708  12.557546  13.093033  10.032046  10.106471
                   21         22         23         24         25
    21  S    0.000000
    22  C    1.704582   0.000000
    23  C    2.564283   1.382907   0.000000
    24  C    6.220418   4.742352   5.219181   0.000000
    25  C    5.726807   4.513041   5.332875   1.396106   0.000000
    26  N    6.685617   5.671213   6.612470   2.471513   1.375013
    27  C    7.999224   6.884099   7.710209   2.900522   2.385244
    28  C    8.442088   7.113897   7.714828   2.517607   2.743260
    29  N    9.750417   8.374381   8.886574   3.672393   4.079170
    30  S   10.022656   8.488572   8.745998   3.813063   4.708123
    31  N    8.548166   6.960720   7.136386   2.471218   3.652403
    32  C    7.631836   6.148031   6.555539   1.412853   2.359079
    33  H    6.780007   5.166144   4.332288   4.671815   5.793650
    34  H    7.698815   5.999564   5.743207   3.019554   4.403635
    35  H    5.906344   4.606290   3.356945   6.078190   6.892355
    36  H    5.933064   5.211844   3.836395   8.037231   8.619077
    37  H    6.706262   6.449901   5.183311   9.886369  10.338392
    38  H    8.180430   8.755551   7.880438  13.068904  13.188583
    39  H    2.380088   3.410065   3.324421   8.113804   7.838175
    40  H    2.393041   1.074967   2.240732   3.833926   3.468468
    41  H    4.690002   3.608884   4.594122   2.167630   1.091871
    42  H    8.773055   7.774525   8.676828   3.978606   3.350029
                   26         27         28         29         30
    26  N    0.000000
    27  C    1.368693   0.000000
    28  C    2.385093   1.406969   0.000000
    29  N    3.661751   2.462299   1.343503   0.000000
    30  S    4.740645   3.804634   2.416978   1.656740   0.000000
    31  N    4.128987   3.650184   2.350131   2.523774   1.642423
    32  C    2.794500   2.499451   1.484201   2.363456   2.421861
    33  H    7.090261   7.523339   6.747493   7.402859   6.482047
    34  H    5.427137   5.456084   4.412461   4.848742   3.821935
    35  H    8.264026   8.971792   8.436807   9.271954   8.527918
    36  H    9.984439  10.864230  10.497925  11.432917  10.794497
    37  H   11.678858  12.648474  12.379256  13.364221  12.781248
    38  H   14.414075  15.572953  15.580073  16.708429  16.366124
    39  H    8.891924  10.163561  10.472011  11.735446  11.812750
    40  H    4.600397   5.825776   6.117366   7.402912   7.631924
    41  H    2.063754   3.319593   3.830033   5.168830   5.765394
    42  H    2.107296   1.079489   2.192824   2.812920   4.381354
                   31         32         33         34         35
    31  N    0.000000
    32  C    1.346314   0.000000
    33  H    4.946892   5.263628   0.000000
    34  H    2.335681   2.980362   2.662254   0.000000
    35  H    6.929938   6.989609   2.195056   4.762662   0.000000
    36  H    9.175212   9.100011   4.518466   7.070526   2.327115
    37  H   11.154673  11.015062   6.525085   9.076676   4.347539
    38  H   14.724027  14.350777  10.439575  12.841367   8.268150
    39  H   10.253881   9.508153   7.467655   9.004529   5.992682
    40  H    6.167973   5.245268   5.175812   5.511451   5.069980
    41  H    4.602613   3.373485   5.867952   4.957058   6.622867
    42  H    4.540185   3.503467   8.599424   6.481525  10.044786
                   36         37         38         39         40
    36  H    0.000000
    37  H    2.037184   0.000000
    38  H    6.003979   4.122273   0.000000
    39  H    5.145305   5.213800   6.003120   0.000000
    40  H    6.033346   7.413444   9.829015   4.385169   0.000000
    41  H    8.122170   9.725895  12.355084   6.864941   2.540032
    42  H   11.912366  13.673324  16.508348  10.985949   6.704269
                   41         42
    41  H    0.000000
    42  H    4.169319   0.000000
 Stoichiometry    C22H10N6OS3
 Framework group  C1[X(C22H10N6OS3)]
 Deg. of freedom   120
 Full point group                 C1      NOp   1
 Largest Abelian subgroup         C1      NOp   1
 Largest concise Abelian subgroup C1      NOp   1
                         Standard orientation:                         
 ---------------------------------------------------------------------
 Center     Atomic      Atomic             Coordinates (Angstroms)
 Number     Number       Type             X           Y           Z
 ---------------------------------------------------------------------
      1          6           0       -2.121943   -2.410957   -0.027672
      2          6           0       -3.440675   -1.973371   -0.028715
      3          6           0       -3.404768   -0.594641   -0.023053
      4          8           0       -2.122998   -0.165949   -0.025359
      5          6           0       -1.356113   -1.284903   -0.026136
      6          6           0        0.065516   -1.133156   -0.024877
      7          6           0        0.867038   -2.287047   -0.086336
      8          6           0        2.271173   -2.252240   -0.079713
      9          6           0        3.050124   -1.065725    0.020034
     10          6           0        4.507061   -1.124343   -0.006677
     11          6           0        5.247967   -2.319671    0.121276
     12          7           0        6.607264   -2.489211    0.166806
     13          6           0        7.425420   -1.406393    0.149340
     14          6           0        6.844984   -0.139249    0.012515
     15          7           0        7.485857    1.041305    0.060600
     16         16           0        6.351103    2.203940   -0.244650
     17          7           0        5.062017    1.232723   -0.572511
     18          6           0        5.372065   -0.013478   -0.178114
     19          6           0        2.224122    0.091138    0.135667
     20          6           0        2.601428    1.359966    0.509291
     21         16           0        1.414525    2.540174    0.152349
     22          6           0        0.223416    1.320812    0.156578
     23          6           0        0.778890    0.057242    0.071309
     24          6           0       -4.427603    0.410577   -0.014888
     25          6           0       -4.261889    1.796677    0.004501
     26          7           0       -5.266907    2.734980    0.018217
     27          6           0       -6.581276    2.353261    0.011525
     28          6           0       -6.880289    0.978603   -0.010158
     29          7           0       -8.099988    0.415376   -0.020588
     30         16           0       -7.871751   -1.225368   -0.046153
     31          7           0       -6.230225   -1.279585   -0.043611
     32          6           0       -5.775590   -0.012515   -0.023564
     33          1           0       -1.779022   -3.437891   -0.027890
     34          1           0       -4.308150   -2.606568   -0.031499
     35          1           0        0.406376   -3.271683   -0.149061
     36          1           0        2.733220   -3.236430   -0.152835
     37          1           0        4.740531   -3.283063    0.191618
     38          1           0        8.488694   -1.567314    0.216409
     39          1           0        3.523990    1.736184    0.906389
     40          1           0       -0.802298    1.639963    0.196687
     41          1           0       -3.263650    2.239015    0.010555
     42          1           0       -7.338198    3.122834    0.022561
 ---------------------------------------------------------------------
 Rotational constants (GHZ):      0.3859277      0.0421035      0.0380393
 Standard basis: 6-31++G(d,p) (6D, 7F)
 There are   680 symmetry adapted basis functions of A   symmetry.
 Integral buffers will be    131072 words long.
 Raffenetti 2 integral format.
 Two-electron integral symmetry is turned on.
   680 basis functions,  1176 primitive gaussians,   680 cartesian basis functions
   120 alpha electrons      120 beta electrons
       nuclear repulsion energy      3260.7412516880 Hartrees.
 NAtoms=   42 NActive=   42 NUniq=   42 SFac= 1.00D+00 NAtFMM=   60 NAOKFM=F Big=F
 One-electron integrals computed using PRISM.
 NBasis=   680 RedAO= T  NBF=   680
 NBsUse=   668 1.00D-06 NBFU=   668
 Harris functional with IExCor=  402 diagonalized for initial guess.
 ExpMin= 3.60D-02 ExpMax= 2.19D+04 ExpMxC= 3.30D+03 IAcc=3 IRadAn=         5 AccDes= 0.00D+00
 HarFok:  IExCor=  402 AccDes= 0.00D+00 IRadAn=         5 IDoV= 1
 ScaDFX=  1.000000  1.000000  1.000000  1.000000
 FoFCou: FMM=F IPFlag=           0 FMFlag=      100000 FMFlg1=           0
         NFxFlg=           0 DoJE=T BraDBF=F KetDBF=T FulRan=T
         Omega=  0.000000  0.000000  1.000000  0.000000  0.000000 ICntrl=     500 IOpCl=  0
         NMat0=    1 NMatS0=    1 NMatT0=    0 NMatD0=    1 NMtDS0=    0 NMtDT0=    0
         I1Cent=           4 NGrid=           0.
 Petite list used in FoFCou.
 Initial guess orbital symmetries:
       Occupied  (A) (A) (A) (A) (A) (A) (A) (A) (A) (A) (A) (A)
                 (A) (A) (A) (A) (A) (A) (A) (A) (A) (A) (A) (A)
                 (A) (A) (A) (A) (A) (A) (A) (A) (A) (A) (A) (A)
                 (A) (A) (A) (A) (A) (A) (A) (A) (A) (A) (A) (A)
                 (A) (A) (A) (A) (A) (A) (A) (A) (A) (A) (A) (A)
                 (A) (A) (A) (A) (A) (A) (A) (A) (A) (A) (A) (A)
                 (A) (A) (A) (A) (A) (A) (A) (A) (A) (A) (A) (A)
                 (A) (A) (A) (A) (A) (A) (A) (A) (A) (A) (A) (A)
                 (A) (A) (A) (A) (A) (A) (A) (A) (A) (A) (A) (A)
                 (A) (A) (A) (A) (A) (A) (A) (A) (A) (A) (A) (A)
       Virtual   (A) (A) (A) (A) (A) (A) (A) (A) (A) (A) (A) (A)
                 (A) (A) (A) (A) (A) (A) (A) (A) (A) (A) (A) (A)
                 (A) (A) (A) (A) (A) (A) (A) (A) (A) (A) (A) (A)
                 (A) (A) (A) (A) (A) (A) (A) (A) (A) (A) (A) (A)
                 (A) (A) (A) (A) (A) (A) (A) (A) (A) (A) (A) (A)
                 (A) (A) (A) (A) (A) (A) (A) (A) (A) (A) (A) (A)
                 (A) (A) (A) (A) (A) (A) (A) (A) (A) (A) (A) (A)
                 (A) (A) (A) (A) (A) (A) (A) (A) (A) (A) (A) (A)
                 (A) (A) (A) (A) (A) (A) (A) (A) (A) (A) (A) (A)
                 (A) (A) (A) (A) (A) (A) (A) (A) (A) (A) (A) (A)
                 (A) (A) (A) (A) (A) (A) (A) (A) (A) (A) (A) (A)
                 (A) (A) (A) (A) (A) (A) (A) (A) (A) (A) (A) (A)
                 (A) (A) (A) (A) (A) (A) (A) (A) (A) (A) (A) (A)
                 (A) (A) (A) (A) (A) (A) (A) (A) (A) (A) (A) (A)
                 (A) (A) (A) (A) (A) (A) (A) (A) (A) (A) (A) (A)
                 (A) (A) (A) (A) (A) (A) (A) (A) (A) (A) (A) (A)
                 (A) (A) (A) (A) (A) (A) (A) (A) (A) (A) (A) (A)
                 (A) (A) (A) (A) (A) (A) (A) (A) (A) (A) (A) (A)
                 (A) (A) (A) (A) (A) (A) (A) (A) (A) (A) (A) (A)
                 (A) (A) (A) (A) (A) (A) (A) (A) (A) (A) (A) (A)
                 (A) (A) (A) (A) (A) (A) (A) (A) (A) (A) (A) (A)
                 (A) (A) (A) (A) (A) (A) (A) (A) (A) (A) (A) (A)
                 (A) (A) (A) (A) (A) (A) (A) (A) (A) (A) (A) (A)
                 (A) (A) (A) (A) (A) (A) (A) (A) (A) (A) (A) (A)
                 (A) (A) (A) (A) (A) (A) (A) (A) (A) (A) (A) (A)
                 (A) (A) (A) (A) (A) (A) (A) (A) (A) (A) (A) (A)
                 (A) (A) (A) (A) (A) (A) (A) (A) (A) (A) (A) (A)
                 (A) (A) (A) (A) (A) (A) (A) (A) (A) (A) (A) (A)
                 (A) (A) (A) (A) (A) (A) (A) (A) (A) (A) (A) (A)
                 (A) (A) (A) (A) (A) (A) (A) (A) (A) (A) (A) (A)
                 (A) (A) (A) (A) (A) (A) (A) (A) (A) (A) (A) (A)
                 (A) (A) (A) (A) (A) (A) (A) (A) (A) (A) (A) (A)
                 (A) (A) (A) (A) (A) (A) (A) (A) (A) (A) (A) (A)
                 (A) (A) (A) (A) (A) (A) (A) (A) (A) (A) (A) (A)
                 (A) (A) (A) (A) (A) (A) (A) (A) (A) (A) (A) (A)
                 (A) (A) (A) (A) (A) (A) (A) (A) (A) (A) (A) (A)
                 (A) (A) (A) (A) (A) (A) (A) (A) (A) (A) (A) (A)
                 (A) (A) (A) (A) (A) (A) (A) (A) (A) (A) (A) (A)
                 (A) (A) (A) (A) (A) (A) (A) (A) (A) (A) (A) (A)
                 (A) (A) (A) (A) (A) (A) (A) (A) (A) (A) (A) (A)
                 (A) (A) (A) (A) (A) (A) (A) (A) (A) (A) (A) (A)
                 (A) (A) (A) (A) (A) (A) (A) (A) (A) (A) (A) (A)
                 (A) (A) (A) (A) (A) (A) (A) (A) (A) (A) (A) (A)
                 (A) (A) (A) (A) (A) (A) (A) (A) (A) (A) (A) (A)
                 (A) (A) (A) (A) (A) (A) (A) (A) (A) (A) (A) (A)
                 (A) (A) (A) (A) (A) (A) (A) (A)
 The electronic state of the initial guess is 1-A.
 Requested convergence on RMS density matrix=1.00D-08 within 128 cycles.
 Requested convergence on MAX density matrix=1.00D-06.
 Requested convergence on             energy=1.00D-06.
 No special actions if energy rises.
 EnCoef did     1 forward-backward iterations
 EnCoef did     3 forward-backward iterations
 Restarting incremental Fock formation.
 SCF Done:  E(RB3LYP) =  -2442.58559358     A.U. after   27 cycles
             Convg  =    0.2578D-08             -V/T =  2.0063

 **********************************************************************

            Population analysis using the SCF density.

 **********************************************************************

 Orbital symmetries:
       Occupied  (A) (A) (A) (A) (A) (A) (A) (A) (A) (A) (A) (A)
                 (A) (A) (A) (A) (A) (A) (A) (A) (A) (A) (A) (A)
                 (A) (A) (A) (A) (A) (A) (A) (A) (A) (A) (A) (A)
                 (A) (A) (A) (A) (A) (A) (A) (A) (A) (A) (A) (A)
                 (A) (A) (A) (A) (A) (A) (A) (A) (A) (A) (A) (A)
                 (A) (A) (A) (A) (A) (A) (A) (A) (A) (A) (A) (A)
                 (A) (A) (A) (A) (A) (A) (A) (A) (A) (A) (A) (A)
                 (A) (A) (A) (A) (A) (A) (A) (A) (A) (A) (A) (A)
                 (A) (A) (A) (A) (A) (A) (A) (A) (A) (A) (A) (A)
                 (A) (A) (A) (A) (A) (A) (A) (A) (A) (A) (A) (A)
       Virtual   (A) (A) (A) (A) (A) (A) (A) (A) (A) (A) (A) (A)
                 (A) (A) (A) (A) (A) (A) (A) (A) (A) (A) (A) (A)
                 (A) (A) (A) (A) (A) (A) (A) (A) (A) (A) (A) (A)
                 (A) (A) (A) (A) (A) (A) (A) (A) (A) (A) (A) (A)
                 (A) (A) (A) (A) (A) (A) (A) (A) (A) (A) (A) (A)
                 (A) (A) (A) (A) (A) (A) (A) (A) (A) (A) (A) (A)
                 (A) (A) (A) (A) (A) (A) (A) (A) (A) (A) (A) (A)
                 (A) (A) (A) (A) (A) (A) (A) (A) (A) (A) (A) (A)
                 (A) (A) (A) (A) (A) (A) (A) (A) (A) (A) (A) (A)
                 (A) (A) (A) (A) (A) (A) (A) (A) (A) (A) (A) (A)
                 (A) (A) (A) (A) (A) (A) (A) (A) (A) (A) (A) (A)
                 (A) (A) (A) (A) (A) (A) (A) (A) (A) (A) (A) (A)
                 (A) (A) (A) (A) (A) (A) (A) (A) (A) (A) (A) (A)
                 (A) (A) (A) (A) (A) (A) (A) (A) (A) (A) (A) (A)
                 (A) (A) (A) (A) (A) (A) (A) (A) (A) (A) (A) (A)
                 (A) (A) (A) (A) (A) (A) (A) (A) (A) (A) (A) (A)
                 (A) (A) (A) (A) (A) (A) (A) (A) (A) (A) (A) (A)
                 (A) (A) (A) (A) (A) (A) (A) (A) (A) (A) (A) (A)
                 (A) (A) (A) (A) (A) (A) (A) (A) (A) (A) (A) (A)
                 (A) (A) (A) (A) (A) (A) (A) (A) (A) (A) (A) (A)
                 (A) (A) (A) (A) (A) (A) (A) (A) (A) (A) (A) (A)
                 (A) (A) (A) (A) (A) (A) (A) (A) (A) (A) (A) (A)
                 (A) (A) (A) (A) (A) (A) (A) (A) (A) (A) (A) (A)
                 (A) (A) (A) (A) (A) (A) (A) (A) (A) (A) (A) (A)
                 (A) (A) (A) (A) (A) (A) (A) (A) (A) (A) (A) (A)
                 (A) (A) (A) (A) (A) (A) (A) (A) (A) (A) (A) (A)
                 (A) (A) (A) (A) (A) (A) (A) (A) (A) (A) (A) (A)
                 (A) (A) (A) (A) (A) (A) (A) (A) (A) (A) (A) (A)
                 (A) (A) (A) (A) (A) (A) (A) (A) (A) (A) (A) (A)
                 (A) (A) (A) (A) (A) (A) (A) (A) (A) (A) (A) (A)
                 (A) (A) (A) (A) (A) (A) (A) (A) (A) (A) (A) (A)
                 (A) (A) (A) (A) (A) (A) (A) (A) (A) (A) (A) (A)
                 (A) (A) (A) (A) (A) (A) (A) (A) (A) (A) (A) (A)
                 (A) (A) (A) (A) (A) (A) (A) (A) (A) (A) (A) (A)
                 (A) (A) (A) (A) (A) (A) (A) (A) (A) (A) (A) (A)
                 (A) (A) (A) (A) (A) (A) (A) (A) (A) (A) (A) (A)
                 (A) (A) (A) (A) (A) (A) (A) (A) (A) (A) (A) (A)
                 (A) (A) (A) (A) (A) (A) (A) (A) (A) (A) (A) (A)
                 (A) (A) (A) (A) (A) (A) (A) (A) (A) (A) (A) (A)
                 (A) (A) (A) (A) (A) (A) (A) (A) (A) (A) (A) (A)
                 (A) (A) (A) (A) (A) (A) (A) (A) (A) (A) (A) (A)
                 (A) (A) (A) (A) (A) (A) (A) (A) (A) (A) (A) (A)
                 (A) (A) (A) (A) (A) (A) (A) (A) (A) (A) (A) (A)
                 (A) (A) (A) (A) (A) (A) (A) (A) (A) (A) (A) (A)
                 (A) (A) (A) (A) (A) (A) (A) (A) (A) (A) (A) (A)
                 (A) (A) (A) (A) (A) (A) (A) (A)
 The electronic state is 1-A.
 Alpha  occ. eigenvalues --  -89.00161 -88.99821 -88.92945 -19.24674 -14.39919
 Alpha  occ. eigenvalues --  -14.39599 -14.39588 -14.38847 -14.36779 -14.36480
 Alpha  occ. eigenvalues --  -10.27281 -10.27188 -10.27115 -10.27092 -10.26824
 Alpha  occ. eigenvalues --  -10.26510 -10.25696 -10.25383 -10.25170 -10.24970
 Alpha  occ. eigenvalues --  -10.24375 -10.24308 -10.23359 -10.22854 -10.21871
 Alpha  occ. eigenvalues --  -10.21841 -10.21749 -10.21703 -10.21656 -10.21377
 Alpha  occ. eigenvalues --  -10.21146 -10.21008  -8.05439  -8.05097  -7.98914
 Alpha  occ. eigenvalues --   -6.01999  -6.01656  -6.01410  -6.01204  -6.01076
 Alpha  occ. eigenvalues --   -6.00857  -5.95272  -5.94942  -5.94712  -1.15370
 Alpha  occ. eigenvalues --   -1.03875  -1.03633  -0.95250  -0.95063  -0.92050
 Alpha  occ. eigenvalues --   -0.91685  -0.91012  -0.86335  -0.84729  -0.84272
 Alpha  occ. eigenvalues --   -0.82694  -0.80565  -0.79605  -0.77983  -0.75562
 Alpha  occ. eigenvalues --   -0.75020  -0.71626  -0.69590  -0.68446  -0.66322
 Alpha  occ. eigenvalues --   -0.65308  -0.64503  -0.63396  -0.62278  -0.61571
 Alpha  occ. eigenvalues --   -0.59320  -0.58939  -0.58101  -0.55362  -0.54135
 Alpha  occ. eigenvalues --   -0.53734  -0.53076  -0.52708  -0.51618  -0.49890
 Alpha  occ. eigenvalues --   -0.49607  -0.48968  -0.48102  -0.47794  -0.47227
 Alpha  occ. eigenvalues --   -0.46966  -0.46751  -0.44227  -0.44009  -0.43158
 Alpha  occ. eigenvalues --   -0.42720  -0.42469  -0.42253  -0.41775  -0.40808
 Alpha  occ. eigenvalues --   -0.40574  -0.39977  -0.39803  -0.39307  -0.38573
 Alpha  occ. eigenvalues --   -0.37271  -0.36951  -0.36699  -0.36114  -0.35047
 Alpha  occ. eigenvalues --   -0.34924  -0.34368  -0.32392  -0.32363  -0.31738
 Alpha  occ. eigenvalues --   -0.31248  -0.30079  -0.29398  -0.28568  -0.28273
 Alpha  occ. eigenvalues --   -0.28125  -0.26221  -0.25463  -0.23181  -0.19441
 Alpha virt. eigenvalues --   -0.12770  -0.11915  -0.09154  -0.04283  -0.03805
 Alpha virt. eigenvalues --   -0.03271  -0.02663  -0.02453  -0.02034  -0.01380
 Alpha virt. eigenvalues --   -0.01156  -0.00502  -0.00041   0.00173   0.00767
 Alpha virt. eigenvalues --    0.00975   0.01168   0.01670   0.02079   0.02227
 Alpha virt. eigenvalues --    0.02864   0.02964   0.03091   0.03566   0.03797
 Alpha virt. eigenvalues --    0.03904   0.04299   0.04868   0.05192   0.05422
 Alpha virt. eigenvalues --    0.05568   0.05961   0.06114   0.06507   0.06827
 Alpha virt. eigenvalues --    0.07049   0.07618   0.07828   0.07880   0.08288
 Alpha virt. eigenvalues --    0.08799   0.09224   0.09388   0.09583   0.09716
 Alpha virt. eigenvalues --    0.09857   0.10048   0.10344   0.10454   0.10734
 Alpha virt. eigenvalues --    0.10968   0.11001   0.11364   0.11811   0.12031
 Alpha virt. eigenvalues --    0.12208   0.12665   0.12721   0.12914   0.12943
 Alpha virt. eigenvalues --    0.13078   0.13386   0.13577   0.13779   0.13889
 Alpha virt. eigenvalues --    0.14164   0.14425   0.14644   0.14949   0.15095
 Alpha virt. eigenvalues --    0.15164   0.15720   0.15786   0.16036   0.16205
 Alpha virt. eigenvalues --    0.16528   0.16712   0.16979   0.17262   0.17386
 Alpha virt. eigenvalues --    0.17616   0.18037   0.18202   0.18364   0.18723
 Alpha virt. eigenvalues --    0.18933   0.19154   0.19501   0.20034   0.20105
 Alpha virt. eigenvalues --    0.20313   0.20544   0.20973   0.21153   0.21189
 Alpha virt. eigenvalues --    0.21446   0.21838   0.22107   0.22195   0.22232
 Alpha virt. eigenvalues --    0.22296   0.22575   0.22987   0.23115   0.23489
 Alpha virt. eigenvalues --    0.23815   0.24105   0.24196   0.24381   0.24652
 Alpha virt. eigenvalues --    0.24918   0.24968   0.25249   0.25385   0.25504
 Alpha virt. eigenvalues --    0.25828   0.26084   0.26188   0.26399   0.26593
 Alpha virt. eigenvalues --    0.26721   0.27192   0.27313   0.27468   0.27846
 Alpha virt. eigenvalues --    0.27889   0.28253   0.28420   0.28919   0.29048
 Alpha virt. eigenvalues --    0.29114   0.29531   0.29784   0.30065   0.30355
 Alpha virt. eigenvalues --    0.30586   0.30842   0.30916   0.31325   0.31761
 Alpha virt. eigenvalues --    0.31946   0.32371   0.32501   0.32625   0.33182
 Alpha virt. eigenvalues --    0.33304   0.33343   0.33933   0.34198   0.34306
 Alpha virt. eigenvalues --    0.34403   0.34933   0.35201   0.35510   0.36355
 Alpha virt. eigenvalues --    0.36678   0.37283   0.37610   0.38097   0.38288
 Alpha virt. eigenvalues --    0.38664   0.39231   0.39527   0.39670   0.40055
 Alpha virt. eigenvalues --    0.40553   0.41559   0.41811   0.42539   0.42826
 Alpha virt. eigenvalues --    0.43133   0.43335   0.43787   0.44459   0.46102
 Alpha virt. eigenvalues --    0.46590   0.46755   0.47208   0.48021   0.48299
 Alpha virt. eigenvalues --    0.48855   0.49797   0.51104   0.51428   0.52405
 Alpha virt. eigenvalues --    0.53322   0.53950   0.54953   0.56071   0.56504
 Alpha virt. eigenvalues --    0.59152   0.59361   0.61103   0.61725   0.63263
 Alpha virt. eigenvalues --    0.64196   0.64289   0.64798   0.64964   0.65123
 Alpha virt. eigenvalues --    0.65373   0.65785   0.66115   0.66399   0.67070
 Alpha virt. eigenvalues --    0.67410   0.67818   0.68567   0.68725   0.68983
 Alpha virt. eigenvalues --    0.69751   0.70031   0.70437   0.70861   0.71086
 Alpha virt. eigenvalues --    0.72218   0.72510   0.72731   0.73482   0.73917
 Alpha virt. eigenvalues --    0.74950   0.75263   0.75370   0.75686   0.76109
 Alpha virt. eigenvalues --    0.76847   0.77126   0.77277   0.77995   0.78417
 Alpha virt. eigenvalues --    0.79174   0.79310   0.79810   0.80207   0.80558
 Alpha virt. eigenvalues --    0.81854   0.82295   0.83002   0.83640   0.84461
 Alpha virt. eigenvalues --    0.85856   0.86940   0.88100   0.88867   0.89720
 Alpha virt. eigenvalues --    0.90414   0.91123   0.91944   0.92138   0.92674
 Alpha virt. eigenvalues --    0.93491   0.93631   0.93968   0.94479   0.95330
 Alpha virt. eigenvalues --    0.95809   0.96381   0.96940   0.97782   0.99079
 Alpha virt. eigenvalues --    0.99513   0.99986   1.00692   1.01305   1.01629
 Alpha virt. eigenvalues --    1.01712   1.02618   1.03525   1.03800   1.03999
 Alpha virt. eigenvalues --    1.04260   1.04697   1.05800   1.05823   1.06761
 Alpha virt. eigenvalues --    1.07685   1.08656   1.09167   1.09564   1.09930
 Alpha virt. eigenvalues --    1.10379   1.11329   1.12103   1.12405   1.13009
 Alpha virt. eigenvalues --    1.13620   1.13967   1.14208   1.15295   1.15893
 Alpha virt. eigenvalues --    1.16145   1.16581   1.17633   1.17850   1.18375
 Alpha virt. eigenvalues --    1.18807   1.19491   1.20359   1.20609   1.20868
 Alpha virt. eigenvalues --    1.21059   1.21778   1.22100   1.22281   1.22968
 Alpha virt. eigenvalues --    1.23325   1.23631   1.24040   1.25175   1.26149
 Alpha virt. eigenvalues --    1.26831   1.27342   1.28264   1.28474   1.29388
 Alpha virt. eigenvalues --    1.30106   1.31112   1.31943   1.32180   1.32575
 Alpha virt. eigenvalues --    1.33000   1.33779   1.33905   1.34694   1.35057
 Alpha virt. eigenvalues --    1.35798   1.35902   1.36146   1.36688   1.38354
 Alpha virt. eigenvalues --    1.39431   1.39649   1.40018   1.40368   1.41105
 Alpha virt. eigenvalues --    1.42985   1.44097   1.45261   1.45441   1.46165
 Alpha virt. eigenvalues --    1.46277   1.47187   1.48708   1.49078   1.51329
 Alpha virt. eigenvalues --    1.52805   1.53508   1.55002   1.55731   1.58637
 Alpha virt. eigenvalues --    1.61715   1.63174   1.63481   1.64273   1.66635
 Alpha virt. eigenvalues --    1.67364   1.67797   1.68046   1.71157   1.71398
 Alpha virt. eigenvalues --    1.73685   1.73849   1.74239   1.74457   1.75109
 Alpha virt. eigenvalues --    1.75933   1.77039   1.77333   1.78019   1.78634
 Alpha virt. eigenvalues --    1.80193   1.80924   1.81325   1.82078   1.82743
 Alpha virt. eigenvalues --    1.83054   1.84640   1.84941   1.86219   1.86267
 Alpha virt. eigenvalues --    1.88121   1.90420   1.90686   1.91207   1.92041
 Alpha virt. eigenvalues --    1.93160   1.93816   1.94029   1.95046   1.96153
 Alpha virt. eigenvalues --    1.96442   1.97616   1.97825   1.99140   1.99476
 Alpha virt. eigenvalues --    2.00583   2.01841   2.03464   2.05549   2.05705
 Alpha virt. eigenvalues --    2.06179   2.06759   2.07330   2.08510   2.10436
 Alpha virt. eigenvalues --    2.12367   2.13450   2.14817   2.15769   2.17007
 Alpha virt. eigenvalues --    2.18421   2.19432   2.20694   2.21082   2.22912
 Alpha virt. eigenvalues --    2.23333   2.24351   2.26003   2.27098   2.27334
 Alpha virt. eigenvalues --    2.28300   2.28702   2.29509   2.30163   2.31094
 Alpha virt. eigenvalues --    2.31411   2.32287   2.33167   2.33783   2.35208
 Alpha virt. eigenvalues --    2.36542   2.37395   2.38045   2.38547   2.38684
 Alpha virt. eigenvalues --    2.40055   2.41095   2.41939   2.42383   2.43012
 Alpha virt. eigenvalues --    2.43111   2.44055   2.44842   2.45040   2.45818
 Alpha virt. eigenvalues --    2.47812   2.48866   2.49270   2.51730   2.52196
 Alpha virt. eigenvalues --    2.53255   2.54671   2.55856   2.55990   2.56564
 Alpha virt. eigenvalues --    2.57545   2.58642   2.59287   2.60238   2.60985
 Alpha virt. eigenvalues --    2.61551   2.62924   2.64016   2.64317   2.64670
 Alpha virt. eigenvalues --    2.65186   2.66176   2.66572   2.66718   2.67391
 Alpha virt. eigenvalues --    2.68193   2.70022   2.71162   2.72872   2.73041
 Alpha virt. eigenvalues --    2.74239   2.75589   2.75706   2.77244   2.79886
 Alpha virt. eigenvalues --    2.81302   2.82669   2.83531   2.86261   2.87621
 Alpha virt. eigenvalues --    2.88876   2.90103   2.92662   2.94272   2.95250
 Alpha virt. eigenvalues --    2.96792   2.98721   3.02246   3.05678   3.08189
 Alpha virt. eigenvalues --    3.10329   3.11063   3.13918   3.15507   3.17698
 Alpha virt. eigenvalues --    3.23618   3.25890   3.27412   3.27503   3.33741
 Alpha virt. eigenvalues --    3.36433   3.39382   3.41305   3.44816   3.45189
 Alpha virt. eigenvalues --    3.50160   3.60944   3.62547   3.63467   3.69983
 Alpha virt. eigenvalues --    3.80164   3.94687   3.95357   3.99370   4.11966
 Alpha virt. eigenvalues --    4.12328   4.16459   4.19156   4.28767   4.29709
 Alpha virt. eigenvalues --    4.30316   4.33162   4.33847   4.34912   4.35501
 Alpha virt. eigenvalues --    4.37073   4.38878   4.41689   4.43683   4.44891
 Alpha virt. eigenvalues --    4.47295   4.51427   4.52346   4.52958   4.55268
 Alpha virt. eigenvalues --    4.55927   4.59693   4.67382   4.70752   4.77323
 Alpha virt. eigenvalues --    4.85798   4.86820   4.95297
          Condensed to atoms (all electrons):
              1          2          3          4          5          6
     1  C    9.115413   1.272046  -2.923793   0.233010  -0.212525  -0.296610
     2  C    1.272046   9.030988   0.066374   0.159906  -2.497811  -0.199443
     3  C   -2.923793   0.066374  12.025310  -0.354131  -1.400849   0.363566
     4  O    0.233010   0.159906  -0.354131   8.681276  -0.180277  -0.207521
     5  C   -0.212525  -2.497811  -1.400849  -0.180277  11.562176   1.117655
     6  C   -0.296610  -0.199443   0.363566  -0.207521   1.117655   9.583853
     7  C   -0.251199  -0.570084  -0.826838   0.014564  -0.970706  -1.807467
     8  C    0.020378   0.076939   0.153069  -0.017076  -0.414709  -1.257619
     9  C    0.112504   0.303755   0.408667   0.003442   0.547438   1.990744
    10  C    0.085160   0.032257  -0.042145   0.001404   0.045128   0.298981
    11  C    0.007878   0.009311   0.010030   0.000773   0.104121   0.505973
    12  N   -0.000077  -0.000018  -0.000075   0.000001  -0.001162  -0.000426
    13  C   -0.000270   0.000034   0.000582  -0.000009   0.006661  -0.016971
    14  C    0.000846   0.000097  -0.002112  -0.000127  -0.014153  -0.081657
    15  N   -0.000048  -0.000003   0.000000   0.000000  -0.000094  -0.002138
    16  S    0.000187   0.000043   0.000250  -0.000002   0.001896   0.008012
    17  N    0.002271   0.000581  -0.000927  -0.000032   0.009792  -0.044649
    18  C   -0.020025  -0.004695  -0.006410  -0.000742  -0.067673  -0.376622
    19  C   -0.088207  -0.157135  -0.418409  -0.003323  -0.195225  -1.160427
    20  C   -0.301091  -0.178613  -0.234754   0.019512  -1.174349  -2.919200
    21  S    0.074559   0.055516  -0.057521   0.037129   0.271979  -0.010732
    22  C    0.280876   0.033699  -0.806392   0.196908   0.470311  -0.414525
    23  C   -1.041837  -1.103226   0.675473  -0.122649  -0.626270   0.766941
    24  C   -0.924210  -0.808367   1.772589  -0.378272   1.203902  -0.027083
    25  C    0.457834   0.041684  -1.015622  -0.015125  -1.053006  -0.068785
    26  N    0.005299   0.022711   0.071678   0.002267   0.011843  -0.000373
    27  C   -0.089952  -0.189689  -0.186283   0.003861   0.108429  -0.000322
    28  C    0.049772  -0.118329  -0.995621   0.056434  -0.127004  -0.055162
    29  N    0.005097   0.036463  -0.023246  -0.000529  -0.010017   0.000239
    30  S    0.016588   0.012897  -0.100816   0.000320  -0.018586  -0.001487
    31  N    0.034649   0.281600  -0.214606  -0.006350  -0.014052   0.004475
    32  C    0.381232   0.430506  -0.157260   0.129003  -0.748773  -0.089135
    33  H    0.516992   0.127915  -0.057675   0.034661  -0.255046  -0.118366
    34  H    0.043395   0.426793  -0.131539   0.027728  -0.073290   0.007015
    35  H   -0.170926  -0.064112   0.030795  -0.003150   0.006069  -0.129661
    36  H    0.030145  -0.005681  -0.008122  -0.000879  -0.010942  -0.065393
    37  H   -0.004416   0.000559  -0.000648   0.000160  -0.001721   0.028663
    38  H   -0.000002   0.000002   0.000007  -0.000000   0.000140  -0.000220
    39  H   -0.004266  -0.004537  -0.012675   0.000196  -0.046022  -0.160384
    40  H   -0.147122  -0.078982   0.141248  -0.075599  -0.104441   0.048553
    41  H    0.057935  -0.029432  -0.240404   0.055892  -0.062785  -0.020693
    42  H   -0.002190  -0.008303  -0.006950  -0.000079   0.001600  -0.000258
              7          8          9         10         11         12
     1  C   -0.251199   0.020378   0.112504   0.085160   0.007878  -0.000077
     2  C   -0.570084   0.076939   0.303755   0.032257   0.009311  -0.000018
     3  C   -0.826838   0.153069   0.408667  -0.042145   0.010030  -0.000075
     4  O    0.014564  -0.017076   0.003442   0.001404   0.000773   0.000001
     5  C   -0.970706  -0.414709   0.547438   0.045128   0.104121  -0.001162
     6  C   -1.807467  -1.257619   1.990744   0.298981   0.505973  -0.000426
     7  C    9.890696   1.874994  -3.668979  -0.555925  -0.349743   0.009039
     8  C    1.874994   8.245764  -2.362754  -0.924207  -0.909827   0.004743
     9  C   -3.668979  -2.362754  12.525270   1.698732   0.231937   0.027927
    10  C   -0.555925  -0.924207   1.698732  13.965014  -5.965392   0.604927
    11  C   -0.349743  -0.909827   0.231937  -5.965392  17.675441  -0.179000
    12  N    0.009039   0.004743   0.027927   0.604927  -0.179000   6.740460
    13  C   -0.044306  -0.249133   0.033692   1.615858  -2.316634   0.064362
    14  C    0.046487   0.395359  -1.646246  -2.892554  -2.028049   0.148410
    15  N    0.000210  -0.006553   0.034519  -0.031220   0.171447   0.004907
    16  S   -0.006062  -0.011669   0.017962   0.121489   0.028644  -0.000741
    17  N   -0.009459  -0.070416  -0.132239  -0.283690  -0.217343   0.001080
    18  C    0.119779   0.200431  -0.051386  -0.434951   1.963778  -0.056949
    19  C    1.417945   0.793003  -0.435600   0.237892  -3.081654   0.014533
    20  C    1.274903   0.431412  -1.976923  -0.127315   0.430357   0.004747
    21  S   -0.063755  -0.100658   0.165577  -0.060258  -0.069141  -0.000773
    22  C   -0.007102   0.146549  -1.427125  -0.473569  -0.310130   0.001234
    23  C    1.219990   0.251283  -0.820095  -0.160317  -0.353926   0.001590
    24  C   -0.057740  -0.015284   0.021157   0.007134   0.000672   0.000001
    25  C    0.029304   0.016326  -0.020357  -0.005522  -0.000897  -0.000001
    26  N   -0.000363   0.000013  -0.000242  -0.000010  -0.000001   0.000000
    27  C    0.003477  -0.000125   0.000711  -0.000081  -0.000010  -0.000000
    28  C   -0.008200   0.000343   0.001054   0.000169   0.000027   0.000000
    29  N   -0.000015   0.000008   0.000005  -0.000001  -0.000000  -0.000000
    30  S   -0.000028  -0.000012  -0.000049  -0.000008  -0.000001  -0.000000
    31  N    0.000708   0.000307   0.000581   0.000005   0.000001  -0.000000
    32  C   -0.068558   0.001291   0.003539  -0.001163   0.000067  -0.000000
    33  H    0.008460   0.013068  -0.012014  -0.002475  -0.002857  -0.000053
    34  H    0.004404  -0.000500   0.003753   0.000425   0.000031   0.000000
    35  H    0.365106   0.002305   0.119779   0.008899   0.049474   0.000960
    36  H    0.288355   0.607665  -0.437484   0.099152  -0.490876   0.008434
    37  H   -0.027787  -0.033351  -0.181006  -0.820005   1.378068  -0.207163
    38  H   -0.000497  -0.007631  -0.001522   0.002028  -0.011681  -0.117257
    39  H    0.064161   0.101516  -0.231165  -0.188887  -0.085295   0.002411
    40  H   -0.021225  -0.037286   0.008126   0.027588   0.014766   0.000039
    41  H    0.008413   0.006579  -0.005304  -0.002733  -0.000709  -0.000001
    42  H    0.000051  -0.000002   0.000019  -0.000001  -0.000000  -0.000000
             13         14         15         16         17         18
     1  C   -0.000270   0.000846  -0.000048   0.000187   0.002271  -0.020025
     2  C    0.000034   0.000097  -0.000003   0.000043   0.000581  -0.004695
     3  C    0.000582  -0.002112   0.000000   0.000250  -0.000927  -0.006410
     4  O   -0.000009  -0.000127   0.000000  -0.000002  -0.000032  -0.000742
     5  C    0.006661  -0.014153  -0.000094   0.001896   0.009792  -0.067673
     6  C   -0.016971  -0.081657  -0.002138   0.008012  -0.044649  -0.376622
     7  C   -0.044306   0.046487   0.000210  -0.006062  -0.009459   0.119779
     8  C   -0.249133   0.395359  -0.006553  -0.011669  -0.070416   0.200431
     9  C    0.033692  -1.646246   0.034519   0.017962  -0.132239  -0.051386
    10  C    1.615858  -2.892554  -0.031220   0.121489  -0.283690  -0.434951
    11  C   -2.316634  -2.028049   0.171447   0.028644  -0.217343   1.963778
    12  N    0.064362   0.148410   0.004907  -0.000741   0.001080  -0.056949
    13  C   13.424887  -3.769394  -0.647637   0.017717   0.093512  -2.836557
    14  C   -3.769394  21.330327   0.044967  -0.526195   1.178532  -6.810313
    15  N   -0.647637   0.044967   7.438309  -0.009509  -0.125025   0.586489
    16  S    0.017717  -0.526195  -0.009509  15.722189  -0.216300   0.045665
    17  N    0.093512   1.178532  -0.125025  -0.216300   7.946656  -0.586759
    18  C   -2.836557  -6.810313   0.586489   0.045665  -0.586759  14.361652
    19  C    0.418882   0.562093  -0.091605  -0.005570  -0.152267  -0.459080
    20  C   -0.093184  -0.260803   0.044454   0.031221  -0.026998   0.581718
    21  S    0.023286   0.104777  -0.009760   0.042125   0.019217   0.012715
    22  C    0.003520   0.143547  -0.003166  -0.018382  -0.014067   0.116407
    23  C    0.023912   0.035296  -0.009787   0.009364   0.021337  -0.178413
    24  C   -0.000020  -0.000026  -0.000000  -0.000001  -0.000023  -0.001485
    25  C    0.000017   0.000157  -0.000001  -0.000011   0.000047   0.001241
    26  N    0.000000   0.000000  -0.000000   0.000000   0.000001   0.000001
    27  C    0.000000   0.000002  -0.000000  -0.000000   0.000001   0.000024
    28  C   -0.000000  -0.000003   0.000000   0.000001  -0.000001  -0.000052
    29  N    0.000000   0.000000  -0.000000  -0.000000  -0.000000   0.000000
    30  S    0.000000   0.000000  -0.000000   0.000000  -0.000000   0.000001
    31  N   -0.000000   0.000000  -0.000000   0.000000   0.000000  -0.000000
    32  C    0.000003  -0.000011  -0.000000   0.000004  -0.000019  -0.000017
    33  H   -0.000061  -0.000044  -0.000001   0.000028  -0.000096  -0.000016
    34  H    0.000001   0.000012   0.000000  -0.000001   0.000008   0.000110
    35  H    0.002022  -0.001530   0.000041  -0.000481   0.001231   0.001480
    36  H   -0.002851   0.005896  -0.000766   0.003194  -0.004517   0.001743
    37  H   -0.053023   0.068657   0.001921  -0.006400   0.003026   0.027811
    38  H    0.756029  -0.446538  -0.004860  -0.004935  -0.004006   0.021193
    39  H   -0.020197   0.218974   0.019176  -0.069287   0.089836  -0.035207
    40  H   -0.001642  -0.010067   0.000355  -0.001448  -0.007191  -0.005456
    41  H    0.000029   0.000285  -0.000005   0.000054   0.000363   0.000624
    42  H    0.000000   0.000000  -0.000000  -0.000000   0.000000   0.000000
             19         20         21         22         23         24
     1  C   -0.088207  -0.301091   0.074559   0.280876  -1.041837  -0.924210
     2  C   -0.157135  -0.178613   0.055516   0.033699  -1.103226  -0.808367
     3  C   -0.418409  -0.234754  -0.057521  -0.806392   0.675473   1.772589
     4  O   -0.003323   0.019512   0.037129   0.196908  -0.122649  -0.378272
     5  C   -0.195225  -1.174349   0.271979   0.470311  -0.626270   1.203902
     6  C   -1.160427  -2.919200  -0.010732  -0.414525   0.766941  -0.027083
     7  C    1.417945   1.274903  -0.063755  -0.007102   1.219990  -0.057740
     8  C    0.793003   0.431412  -0.100658   0.146549   0.251283  -0.015284
     9  C   -0.435600  -1.976923   0.165577  -1.427125  -0.820095   0.021157
    10  C    0.237892  -0.127315  -0.060258  -0.473569  -0.160317   0.007134
    11  C   -3.081654   0.430357  -0.069141  -0.310130  -0.353926   0.000672
    12  N    0.014533   0.004747  -0.000773   0.001234   0.001590   0.000001
    13  C    0.418882  -0.093184   0.023286   0.003520   0.023912  -0.000020
    14  C    0.562093  -0.260803   0.104777   0.143547   0.035296  -0.000026
    15  N   -0.091605   0.044454  -0.009760  -0.003166  -0.009787  -0.000000
    16  S   -0.005570   0.031221   0.042125  -0.018382   0.009364  -0.000001
    17  N   -0.152267  -0.026998   0.019217  -0.014067   0.021337  -0.000023
    18  C   -0.459080   0.581718   0.012715   0.116407  -0.178413  -0.001485
    19  C   12.014670  -4.315568   0.594318  -0.465465   1.827330  -0.026518
    20  C   -4.315568  17.457611  -1.607055  -0.160438  -2.165303  -0.050856
    21  S    0.594318  -1.607055  17.136285  -0.379959   0.281060  -0.002212
    22  C   -0.465465  -0.160438  -0.379959   9.851652  -1.221329  -0.011040
    23  C    1.827330  -2.165303   0.281060  -1.221329   8.841935  -0.130597
    24  C   -0.026518  -0.050856  -0.002212  -0.011040  -0.130597  13.374907
    25  C   -0.004447   0.004164  -0.010789  -0.008651  -0.002290  -5.026872
    26  N    0.000525  -0.001232   0.004650   0.009636  -0.008613   0.318540
    27  C   -0.001567  -0.002218   0.004090  -0.015668   0.006744   0.730607
    28  C   -0.001703  -0.001821  -0.003789   0.007318  -0.012027  -2.952204
    29  N   -0.000044  -0.000006  -0.000007  -0.000617   0.000532   0.094687
    30  S   -0.000165   0.000006  -0.000075  -0.000663   0.001376  -0.059020
    31  N   -0.000366  -0.000174   0.000004  -0.002612   0.002054  -0.274197
    32  C   -0.032913  -0.012124  -0.004416   0.007386   0.009053  -0.361809
    33  H   -0.017040  -0.005745  -0.001253   0.009927  -0.023155  -0.000575
    34  H    0.004850  -0.000245   0.001342   0.001649  -0.018883  -0.068845
[...]
 ,0.00717708,0.01418315,0.00557916,-0.00199896,0.00012359,-0.00018796,-
 0.00027675,0.00045354,-0.00042991,0.00092502,0.00069032,-0.00033075,0.
 00382507,-0.00158999,0.00164539,-0.00000454,-0.00032050,0.00008971,0.0
 0003970,-0.00003177,-0.00000123,-0.00001747,-0.00002477,-0.00000696,-0
 .00001378,-0.00004355,-0.00000101,-0.00012511,0.00002755,-0.00001114,-
 0.00001827,-0.00000840,0.00000446,0.00000884,-0.00000147,-0.00000074,-
 0.00000397,-0.00000233,-0.00000020,0.00000327,0.00000354,-0.00000014,0
 .00000348,0.,0.00000027,0.00000352,0.00000004,-0.00000049,-0.00000350,
 0.00000296,0.00000058,0.00000033,-0.00000113,-0.00000108,0.00000019,0.
 00000198,-0.00000052,0.00000046,0.00000006,0.00000428,0.00000073,0.000
 00040,-0.00000014,0.00000239,0.00001325,0.00000025,0.00000061,0.000026
 90,-0.00005930,0.00004651,-0.00054971,0.00033218,-0.02101832,-0.006938
 29,0.03700708,0.00007195,0.00008408,0.00001813,-0.00000006,0.00000800,
 0.00002093,0.00005011,0.00015217,-0.00000102,0.00005207,-0.00013346,0.
 00011841,-0.00037213,0.00004237,-0.00030242,0.00073861,0.00104304,-0.0
 0014740,0.00014726,0.00016289,0.00024202,0.00002246,-0.00024666,0.0001
 1942,0.00035677,-0.00021337,0.00145151,-0.00015882,0.00005956,-0.00011
 983,-0.00018628,-0.00032157,0.00026152,-0.00011288,0.00013917,0.000008
 04,0.00008194,-0.00005059,-0.00008294,-0.00008523,-0.00004632,0.000032
 44,0.00005668,0.00001972,-0.00007617,-0.00007259,0.00021455,0.00017389
 ,-0.00002766,-0.00029351,-0.00042861,-0.00030319,-0.00063174,-0.000529
 69,0.00709637,0.02081632,0.00034215,-0.04672798,0.01124608,-0.01340506
 ,0.00115081,-0.02005854,0.00451129,-0.00553531,-0.00279819,-0.00215375
 ,-0.00253877,0.00158136,-0.00329123,-0.00007071,-0.00003734,0.00000650
 ,0.00003868,0.00003462,0.00000710,-0.00001890,-0.00002678,0.00000425,0
 .00001147,0.00001382,-0.00000074,0.00000505,-0.00000361,-0.00000043,0.
 00000410,-0.00000135,0.00000058,-0.00000605,0.00000376,-0.00000108,0.0
 0000527,-0.00000701,0.00000194,0.00000448,0.00002091,-0.00000394,0.000
 00183,-0.00000931,-0.00001494,0.00001041,0.00000722,-0.00000497,-0.000
 01810,-0.00000957,-0.00002612,0.00002060,-0.00001736,-0.00012070,0.000
 01609,0.00000904,-0.00000250,0.00000267,0.00000120,0.00000595,0.044602
 71,-0.00003859,-0.00001514,0.00001686,0.00000904,-0.00003433,-0.000011
 39,0.00001560,0.00002543,-0.00000422,0.00004739,-0.00003582,0.00000669
 ,0.00010474,-0.00005218,0.00011042,-0.00069645,-0.00031614,-0.00020535
 ,0.00023716,0.00023692,0.00002601,0.00008490,-0.00044696,0.00006098,-0
 .00069585,0.00001850,-0.00042445,0.00004524,0.00002506,-0.00017783,0.0
 0008820,0.00012582,-0.00002832,0.00003620,-0.00006111,-0.00004101,-0.0
 0007575,-0.00002560,0.00003907,-0.00005954,0.00011119,-0.00005498,0.00
 003040,-0.00021453,0.00007026,-0.00010572,0.00007605,-0.00014576,-0.00
 030541,-0.00045145,-0.00065565,-0.00061039,-0.00003808,-0.00057198,-0.
 00294092,-0.00622763,-0.00069817,0.01212119,-0.35908534,0.04489485,0.0
 0174900,-0.00723568,0.00123412,-0.00138726,0.00021864,-0.00063872,0.00
 198078,0.00005555,0.00125528,-0.00000422,-0.00000486,0.00000198,0.0000
 0339,0.00000599,0.00000486,-0.00000208,-0.00000495,0.00000116,0.000000
 40,0.00000015,-0.00000047,0.00000039,-0.00000077,-0.00000041,-0.000002
 21,-0.00000168,0.00000022,0.00000038,0.00000123,0.00000063,0.00000094,
 -0.00000382,-0.00000029,-0.00000173,0.00000317,-0.00000101,0.00000200,
 0.00000338,0.00000670,-0.00000215,-0.00000278,-0.00000395,0.00001696,0
 .00000794,0.00000316,0.00002851,-0.00000761,0.00003730,0.00001596,-0.0
 0001006,0.00000469,-0.00000355,-0.00000159,-0.00000378,-0.00985857,0.3
 7329722,0.00008795,0.00010426,-0.00005950,-0.00006005,-0.00000918,-0.0
 0001788,0.00005649,0.00001208,0.00000564,0.00011654,-0.00013050,-0.000
 01263,-0.00048459,-0.00002944,0.00028377,0.00015567,0.00073964,0.00069
 276,0.00017141,-0.00007455,-0.00038413,0.00008531,-0.00000328,-0.00007
 245,0.00164753,-0.00053471,-0.00239963,-0.00033082,-0.00000749,-0.0001
 7851,0.00006928,-0.00019215,-0.00001800,0.00012841,-0.00000325,-0.0001
 1935,-0.00014985,-0.00002962,0.00009110,-0.00009212,-0.00013007,0.0000
 2820,0.00010409,0.00046723,-0.00012271,0.00025876,-0.00073578,-0.00031
 645,0.00041332,0.00005846,0.00035227,-0.00130955,0.00000829,0.00024975
 ,0.00254513,0.01067037,0.00103428,-0.01299692,0.04244459,-0.02931948,0
 .00201314,-0.00796876,-0.00210373,-0.00197937,-0.00144406,-0.00069093,
 -0.00355685,0.00114873,0.00243207,-0.00001064,-0.00001617,-0.00000410,
 -0.00000240,0.00002128,0.00000148,0.00000258,-0.00000771,0.00000601,0.
 00000037,-0.00000502,-0.00000121,-0.00000651,-0.00000049,0.00000084,-0
 .00000154,-0.00000130,-0.00000152,0.00000212,-0.00000668,0.00000236,0.
 00000377,0.00000109,-0.00000328,0.00000634,0.00000835,0.00000242,0.000
 00490,-0.00000521,0.00002056,0.00001113,0.00000474,0.00000667,-0.00002
 883,-0.00000337,0.00001769,-0.00013431,0.00002232,0.00025483,0.0000362
 6,0.00000837,-0.00004524,0.00002961,0.00000971,-0.00000655,0.01389208,
 -0.04450175,0.02760460,0.00022700,-0.00033321,0.00005313,0.00048416,-0
 .00017342,-0.00005164,0.00013913,0.00124434,0.00008015,0.00048827,-0.0
 0003272,0.00021451,-0.00212653,-0.00008335,-0.00025087,0.00075001,0.00
 012639,0.00160166,-0.00002491,0.00005912,0.00004755,0.00001484,-0.0000
 2577,0.00021293,0.00041624,-0.00146391,-0.00003639,-0.00030379,0.00012
 147,-0.00025509,-0.00000872,-0.00008565,-0.00001657,0.00000732,-0.0000
 2881,0.00004056,-0.00002742,-0.00002161,0.00001144,0.00001550,-0.00001
 102,0.00001554,-0.00000632,-0.00000991,0.00000501,0.00001574,-0.000013
 37,-0.00003027,0.00003292,-0.00000687,-0.00001512,-0.00004457,-0.00004
 443,0.00002753,-0.00366118,-0.00005976,-0.00348627,-0.00276099,0.00419
 355,-0.00170917,0.00664520,0.01339720,0.00320722,-0.11658543,-0.132158
 30,-0.02752359,-0.00253780,-0.02283937,0.00098785,0.00041353,0.0002930
 5,-0.00000612,-0.00022669,-0.00047906,-0.00008387,0.00012126,0.0002528
 9,-0.00005511,-0.00005455,-0.00008984,0.00001269,-0.00000725,0.0000257
 4,0.00000110,-0.00003688,-0.00000993,0.00000036,0.00002830,0.00005663,
 -0.00000690,-0.00004501,0.00000130,0.00000247,-0.00010641,-0.00009421,
 0.00004245,0.00003021,-0.00005180,-0.00001258,0.00007859,-0.00000050,-
 0.00005182,0.00001048,-0.00000845,-0.00012475,-0.00001767,0.00001714,-
 0.00002116,-0.00000651,0.00000462,-0.00000845,-0.00000403,0.00000080,-
 0.00001256,0.00168200,0.00017020,-0.00070737,0.11692914,-0.00016124,0.
 00009201,-0.00005762,-0.00023303,0.00003061,-0.00004664,0.00029849,-0.
 00139744,0.00026046,0.00084941,-0.00351837,0.00184056,0.00121707,0.000
 77075,0.00008328,0.00016407,-0.00009992,-0.00038189,-0.00018832,-0.000
 47208,-0.00004854,-0.00000476,0.00030470,-0.00014810,0.00024435,-0.000
 01677,0.00023502,-0.00006300,-0.00003687,0.00011910,0.00001158,-0.0000
 0757,-0.00003636,-0.00000476,-0.00000249,0.00000347,0.00000053,0.00000
 987,0.00000014,-0.00000593,0.00000293,-0.00000744,0.00001088,0.0000181
 4,-0.00000241,0.00000259,-0.00001697,0.00000215,0.00000216,0.00001606,
 0.00001593,-0.00001093,0.00003504,0.00000719,-0.00020905,0.00131611,0.
 00009485,0.00280247,-0.00197529,0.00132969,-0.00752650,-0.01267098,-0.
 00250589,-0.13562497,-0.29388089,-0.02836432,0.00130440,0.00340568,0.0
 0039796,0.00017944,0.00012821,-0.00000642,-0.00008165,-0.00039817,-0.0
 0005883,0.00006904,0.00010938,-0.00006601,-0.00001073,0.00008493,0.000
 02083,0.00005478,0.00000166,0.00000317,0.00003715,0.00004354,-0.000004
 77,-0.00000929,0.00000920,-0.00000057,-0.00003579,0.00005848,-0.000000
 87,-0.00001187,-0.00015277,0.00002339,-0.00003505,0.00004281,0.0000148
 1,-0.00000900,-0.00000148,0.00000676,-0.00002490,0.00000425,0.00005725
 ,-0.00000078,-0.00000490,0.00000934,-0.00000410,-0.00000061,0.00000072
 ,0.00000086,0.00000029,0.00000205,-0.00089576,0.00006783,0.00010639,0.
 13824244,0.30798873,0.00023916,-0.00006959,0.00004793,0.00027133,-0.00
 028862,0.00001337,0.00033125,0.00128892,0.00005187,-0.00010641,0.00034
 594,-0.00055696,-0.00150691,-0.00044995,-0.00005581,0.00163245,-0.0000
 4991,-0.00247325,0.00014211,0.00010893,-0.00009568,0.00016098,-0.00012
 473,-0.00033709,-0.00008077,-0.00043664,0.00071918,-0.00038179,-0.0000
 5041,0.00025128,0.00002770,-0.00007071,-0.00007488,-0.00000931,-0.0000
 4851,0.00003401,0.00000282,0.00002910,0.00000769,-0.00002056,-0.000036
 35,-0.00000827,0.00000576,0.00001799,-0.00000567,0.00001343,-0.0000292
 5,-0.00000397,0.00009485,0.00004161,0.00003255,-0.00008532,0.00012120,
 0.00008697,-0.00350912,0.00040356,0.00267621,-0.00135510,0.00218050,-0
 .00090695,0.00548385,0.00684505,-0.00241790,-0.02672956,-0.02680396,-0
 .02819571,-0.00188759,-0.01032539,0.00154793,-0.00018870,-0.00030089,-
 0.00002455,0.00011814,0.00065928,0.00001312,-0.00020343,-0.00031904,-0
 .00004503,0.00000003,-0.00002063,-0.00000360,-0.00002516,-0.00002740,0
 .00001809,-0.00002734,-0.00002891,-0.00000853,0.00001131,-0.00003278,0
 .00001229,0.00003518,-0.00005916,-0.00001961,0.00004457,0.00009997,0.0
 0001326,0.00004742,-0.00002956,0.00001929,0.00006001,-0.00000488,0.000
 02735,-0.00012594,0.00003590,0.00024312,-0.00001791,0.00001898,0.00000
 510,-0.00000250,-0.00000185,-0.00001080,0.00000076,-0.00000239,-0.0000
 0461,-0.00048367,0.00039937,0.00280240,0.02766577,0.02680590,0.0266519
 8,0.00035204,-0.00041530,0.00004634,0.00053151,-0.00010615,-0.00001126
 ,0.00021344,0.00169121,-0.00013625,-0.00070764,-0.00023430,0.00011164,
 -0.00133985,-0.00068277,-0.00002740,0.00003344,-0.00004041,-0.00002358
 ,0.00000328,0.00000018,-0.00001138,-0.00001453,0.00000933,0.00000108,0
 .00002145,0.00002757,0.00000805,-0.00000737,-0.00005133,-0.00000296,0.
 00000128,0.00000625,-0.00000287,0.00000423,0.00001214,0.00000642,0.000
 00471,0.00000484,-0.00000111,-0.00000274,0.00000806,0.00000488,0.00001
 187,0.00002625,-0.00000526,-0.00000217,-0.00001303,0.00000036,-0.00000
 364,0.00000381,0.00000926,0.00000321,-0.00000161,-0.00000796,-0.000062
 57,0.00003004,-0.00002968,0.00007437,0.00016471,0.00002906,0.00007718,
 -0.00000922,-0.00002124,-0.00004183,-0.00010485,-0.00007948,-0.0000803
 6,0.00003310,-0.00001916,0.00378883,0.02715515,0.00001372,-0.05430710,
 0.01390187,0.00023441,-0.00673103,-0.03658774,0.00004226,-0.00385741,-
 0.00362527,0.00018797,-0.00094903,0.00001379,0.00001164,0.00044907,-0.
 00019958,-0.00000249,-0.00014215,0.00048286,-0.00002719,0.00031522,0.0
 0151902,-0.00001610,-0.00490939,0.00093200,0.00018394,0.00004511,-0.00
 005770,0.00001107,0.00010429,0.00000765,0.00000423,-0.00000252,-0.0000
 0689,-0.00000418,0.00000806,0.00000845,0.00000168,-0.00000562,-0.00000
 147,0.00000342,-0.00000187,0.00000202,-0.00000038,0.00000553,0.0000016
 3,0.00000976,0.00005434,-0.00034311,0.00036457,0.06702595,-0.00025792,
 -0.00003345,-0.00000192,0.00008869,0.00012327,0.00000439,-0.00054801,-
 0.00172483,0.00011201,-0.00232198,0.00015914,0.00005481,0.00030932,0.0
 0067337,-0.00000123,0.00000343,0.00004611,-0.00001084,0.00000327,-0.00
 003914,0.00001024,0.00001612,0.00001216,0.00000572,-0.00001584,-0.0000
 2369,-0.00000324,0.00000938,0.00001853,0.00000505,-0.00000277,-0.00000
 515,0.00000243,-0.00000237,-0.00000232,-0.00000338,-0.00000086,-0.0000
 0222,-0.00000021,-0.00000050,-0.00000315,-0.00000087,-0.00000242,-0.00
 000569,0.00000080,0.00000290,0.00000231,-0.00000245,0.00000484,0.00000
 085,0.00000142,-0.00000597,-0.00000107,0.00000201,-0.00001796,0.000042
 17,-0.00000550,0.00002332,0.00001271,0.00000402,0.00003167,-0.00005196
 ,0.00002306,-0.00000364,-0.00001394,-0.00008469,-0.00008135,-0.0000330
 3,-0.00004718,0.00000936,-0.01123534,0.00000602,0.01356127,-0.34154833
 ,-0.00116835,-0.00907256,-0.01243447,0.00017467,-0.00133842,0.00180140
 ,-0.00005674,0.00016787,0.00026283,0.00000541,-0.00009796,0.00004410,0
 .00000122,0.00028991,-0.00013164,0.00001273,-0.00009737,-0.00055528,0.
 00000107,0.00208776,0.00047255,-0.00012697,-0.00002980,0.00005224,-0.0
 0001012,-0.00004924,-0.00001449,-0.00000067,0.00000780,0.00000324,0.00
 000411,-0.00000185,-0.00000438,-0.00000061,0.00000187,0.00000066,-0.00
 000075,0.00000093,-0.00000073,0.00000038,0.00000179,-0.00000146,0.0000
 0586,-0.00009160,0.00009217,0.00023487,-0.00264258,0.36441220,-0.00001
 141,0.00009942,-0.00014344,-0.00014899,-0.00002235,-0.00004617,0.00018
 086,0.00004360,-0.00287423,0.00011168,-0.00005046,0.00005979,-0.000002
 74,-0.00002210,-0.00028274,0.00001238,-0.00001613,0.00013254,-0.000012
 41,0.00004271,-0.00003173,-0.00001367,-0.00001644,-0.00000561,-0.00000
 054,0.00000562,0.00000433,-0.00000016,0.00002072,-0.00001755,-0.000001
 29,0.00000456,-0.00000006,0.00000280,-0.00000901,-0.00000601,-0.000006
 30,-0.00000240,0.00000498,0.00000832,-0.00000288,-0.00000165,-0.000006
 60,-0.00001013,0.00000012,0.00000224,-0.00000429,0.00000496,-0.0000045
 2,0.00000416,-0.00001455,-0.00000397,0.00000511,0.00000544,-0.00002098
 ,-0.00008684,0.00003330,-0.00003953,-0.00007182,0.00000051,-0.00005674
 ,0.00009038,-0.00002087,0.00006237,0.00018057,-0.00007167,0.00008908,-
 0.00013296,0.00005448,-0.00021418,-0.00027005,0.00630859,0.00021047,-0
 .00193683,-0.04056233,0.00015762,0.00082396,-0.00116204,0.00025060,0.0
 0005128,0.00632987,-0.00003574,0.00003436,-0.00043232,0.00001297,-0.00
 004231,-0.00023652,-0.00004453,-0.00001119,-0.00132768,0.00001868,-0.0
 0000851,0.00087015,0.00017873,0.00012978,0.00752531,0.00000266,0.00000
 762,0.00009919,0.00000035,-0.00000261,-0.00003604,-0.00001104,0.000002
 21,0.00000405,-0.00000651,0.00000084,0.00000017,0.00000351,-0.00000031
 ,-0.00000023,0.00000094,-0.00000052,-0.00000002,-0.00002074,-0.0000052
 3,-0.00001248,0.00023466,0.00029163,-0.00003176,-0.00088248,0.00085617
 ,0.02532151,-0.00001757,0.00019707,-0.00001607,-0.00023356,-0.00007329
 ,0.00000291,0.00041086,0.00006026,-0.00001509,-0.00014752,-0.00018772,
 0.00000438,0.00021511,-0.00005595,0.00000077,0.00001286,0.00001129,0.0
 0001167,-0.00001712,0.00000050,-0.00000022,-0.00001252,0.00000982,-0.0
 0001295,0.00001795,0.00000716,0.00000723,-0.00000433,-0.00001002,-0.00
 000104,-0.00000008,0.00000292,-0.00000102,0.00000103,0.00000136,0.0000
 0217,0.00000160,0.00000155,-0.00000053,-0.00000053,0.00000144,0.000001
 07,0.00000119,0.00000266,-0.00000053,-0.00000104,0.00000042,0.00000128
 ,-0.00000156,-0.00000111,0.00000007,0.00000285,0.00000077,-0.00000239,
 -0.00000445,-0.00000265,-0.00000200,0.00000459,-0.00000035,0.00000246,
 -0.00000902,0.00000149,-0.00000547,-0.00001037,0.00000028,0.00000134,0
 .00002084,0.00000417,0.00000874,-0.00059748,0.00045570,-0.00000657,0.0
 0316389,0.00158833,0.00010450,0.00528630,-0.00769457,-0.00009014,-0.30
 088627,-0.09486732,0.00398392,-0.01798707,-0.01160579,0.00041177,0.001
 82321,-0.00065746,-0.00003622,-0.00115384,0.00023445,0.00000808,-0.001
 17695,0.00029175,0.00002022,-0.00024823,0.00344624,0.00000423,-0.00000
 096,0.00000190,-0.00000146,0.00002754,0.00002296,0.00000077,-0.0000034
 5,-0.00000014,0.00000252,0.00000128,0.00000142,-0.00000037,-0.00000103
 ,-0.00000039,0.00000034,-0.00000056,0.00000030,-0.00000024,-0.00000126
 ,-0.00000023,-0.00000022,0.00000848,0.00000282,-0.00000638,0.00004042,
 0.00006145,0.00000410,0.31147675,-0.00006022,-0.00003467,0.00000648,-0
 .00001781,-0.00004821,-0.00000251,-0.00022507,0.00015698,-0.00000477,-
 0.00005367,0.00008581,0.00000149,0.00001400,0.00006021,-0.00000583,-0.
 00000923,0.00002638,-0.00000247,-0.00000642,-0.00001176,-0.00000146,0.
 00000999,0.00000125,0.00000976,-0.00001201,-0.00001502,-0.00000531,0.0
 0000671,0.00002576,0.00000049,-0.00000150,-0.00000414,0.00000182,-0.00
 000272,-0.00000428,-0.00000311,-0.00000151,-0.00000263,-0.00000013,0.0
 0000029,-0.00000397,-0.00000152,-0.00000522,-0.00001136,0.00000193,0.0
 0000237,0.00000681,-0.00000047,0.00000115,-0.00000140,-0.00000325,-0.0
 0000202,-0.00000168,0.00000394,0.00001010,-0.00001088,0.00000256,-0.00
 001777,-0.00002015,-0.00000233,0.00000379,0.00001825,-0.00000241,-0.00
 000664,0.00001709,0.00001234,0.00000330,-0.00001899,0.00000184,-0.0002
 5009,-0.00073569,0.00001126,-0.00052073,-0.00323110,0.00009147,-0.0325
 7177,-0.02330467,0.00054622,-0.09382270,-0.09116795,0.00158440,0.01781
 316,0.01064004,-0.00026914,-0.00133560,0.00179480,-0.00001297,-0.00000
 539,0.00039279,-0.00001113,0.00174848,-0.00004697,-0.00002423,0.001504
 80,-0.00327236,0.00006474,-0.00001138,-0.00000778,-0.00000065,-0.00001
 951,-0.00001648,-0.00000119,0.00000393,0.00000168,-0.00000118,-0.00000
 355,-0.00000245,-0.00000056,0.00000263,0.00000077,-0.00000133,0.000000
 98,-0.00000098,0.00000036,-0.00000105,-0.00000050,-0.00000121,0.000010
 01,0.00002021,-0.00002558,-0.00091863,-0.00036625,0.00003070,0.1087465
 2,0.10909352,-0.00001928,0.00004346,0.00020026,-0.00002963,-0.00003814
 ,-0.00012704,0.00000863,0.00002997,-0.00183234,-0.00001052,-0.00002810
 ,0.00006717,0.00003871,0.00001435,-0.00003575,-0.00000536,-0.00001909,
 0.00000917,0.00000919,0.00000511,-0.00000450,0.00000017,-0.00000134,-0
 .00000622,0.00000119,0.00000289,-0.00000103,-0.00000003,-0.00000024,0.
 00000109,-0.00000019,0.00000083,-0.00000033,0.00000085,-0.00000071,-0.
 00000159,-0.00000126,-0.00000010,0.00000113,0.00000086,-0.00000029,-0.
 00000041,-0.00000079,0.00000018,-0.00000036,0.00000024,-0.00000146,0.0
 0000085,-0.00000033,0.00000145,-0.00000143,0.00000005,0.00000130,0.000
 00032,-0.00000193,-0.00000297,0.00000530,0.00000113,0.00000015,-0.0000
 0181,-0.00000602,0.00000511,0.00000102,0.00000580,-0.00000753,-0.00000
 427,0.00000399,0.00000266,0.00000217,-0.00005819,-0.00002937,-0.000487
 64,0.00012222,0.00008715,0.01205361,0.00011492,0.00014286,-0.00652086,
 0.00396721,0.00166284,-0.03703471,0.00013816,0.00006994,0.00654909,-0.
 00002657,0.00000101,-0.00147988,0.00000992,-0.00001671,-0.00068032,-0.
 00000028,-0.00002533,0.00028459,0.00009564,0.00008509,0.00427114,0.000
 00214,0.00000166,0.00005172,0.00000273,-0.00000278,-0.00010023,-0.0000
 0526,0.00000124,0.00000648,-0.00000031,0.00000019,0.00000059,0.0000001
 6,-0.00000029,0.00000039,0.00000009,0.00000005,0.00000017,-0.00000023,
 0.00000012,0.00000005,0.00000110,0.00000463,0.00000564,0.00002665,-0.0
 0000274,0.00055841,-0.00438561,-0.00198703,0.02425039\\-0.00000416,-0.
 00000197,0.00000910,0.00000670,-0.00000073,-0.00002369,0.00000003,0.00
 000110,0.00002354,-0.00000097,-0.00000052,-0.00001486,-0.00000311,0.00
 000281,0.00000369,0.00001056,-0.00000828,-0.00000009,-0.00000700,-0.00
 001433,0.00000699,0.00000247,-0.00000201,-0.00000498,0.00001340,0.0000
 2374,0.00000468,0.00001279,-0.00003041,-0.00000981,-0.00001442,-0.0000
 0040,-0.00000848,0.00000309,0.00001744,0.00000206,0.00002765,-0.000012
 72,-0.00000454,-0.00001314,-0.00001323,-0.00000671,-0.00000005,0.00000
 371,0.00001193,-0.00000572,-0.00000283,0.00000127,0.00000960,0.0000107
 2,0.00000373,-0.00000747,0.00001145,0.00000512,-0.00001219,0.00001507,
 -0.00002421,0.00000306,-0.00000980,0.00001689,-0.00000024,0.00000357,0
 .00000351,-0.00000238,-0.00000233,-0.00001157,-0.00000701,0.00000628,0
 .00001030,0.00000035,0.00000003,0.00000291,-0.00000505,-0.00000457,-0.
 00000522,0.00000195,-0.00000038,0.00000389,-0.00000795,0.00001378,0.00
 000363,0.00000689,0.00000213,0.00000259,0.00000092,-0.00000226,0.00000
 056,-0.00000183,0.00000371,-0.00000179,0.00000368,-0.00001050,0.000004
 39,-0.00001204,0.00000619,-0.00000329,-0.00000044,0.00000175,-0.000000
 09,-0.00000264,-0.00000080,-0.00000034,0.00000253,-0.00000210,-0.00000
 651,0.00000017,0.00000054,0.00000257,0.00000509,-0.00000175,0.00000621
 ,-0.00000442,-0.00000013,-0.00000598,0.00000102,0.00000121,-0.00000532
 ,0.00000143,-0.00000185,0.00000506,-0.00000228,-0.00000031,0.00000245,
 0.00000113,-0.00000100,0.00000039\\\@


 A CHEMICAL PHYSICIST MAKES PRECISE MEASUREMENTS ON IMPURE COMPOUNDS.
 A THEORETICAL PHYSICAL CHEMIST MAKES IMPRECISE
     MEASUREMENTS ON PURE COMPOUNDS.
 AN EXPERIMENTAL PHYSICAL CHEMIST MAKES IMPRECISE
     MEASUREMENTS ON IMPURE COMPOUNDS.
 Job cpu time:  1 days  1 hours 36 minutes 30.5 seconds.
 File lengths (MBytes):  RWF=   2055 Int=      0 D2E=      0 Chk=     34 Scr=      1
 Normal termination of Gaussian 09 at Sun Dec 29 12:24:14 2013.
