 Entering Gaussian System, Link 0=g09
 Initial command:
 /opt/gaussian/g09/l1.exe /panfs/panfs.cluster/home/shuo/Gau-26774.inp -scrdir=/panfs/panfs.cluster/home/shuo/
 Default is to use a total of  12 processors:
                               12 via shared-memory
                                1 via Linda
 Entering Link 1 = /opt/gaussian/g09/l1.exe PID=     26775.
  
 Copyright (c) 1988,1990,1992,1993,1995,1998,2003,2009,2011,
            Gaussian, Inc.  All Rights Reserved.
  
 This is part of the Gaussian(R) 09 program.  It is based on
 the Gaussian(R) 03 system (copyright 2003, Gaussian, Inc.),
 the Gaussian(R) 98 system (copyright 1998, Gaussian, Inc.),
 the Gaussian(R) 94 system (copyright 1995, Gaussian, Inc.),
 the Gaussian 92(TM) system (copyright 1992, Gaussian, Inc.),
 the Gaussian 90(TM) system (copyright 1990, Gaussian, Inc.),
 the Gaussian 88(TM) system (copyright 1988, Gaussian, Inc.),
 the Gaussian 86(TM) system (copyright 1986, Carnegie Mellon
 University), and the Gaussian 82(TM) system (copyright 1983,
 Carnegie Mellon University). Gaussian is a federally registered
 trademark of Gaussian, Inc.
  
 This software contains proprietary and confidential information,
 including trade secrets, belonging to Gaussian, Inc.
  
 This software is provided under written license and may be
 used, copied, transmitted, or stored only in accord with that
 written license.
  
 The following legend is applicable only to US Government
 contracts under FAR:
  
                    RESTRICTED RIGHTS LEGEND
  
 Use, reproduction and disclosure by the US Government is
 subject to restrictions as set forth in subparagraphs (a)
 and (c) of the Commercial Computer Software - Restricted
 Rights clause in FAR 52.227-19.
  
 Gaussian, Inc.
 340 Quinnipiac St., Bldg. 40, Wallingford CT 06492
  
  
 ---------------------------------------------------------------
 Warning -- This program may not be used in any manner that
 competes with the business of Gaussian, Inc. or will provide
 assistance to any competitor of Gaussian, Inc.  The licensee
 of this program is prohibited from giving any competitor of
 Gaussian, Inc. access to this program.  By using this program,
 the user acknowledges that Gaussian, Inc. is engaged in the
 business of creating and licensing software in the field of
 computational chemistry and represents and warrants to the
 licensee that it is not a competitor of Gaussian, Inc. and that
 it will not use this program in any manner prohibited above.
 ---------------------------------------------------------------
  

 Cite this work as:
 Gaussian 09, Revision C.01,
 M. J. Frisch, G. W. Trucks, H. B. Schlegel, G. E. Scuseria, 
 M. A. Robb, J. R. Cheeseman, G. Scalmani, V. Barone, B. Mennucci, 
 G. A. Petersson, H. Nakatsuji, M. Caricato, X. Li, H. P. Hratchian, 
 A. F. Izmaylov, J. Bloino, G. Zheng, J. L. Sonnenberg, M. Hada, 
 M. Ehara, K. Toyota, R. Fukuda, J. Hasegawa, M. Ishida, T. Nakajima, 
 Y. Honda, O. Kitao, H. Nakai, T. Vreven, J. A. Montgomery, Jr., 
 J. E. Peralta, F. Ogliaro, M. Bearpark, J. J. Heyd, E. Brothers, 
 K. N. Kudin, V. N. Staroverov, T. Keith, R. Kobayashi, J. Normand, 
 K. Raghavachari, A. Rendell, J. C. Burant, S. S. Iyengar, J. Tomasi, 
 M. Cossi, N. Rega, J. M. Millam, M. Klene, J. E. Knox, J. B. Cross, 
 V. Bakken, C. Adamo, J. Jaramillo, R. Gomperts, R. E. Stratmann, 
 O. Yazyev, A. J. Austin, R. Cammi, C. Pomelli, J. W. Ochterski, 
 R. L. Martin, K. Morokuma, V. G. Zakrzewski, G. A. Voth, 
 P. Salvador, J. J. Dannenberg, S. Dapprich, A. D. Daniels, 
 O. Farkas, J. B. Foresman, J. V. Ortiz, J. Cioslowski, 
 and D. J. Fox, Gaussian, Inc., Wallingford CT, 2010.
 
 ******************************************
 Gaussian 09:  EM64L-G09RevC.01 23-Sep-2011
                29-Dec-2013 
 ******************************************
 %chk=51_C20H6N4OS3Se2.chk
 %NProcShared=12
 Will use up to   12 processors via shared memory.
 %Mem=8000MB
 Default route:  MaxDisk=100GB
 --------------------------------------------
 #B3LYP/6-31++G(d,p) opt scf=direct freq test
 --------------------------------------------
 1/14=-1,18=20,19=15,26=3,38=1/1,3;
 2/9=110,12=2,17=6,18=5,40=1/2;
 3/5=1,6=6,7=1111,11=2,16=1,25=1,30=1,71=1,74=-5/1,2,3;
 4//1;
 5/5=2,38=5/2;
 6/7=2,8=2,9=2,10=2,28=1/1;
 7//1,2,3,16;
 1/14=-1,18=20,19=15/3(2);
 2/9=110/2;
 99//99;
 2/9=110/2;
 3/5=1,6=6,7=1111,11=2,16=1,25=1,30=1,71=1,74=-5/1,2,3;
 4/5=5,16=3/1;
 5/5=2,38=5/2;
 7//1,2,3,16;
 1/14=-1,18=20,19=15/3(-5);
 2/9=110/2;
 6/7=2,8=2,9=2,10=2,19=2,28=1/1;
 99/9=1/99;
 ----------------------------------------------------------------------
 Geom opt of No.51 candidate from the CEPDB database with SMILE code of
  [SiH2]1C(=Cc2cnc3c(c12)c1cscc1c1ccc2cscc2c31)c1nccc2nsnc12, HPC, 2013
 1227, Shuo Dai, Gaussian09
 ----------------------------------------------------------------------
 Charge =  0 Multiplicity = 1
 Symbolic Z-Matrix:
 Si                    1.20191  -0.94812   0.19992 
 H                     0.53576  -0.07667   1.22695 
 H                     0.81415  -0.3066   -1.09574 
 C                     2.97589   0.0154    0.05466 
 C                     3.80301  -0.46661   1.03116 
 C                     3.08658  -1.3506    1.92218 
 C                     2.35637  -0.8933    3.02113 
 N                     1.49326  -1.66799   3.71654 
 C                     1.47309  -2.9871    3.49009 
 C                     2.04931  -3.43998   2.26388 
 C                     2.47639  -2.44155   1.29163 
 C                     2.44926  -4.84628   2.44213 
 C                     3.36582  -5.53237   1.6652 
 S                     3.56834  -7.18492   2.1376 
 C                     2.50708  -7.00495   3.46231 
 C                     2.03916  -5.70907   3.56355 
 C                     1.22801  -5.29855   4.64685 
 C                     0.72736  -6.17272   5.70595 
 C                    -0.08905  -5.73726   6.75816 
 C                    -0.29805  -4.36734   6.69937 
 C                    -1.09729  -3.7466    7.62722 
 S                    -1.20129  -2.06472   7.33654 
 C                    -0.18899  -2.17796   5.95574 
 C                     0.22046  -3.46767   5.69214 
 C                     0.99539  -3.86733   4.55222 
 C                     3.40086   0.80798  -1.06667 
 N                     3.21078   2.16998  -1.04957 
 C                     3.80884   2.98549  -1.98091 
 C                     4.66533   2.61258  -3.01447 
 C                     4.92293   1.22906  -3.047 
 N                     5.7356    0.61203  -3.91863 
 S                     5.7325   -0.99619  -3.50767 
 N                     4.69272  -0.98581  -2.21565 
 C                     4.29037   0.28964  -2.05282 
 H                     4.86118  -0.35459   1.05258 
 H                     2.23312   0.17432   3.20718 
 H                     3.97023  -5.20583   0.83389 
 H                     2.32003  -7.86244   4.10053 
 H                     0.96134  -7.23673   5.68902 
 H                    -0.50123  -6.40268   7.50454 
 H                    -1.63267  -4.18601   8.45628 
 H                     0.02153  -1.26584   5.41841 
 H                     3.5695    4.04298  -1.85406 
 H                     5.104     3.31138  -3.71225 
 

 GradGradGradGradGradGradGradGradGradGradGradGradGradGradGradGradGradGrad
 Berny optimization.
 Initialization pass.
                           ----------------------------
                           !    Initial Parameters    !
                           ! (Angstroms and Degrees)  !
 --------------------------                            --------------------------
 ! Name  Definition              Value          Derivative Info.                !
 --------------------------------------------------------------------------------
 ! R1    R(1,2)                  1.5027         estimate D2E/DX2                !
 ! R2    R(1,3)                  1.4969         estimate D2E/DX2                !
 ! R3    R(1,4)                  2.024          estimate D2E/DX2                !
 ! R4    R(1,11)                 2.2464         estimate D2E/DX2                !
 ! R5    R(4,5)                  1.3675         estimate D2E/DX2                !
 ! R6    R(4,26)                 1.4374         estimate D2E/DX2                !
 ! R7    R(5,6)                  1.4452         estimate D2E/DX2                !
 ! R8    R(5,35)                 1.0643         estimate D2E/DX2                !
 ! R9    R(6,7)                  1.3964         estimate D2E/DX2                !
 ! R10   R(6,11)                 1.4            estimate D2E/DX2                !
 ! R11   R(7,8)                  1.3523         estimate D2E/DX2                !
 ! R12   R(7,36)                 1.0907         estimate D2E/DX2                !
 ! R13   R(8,9)                  1.3386         estimate D2E/DX2                !
 ! R14   R(9,10)                 1.4285         estimate D2E/DX2                !
 ! R15   R(9,25)                 1.4598         estimate D2E/DX2                !
 ! R16   R(10,11)                1.4576         estimate D2E/DX2                !
 ! R17   R(10,12)                1.4729         estimate D2E/DX2                !
 ! R18   R(12,13)                1.3836         estimate D2E/DX2                !
 ! R19   R(12,16)                1.4732         estimate D2E/DX2                !
 ! R20   R(13,14)                1.7306         estimate D2E/DX2                !
 ! R21   R(13,37)                1.0784         estimate D2E/DX2                !
 ! R22   R(14,15)                1.7069         estimate D2E/DX2                !
 ! R23   R(15,16)                1.3815         estimate D2E/DX2                !
 ! R24   R(15,38)                1.0852         estimate D2E/DX2                !
 ! R25   R(16,17)                1.4142         estimate D2E/DX2                !
 ! R26   R(17,18)                1.4617         estimate D2E/DX2                !
 ! R27   R(17,25)                1.4531         estimate D2E/DX2                !
 ! R28   R(18,19)                1.4012         estimate D2E/DX2                !
 ! R29   R(18,39)                1.0896         estimate D2E/DX2                !
 ! R30   R(19,20)                1.387          estimate D2E/DX2                !
 ! R31   R(19,40)                1.0816         estimate D2E/DX2                !
 ! R32   R(20,21)                1.373          estimate D2E/DX2                !
 ! R33   R(20,24)                1.4466         estimate D2E/DX2                !
 ! R34   R(21,22)                1.71           estimate D2E/DX2                !
 ! R35   R(21,41)                1.0803         estimate D2E/DX2                !
 ! R36   R(22,23)                1.7159         estimate D2E/DX2                !
 ! R37   R(23,24)                1.3786         estimate D2E/DX2                !
 ! R38   R(23,42)                1.0794         estimate D2E/DX2                !
 ! R39   R(24,25)                1.4352         estimate D2E/DX2                !
 ! R40   R(26,27)                1.3753         estimate D2E/DX2                !
 ! R41   R(26,34)                1.4256         estimate D2E/DX2                !
 ! R42   R(27,28)                1.3748         estimate D2E/DX2                !
 ! R43   R(28,29)                1.3932         estimate D2E/DX2                !
 ! R44   R(28,43)                1.0916         estimate D2E/DX2                !
 ! R45   R(29,30)                1.4077         estimate D2E/DX2                !
 ! R46   R(29,44)                1.0806         estimate D2E/DX2                !
 ! R47   R(30,31)                1.342          estimate D2E/DX2                !
 ! R48   R(30,34)                1.507          estimate D2E/DX2                !
 ! R49   R(31,32)                1.6599         estimate D2E/DX2                !
 ! R50   R(32,33)                1.6585         estimate D2E/DX2                !
 ! R51   R(33,34)                1.3473         estimate D2E/DX2                !
 ! A1    A(2,1,3)              103.192          estimate D2E/DX2                !
 ! A2    A(2,1,4)               99.2956         estimate D2E/DX2                !
 ! A3    A(2,1,11)             107.7522         estimate D2E/DX2                !
 ! A4    A(3,1,4)               87.7594         estimate D2E/DX2                !
 ! A5    A(3,1,11)             148.4878         estimate D2E/DX2                !
 ! A6    A(4,1,11)              81.6106         estimate D2E/DX2                !
 ! A7    A(1,4,5)              108.125          estimate D2E/DX2                !
 ! A8    A(1,4,26)             125.2827         estimate D2E/DX2                !
 ! A9    A(5,4,26)             124.9311         estimate D2E/DX2                !
 ! A10   A(4,5,6)              110.8559         estimate D2E/DX2                !
 ! A11   A(4,5,35)             125.3548         estimate D2E/DX2                !
 ! A12   A(6,5,35)             123.0141         estimate D2E/DX2                !
 ! A13   A(5,6,7)              122.9637         estimate D2E/DX2                !
 ! A14   A(5,6,11)             114.5202         estimate D2E/DX2                !
 ! A15   A(7,6,11)             112.4398         estimate D2E/DX2                !
 ! A16   A(6,7,8)              123.425          estimate D2E/DX2                !
 ! A17   A(6,7,36)             120.9226         estimate D2E/DX2                !
 ! A18   A(8,7,36)             113.6349         estimate D2E/DX2                !
 ! A19   A(7,8,9)              119.1546         estimate D2E/DX2                !
 ! A20   A(8,9,10)             116.8434         estimate D2E/DX2                !
 ! A21   A(8,9,25)             118.4277         estimate D2E/DX2                !
 ! A22   A(10,9,25)            124.4272         estimate D2E/DX2                !
 ! A23   A(9,10,11)            118.2674         estimate D2E/DX2                !
 ! A24   A(9,10,12)            107.9592         estimate D2E/DX2                !
 ! A25   A(11,10,12)           130.9336         estimate D2E/DX2                !
 ! A26   A(1,11,6)              87.0255         estimate D2E/DX2                !
 ! A27   A(1,11,10)            127.8293         estimate D2E/DX2                !
 ! A28   A(6,11,10)            111.1649         estimate D2E/DX2                !
 ! A29   A(10,12,13)           125.8289         estimate D2E/DX2                !
 ! A30   A(10,12,16)           125.1508         estimate D2E/DX2                !
 ! A31   A(13,12,16)           108.7502         estimate D2E/DX2                !
 ! A32   A(12,13,14)           113.4367         estimate D2E/DX2                !
 ! A33   A(12,13,37)           130.8412         estimate D2E/DX2                !
 ! A34   A(14,13,37)           115.7191         estimate D2E/DX2                !
 ! A35   A(13,14,15)            92.2011         estimate D2E/DX2                !
 ! A36   A(14,15,16)           111.4918         estimate D2E/DX2                !
 ! A37   A(14,15,38)           118.7046         estimate D2E/DX2                !
 ! A38   A(16,15,38)           129.7724         estimate D2E/DX2                !
 ! A39   A(12,16,15)           113.5349         estimate D2E/DX2                !
 ! A40   A(12,16,17)           124.9438         estimate D2E/DX2                !
 ! A41   A(15,16,17)           121.5134         estimate D2E/DX2                !
 ! A42   A(16,17,18)           125.3015         estimate D2E/DX2                !
 ! A43   A(16,17,25)           109.1381         estimate D2E/DX2                !
 ! A44   A(18,17,25)           125.5499         estimate D2E/DX2                !
 ! A45   A(17,18,19)           123.9054         estimate D2E/DX2                !
 ! A46   A(17,18,39)           119.9483         estimate D2E/DX2                !
 ! A47   A(19,18,39)           116.1221         estimate D2E/DX2                !
 ! A48   A(18,19,20)           111.2795         estimate D2E/DX2                !
 ! A49   A(18,19,40)           123.3035         estimate D2E/DX2                !
 ! A50   A(20,19,40)           125.4144         estimate D2E/DX2                !
 ! A51   A(19,20,21)           120.3724         estimate D2E/DX2                !
 ! A52   A(19,20,24)           126.1385         estimate D2E/DX2                !
 ! A53   A(21,20,24)           113.4536         estimate D2E/DX2                !
 ! A54   A(20,21,22)           111.4208         estimate D2E/DX2                !
 ! A55   A(20,21,41)           128.5525         estimate D2E/DX2                !
 ! A56   A(22,21,41)           120.025          estimate D2E/DX2                !
 ! A57   A(21,22,23)            92.0633         estimate D2E/DX2                !
 ! A58   A(22,23,24)           113.0067         estimate D2E/DX2                !
 ! A59   A(22,23,42)           117.3814         estimate D2E/DX2                !
 ! A60   A(24,23,42)           129.603          estimate D2E/DX2                !
 ! A61   A(20,24,23)           110.0125         estimate D2E/DX2                !
 ! A62   A(20,24,25)           124.9858         estimate D2E/DX2                !
 ! A63   A(23,24,25)           124.9441         estimate D2E/DX2                !
 ! A64   A(9,25,17)            126.0782         estimate D2E/DX2                !
 ! A65   A(9,25,24)            125.9214         estimate D2E/DX2                !
 ! A66   A(17,25,24)           107.9992         estimate D2E/DX2                !
 ! A67   A(4,26,27)            119.7025         estimate D2E/DX2                !
 ! A68   A(4,26,34)            121.5748         estimate D2E/DX2                !
 ! A69   A(27,26,34)           117.0589         estimate D2E/DX2                !
 ! A70   A(26,27,28)           121.258          estimate D2E/DX2                !
 ! A71   A(27,28,29)           127.6787         estimate D2E/DX2                !
 ! A72   A(27,28,43)           113.6113         estimate D2E/DX2                !
 ! A73   A(29,28,43)           118.7051         estimate D2E/DX2                !
 ! A74   A(28,29,30)           113.1243         estimate D2E/DX2                !
 ! A75   A(28,29,44)           123.7482         estimate D2E/DX2                !
 ! A76   A(30,29,44)           123.1192         estimate D2E/DX2                !
 ! A77   A(29,30,31)           125.2912         estimate D2E/DX2                !
 ! A78   A(29,30,34)           121.3738         estimate D2E/DX2                !
 ! A79   A(31,30,34)           113.332          estimate D2E/DX2                !
 ! A80   A(30,31,32)           106.4715         estimate D2E/DX2                !
 ! A81   A(31,32,33)           100.835          estimate D2E/DX2                !
 ! A82   A(32,33,34)           106.6969         estimate D2E/DX2                !
 ! A83   A(26,34,30)           119.4453         estimate D2E/DX2                !
 ! A84   A(26,34,33)           127.8894         estimate D2E/DX2                !
 ! A85   A(30,34,33)           112.647          estimate D2E/DX2                !
 ! D1    D(2,1,4,5)             85.9797         estimate D2E/DX2                !
 ! D2    D(2,1,4,26)          -108.1668         estimate D2E/DX2                !
 ! D3    D(3,1,4,5)           -171.0159         estimate D2E/DX2                !
 ! D4    D(3,1,4,26)            -5.1625         estimate D2E/DX2                !
 ! D5    D(11,1,4,5)           -20.7681         estimate D2E/DX2                !
 ! D6    D(11,1,4,26)          145.0853         estimate D2E/DX2                !
 ! D7    D(2,1,11,6)           -54.6191         estimate D2E/DX2                !
 ! D8    D(2,1,11,10)           60.0507         estimate D2E/DX2                !
 ! D9    D(3,1,11,6)           114.0863         estimate D2E/DX2                !
 ! D10   D(3,1,11,10)         -131.2439         estimate D2E/DX2                !
 ! D11   D(4,1,11,6)            42.5169         estimate D2E/DX2                !
 ! D12   D(4,1,11,10)          157.1867         estimate D2E/DX2                !
 ! D13   D(1,4,5,6)             -7.4134         estimate D2E/DX2                !
 ! D14   D(1,4,5,35)           162.7096         estimate D2E/DX2                !
 ! D15   D(26,4,5,6)          -173.3289         estimate D2E/DX2                !
 ! D16   D(26,4,5,35)           -3.206          estimate D2E/DX2                !
 ! D17   D(1,4,26,27)           95.1147         estimate D2E/DX2                !
 ! D18   D(1,4,26,34)         -100.0189         estimate D2E/DX2                !
 ! D19   D(5,4,26,27)         -101.3436         estimate D2E/DX2                !
 ! D20   D(5,4,26,34)           63.5227         estimate D2E/DX2                !
 ! D21   D(4,5,6,7)            -85.3574         estimate D2E/DX2                !
 ! D22   D(4,5,6,11)            57.3798         estimate D2E/DX2                !
 ! D23   D(35,5,6,7)           104.2466         estimate D2E/DX2                !
 ! D24   D(35,5,6,11)         -113.0161         estimate D2E/DX2                !
 ! D25   D(5,6,7,8)            167.6865         estimate D2E/DX2                !
 ! D26   D(5,6,7,36)             4.8821         estimate D2E/DX2                !
 ! D27   D(11,6,7,8)            24.2701         estimate D2E/DX2                !
 ! D28   D(11,6,7,36)         -138.5343         estimate D2E/DX2                !
 ! D29   D(5,6,11,1)           -63.6361         estimate D2E/DX2                !
 ! D30   D(5,6,11,10)          166.6881         estimate D2E/DX2                !
 ! D31   D(7,6,11,1)            83.0233         estimate D2E/DX2                !
 ! D32   D(7,6,11,10)          -46.6526         estimate D2E/DX2                !
 ! D33   D(6,7,8,9)             10.6438         estimate D2E/DX2                !
 ! D34   D(36,7,8,9)           174.5724         estimate D2E/DX2                !
 ! D35   D(7,8,9,10)           -18.892          estimate D2E/DX2                !
 ! D36   D(7,8,9,25)           155.0815         estimate D2E/DX2                !
 ! D37   D(8,9,10,11)           -6.7083         estimate D2E/DX2                !
 ! D38   D(8,9,10,12)          156.2884         estimate D2E/DX2                !
 ! D39   D(25,9,10,11)         179.7185         estimate D2E/DX2                !
 ! D40   D(25,9,10,12)         -17.2848         estimate D2E/DX2                !
 ! D41   D(8,9,25,17)         -162.2365         estimate D2E/DX2                !
 ! D42   D(8,9,25,24)           17.2999         estimate D2E/DX2                !
 ! D43   D(10,9,25,17)          11.2426         estimate D2E/DX2                !
 ! D44   D(10,9,25,24)        -169.221          estimate D2E/DX2                !
 ! D45   D(9,10,11,1)          -63.2684         estimate D2E/DX2                !
 ! D46   D(9,10,11,6)           40.0395         estimate D2E/DX2                !
 ! D47   D(12,10,11,1)         138.3374         estimate D2E/DX2                !
 ! D48   D(12,10,11,6)        -118.3546         estimate D2E/DX2                !
 ! D49   D(9,10,12,13)        -160.2504         estimate D2E/DX2                !
 ! D50   D(9,10,12,16)          13.1            estimate D2E/DX2                !
 ! D51   D(11,10,12,13)         -0.1833         estimate D2E/DX2                !
 ! D52   D(11,10,12,16)        173.1671         estimate D2E/DX2                !
 ! D53   D(10,12,13,14)       -178.7295         estimate D2E/DX2                !
 ! D54   D(10,12,13,37)          1.9427         estimate D2E/DX2                !
 ! D55   D(16,12,13,14)          7.009          estimate D2E/DX2                !
 ! D56   D(16,12,13,37)       -172.3189         estimate D2E/DX2                !
 ! D57   D(10,12,16,15)        177.3651         estimate D2E/DX2                !
 ! D58   D(10,12,16,17)         -1.6226         estimate D2E/DX2                !
 ! D59   D(13,12,16,15)         -8.3249         estimate D2E/DX2                !
 ! D60   D(13,12,16,17)        172.6873         estimate D2E/DX2                !
 ! D61   D(12,13,14,15)         -3.3984         estimate D2E/DX2                !
 ! D62   D(37,13,14,15)        176.0373         estimate D2E/DX2                !
 ! D63   D(13,14,15,16)         -1.617          estimate D2E/DX2                !
 ! D64   D(13,14,15,38)       -179.7815         estimate D2E/DX2                !
 ! D65   D(14,15,16,12)          5.9886         estimate D2E/DX2                !
 ! D66   D(14,15,16,17)       -174.9846         estimate D2E/DX2                !
 ! D67   D(38,15,16,12)       -176.1061         estimate D2E/DX2                !
 ! D68   D(38,15,16,17)          2.9206         estimate D2E/DX2                !
 ! D69   D(12,16,17,18)        174.7694         estimate D2E/DX2                !
 ! D70   D(12,16,17,25)         -6.3524         estimate D2E/DX2                !
 ! D71   D(15,16,17,18)         -4.142          estimate D2E/DX2                !
 ! D72   D(15,16,17,25)        174.7362         estimate D2E/DX2                !
 ! D73   D(16,17,18,19)       -179.188          estimate D2E/DX2                !
 ! D74   D(16,17,18,39)         -1.05           estimate D2E/DX2                !
 ! D75   D(25,17,18,19)          2.1146         estimate D2E/DX2                !
 ! D76   D(25,17,18,39)       -179.7474         estimate D2E/DX2                !
 ! D77   D(16,17,25,9)           2.0778         estimate D2E/DX2                !
 ! D78   D(16,17,25,24)       -177.5274         estimate D2E/DX2                !
 ! D79   D(18,17,25,9)        -179.0474         estimate D2E/DX2                !
 ! D80   D(18,17,25,24)          1.3473         estimate D2E/DX2                !
 ! D81   D(17,18,19,20)         -3.1168         estimate D2E/DX2                !
 ! D82   D(17,18,19,40)        176.3188         estimate D2E/DX2                !
 ! D83   D(39,18,19,20)        178.6801         estimate D2E/DX2                !
 ! D84   D(39,18,19,40)         -1.8842         estimate D2E/DX2                !
 ! D85   D(18,19,20,21)        178.5858         estimate D2E/DX2                !
 ! D86   D(18,19,20,24)          0.8971         estimate D2E/DX2                !
 ! D87   D(40,19,20,21)         -0.8354         estimate D2E/DX2                !
 ! D88   D(40,19,20,24)       -178.5241         estimate D2E/DX2                !
 ! D89   D(19,20,21,22)       -179.7511         estimate D2E/DX2                !
 ! D90   D(19,20,21,41)         -0.2365         estimate D2E/DX2                !
 ! D91   D(24,20,21,22)         -1.7857         estimate D2E/DX2                !
 ! D92   D(24,20,21,41)        177.7289         estimate D2E/DX2                !
 ! D93   D(19,20,24,23)       -179.8825         estimate D2E/DX2                !
 ! D94   D(19,20,24,25)          2.77           estimate D2E/DX2                !
 ! D95   D(21,20,24,23)          2.2911         estimate D2E/DX2                !
 ! D96   D(21,20,24,25)       -175.0563         estimate D2E/DX2                !
 ! D97   D(20,21,22,23)          0.6394         estimate D2E/DX2                !
 ! D98   D(41,21,22,23)       -178.9222         estimate D2E/DX2                !
 ! D99   D(21,22,23,24)          0.709          estimate D2E/DX2                !
 ! D100  D(21,22,23,42)        179.7288         estimate D2E/DX2                !
 ! D101  D(22,23,24,20)         -1.7781         estimate D2E/DX2                !
 ! D102  D(22,23,24,25)        175.5707         estimate D2E/DX2                !
 ! D103  D(42,23,24,20)        179.3516         estimate D2E/DX2                !
 ! D104  D(42,23,24,25)         -3.2996         estimate D2E/DX2                !
 ! D105  D(20,24,25,9)         176.8181         estimate D2E/DX2                !
 ! D106  D(20,24,25,17)         -3.5758         estimate D2E/DX2                !
 ! D107  D(23,24,25,9)          -0.141          estimate D2E/DX2                !
 ! D108  D(23,24,25,17)        179.4651         estimate D2E/DX2                !
 ! D109  D(4,26,27,28)         168.2777         estimate D2E/DX2                !
 ! D110  D(34,26,27,28)          2.741          estimate D2E/DX2                !
 ! D111  D(4,26,34,30)        -167.7663         estimate D2E/DX2                !
 ! D112  D(4,26,34,33)          10.5534         estimate D2E/DX2                !
 ! D113  D(27,26,34,30)         -2.5188         estimate D2E/DX2                !
 ! D114  D(27,26,34,33)        175.801          estimate D2E/DX2                !
 ! D115  D(26,27,28,29)         -1.0956         estimate D2E/DX2                !
 ! D116  D(26,27,28,43)        179.7322         estimate D2E/DX2                !
 ! D117  D(27,28,29,30)         -0.8234         estimate D2E/DX2                !
 ! D118  D(27,28,29,44)       -179.8079         estimate D2E/DX2                !
 ! D119  D(43,28,29,30)        178.3117         estimate D2E/DX2                !
 ! D120  D(43,28,29,44)         -0.6728         estimate D2E/DX2                !
 ! D121  D(28,29,30,31)       -178.3755         estimate D2E/DX2                !
 ! D122  D(28,29,30,34)          0.9439         estimate D2E/DX2                !
 ! D123  D(44,29,30,31)          0.6164         estimate D2E/DX2                !
 ! D124  D(44,29,30,34)        179.9357         estimate D2E/DX2                !
 ! D125  D(29,30,31,32)        178.261          estimate D2E/DX2                !
 ! D126  D(34,30,31,32)         -1.1062         estimate D2E/DX2                !
 ! D127  D(29,30,34,26)          0.6858         estimate D2E/DX2                !
 ! D128  D(29,30,34,33)       -177.8774         estimate D2E/DX2                !
 ! D129  D(31,30,34,26)       -179.9192         estimate D2E/DX2                !
 ! D130  D(31,30,34,33)          1.5176         estimate D2E/DX2                !
 ! D131  D(30,31,32,33)          0.4393         estimate D2E/DX2                !
 ! D132  D(31,32,33,34)          0.4196         estimate D2E/DX2                !
 ! D133  D(32,33,34,26)       -179.4986         estimate D2E/DX2                !
 ! D134  D(32,33,34,30)         -1.084          estimate D2E/DX2                !
 --------------------------------------------------------------------------------
 Trust Radius=3.00D-01 FncErr=1.00D-07 GrdErr=1.00D-06
 Number of steps in this run=    264 maximum allowed number of steps=    264.
 GradGradGradGradGradGradGradGradGradGradGradGradGradGradGradGradGradGrad

                          Input orientation:                          
 ---------------------------------------------------------------------
 Center     Atomic      Atomic             Coordinates (Angstroms)
 Number     Number       Type             X           Y           Z
 ---------------------------------------------------------------------
      1         14           0        1.201910   -0.948120    0.199920
      2          1           0        0.535760   -0.076670    1.226950
      3          1           0        0.814150   -0.306600   -1.095740
      4          6           0        2.975890    0.015400    0.054660
      5          6           0        3.803010   -0.466610    1.031160
      6          6           0        3.086580   -1.350600    1.922180
      7          6           0        2.356370   -0.893300    3.021130
      8          7           0        1.493260   -1.667990    3.716540
      9          6           0        1.473090   -2.987100    3.490090
     10          6           0        2.049310   -3.439980    2.263880
     11          6           0        2.476390   -2.441550    1.291630
     12          6           0        2.449260   -4.846280    2.442130
     13          6           0        3.365820   -5.532370    1.665200
     14         16           0        3.568340   -7.184920    2.137600
     15          6           0        2.507080   -7.004950    3.462310
     16          6           0        2.039160   -5.709070    3.563550
     17          6           0        1.228010   -5.298550    4.646850
     18          6           0        0.727360   -6.172720    5.705950
     19          6           0       -0.089050   -5.737260    6.758160
     20          6           0       -0.298050   -4.367340    6.699370
     21          6           0       -1.097290   -3.746600    7.627220
     22         16           0       -1.201290   -2.064720    7.336540
     23          6           0       -0.188990   -2.177960    5.955740
     24          6           0        0.220460   -3.467670    5.692140
     25          6           0        0.995390   -3.867330    4.552220
     26          6           0        3.400860    0.807980   -1.066670
     27          7           0        3.210780    2.169980   -1.049570
     28          6           0        3.808840    2.985490   -1.980910
     29          6           0        4.665330    2.612580   -3.014470
     30          6           0        4.922930    1.229060   -3.047000
     31          7           0        5.735600    0.612030   -3.918630
     32         16           0        5.732500   -0.996190   -3.507670
     33          7           0        4.692720   -0.985810   -2.215650
     34          6           0        4.290370    0.289640   -2.052820
     35          1           0        4.861180   -0.354590    1.052580
     36          1           0        2.233120    0.174320    3.207180
     37          1           0        3.970230   -5.205830    0.833890
     38          1           0        2.320030   -7.862440    4.100530
     39          1           0        0.961340   -7.236730    5.689020
     40          1           0       -0.501230   -6.402680    7.504540
     41          1           0       -1.632670   -4.186010    8.456280
     42          1           0        0.021530   -1.265840    5.418410
     43          1           0        3.569500    4.042980   -1.854060
     44          1           0        5.104000    3.311380   -3.712250
 ---------------------------------------------------------------------
                    Distance matrix (angstroms):
                    1          2          3          4          5
     1  Si   0.000000
     2  H    1.502655   0.000000
     3  H    1.496877   2.350587   0.000000
     4  C    2.023975   2.708685   2.469863   0.000000
     5  C    2.772820   3.296257   3.671865   1.367484   0.000000
     6  C    2.584599   2.934779   3.919402   2.316428   1.445208
     7  C    3.048772   2.683391   4.435231   3.163777   2.496961
     8  N    3.601349   3.105988   5.047040   4.294340   3.740257
     9  C    3.880232   3.804076   5.352487   4.803706   4.222290
    10  C    3.344755   3.831176   4.757177   4.204623   3.665514
    11  C    2.246433   3.059883   3.608405   2.795746   2.393356
    12  C    4.666802   5.280845   5.983210   5.441809   4.796351
    13  C    5.276827   6.161653   6.437584   5.789960   5.123970
    14  S    6.946385   7.781584   8.084017   7.518926   6.812853
    15  C    7.002274   7.542148   8.277060   7.817747   7.095056
    16  C    5.889112   6.280433   7.238530   6.779331   6.083383
    17  C    6.221102   6.280363   7.620248   7.237497   6.561363
    18  C    7.605130   7.567032   8.982309   8.676739   7.992057
    19  C    8.222710   7.938951   9.591224   9.350073   8.702092
    20  C    7.495585   7.003747   8.859477   8.606931   8.010181
    21  C    8.263328   7.556368   9.569599   9.385473   8.847558
    22  S    7.612720   6.655582   8.846261   8.648787   8.206996
    23  C    6.047857   5.225145   7.364214   7.046278   6.566298
    24  C    6.121753   5.615712   7.511335   7.176723   6.600436
    25  C    5.244707   5.063377   6.679154   6.263068   5.643181
    26  C    3.086020   3.775195   2.816772   1.437416   2.487407
    27  N    3.913992   4.169618   3.446653   2.432429   3.410540
    28  C    5.198595   5.511827   4.537571   3.695779   4.581440
    29  C    5.916601   6.501927   5.199493   4.361091   5.156756
    30  C    5.397091   6.262495   4.800806   3.858009   4.556414
    31  N    6.320670   7.347764   5.747457   4.874320   5.422065
    32  S    5.854467   7.090011   5.521151   4.616536   4.960279
    33  N    4.245251   5.473422   4.093755   3.017322   3.406307
    34  C    4.018143   4.998817   3.654533   2.498907   3.212533
    35  H    3.803888   4.337845   4.582143   2.164961   1.064298
    36  H    3.371480   2.620179   4.556301   3.242737   2.758697
    37  H    5.117969   6.185334   6.138955   5.371886   4.746271
    38  H    8.017030   8.488775   9.292987   8.880292   8.143621
    39  H    8.350731   8.447346   9.699553   9.402011   8.695129
    40  H    9.274178   8.972284  10.623428  10.429901   9.781005
    41  H    9.310545   8.593717  10.596124  10.463168   9.925370
    42  H    5.359746   4.387128   6.631933   6.256168   5.846907
    43  H    5.893674   5.972246   5.204407   4.496330   5.358677
    44  H    6.976727   7.532821   6.191827   5.438929   6.202074
                    6          7          8          9         10
     6  C    0.000000
     7  C    1.396432   0.000000
     8  N    2.420565   1.352294   0.000000
     9  C    2.782054   2.320368   1.338558   0.000000
    10  C    2.357583   2.674564   2.357830   1.428538   0.000000
    11  C    1.400035   2.324361   2.728576   2.477390   1.457577
    12  C    3.591142   3.996238   3.555219   2.346844   1.472893
    13  C    4.198954   4.937459   4.758982   3.659378   2.543563
    14  S    5.858139   6.467919   6.102092   4.882724   4.043263
    15  C    5.888930   6.129406   5.438346   4.148858   3.788773
    16  C    4.773620   4.856592   4.080654   2.781178   2.614960
    17  C    5.144358   4.829326   3.757233   2.596336   3.131671
    18  C    6.567776   6.142818   4.983668   3.951496   4.589473
    19  C    7.260449   6.588583   5.321101   4.547960   5.481663
    20  C    6.586197   5.713523   4.403698   3.916820   5.103300
    21  C    7.469476   6.425352   5.130788   4.929456   6.225795
    22  S    6.943421   5.714187   4.530165   4.774753   6.179775
    23  C    5.261510   4.091594   2.846762   3.081663   4.498056
    24  C    5.187410   4.280629   2.960044   2.578576   3.885669
    25  C    4.198109   3.611282   2.404856   1.459836   2.555362
    26  C    3.700198   4.549222   5.713883   6.235623   5.564568
    27  N    4.608818   5.165685   6.355761   7.086858   6.618128
    28  C    5.878558   6.494235   7.712180   8.429674   7.899421
    29  C    6.524551   7.351936   8.584393   9.157298   8.446184
    30  C    5.892332   6.921983   8.117944   8.509462   7.633025
    31  N    6.707032   7.864190   9.027279   9.274258   8.260203
    32  S    6.050601   7.350787   8.403076   8.430596   7.269717
    33  N    4.453582   5.735064   6.774422   6.850303   5.751240
    34  C    4.465436   5.557398   6.703854   7.028367   6.129136
    35  H    2.213017   3.231017   4.490500   4.934645   4.346664
    36  H    2.169101   1.090696   2.049621   3.263780   3.739888
    37  H    4.102196   5.097693   5.192433   4.267771   2.975404
    38  H    6.909187   7.052329   6.261167   4.985868   4.796324
    39  H    7.304263   7.021599   5.931651   4.812124   5.227865
    40  H    8.340182   7.656377   6.383120   5.628493   6.538147
    41  H    8.544316   7.503015   6.211038   5.978810   7.242883
    42  H    4.650305   3.367078   2.285624   2.964487   4.334724
    43  H    6.601811   7.043154   8.243636   9.076172   8.675431
    44  H    7.586227   8.400429   9.644609  10.233673   9.519775
                   11         12         13         14         15
    11  C    0.000000
    12  C    2.665917   0.000000
    13  C    3.237871   1.383626   0.000000
    14  S    4.940403   2.610424   1.730635   0.000000
    15  C    5.053456   2.388298   2.477000   1.706903   0.000000
    16  C    4.003683   1.473150   2.322710   2.559269   1.381486
    17  C    4.580219   2.560623   3.676294   3.915593   2.439458
    18  C    6.038788   3.921340   4.868180   4.672134   2.982269
    19  C    6.879399   5.085762   6.157625   6.068097   4.382871
    20  C    6.375722   5.089321   6.334359   6.610407   5.030338
    21  C    7.390132   6.377497   7.658590   7.982861   6.399594
    22  S    7.085779   6.709608   8.065184   8.717499   7.291607
    23  C    5.378443   5.140598   6.503651   7.332487   6.065131
    24  C    5.050409   4.175007   5.511127   6.136856   4.765829
    25  C    3.854563   2.743093   4.089765   4.843229   3.649352
    26  C    4.120154   6.722193   6.903939   8.612888   9.074821
    27  N    5.223673   7.873994   8.168244   9.889391  10.248492
    28  C    6.475933   9.096613   9.276008  10.975300  11.451293
    29  C    6.991294   9.503686   9.483051  11.123768  11.794219
    30  C    6.187297   8.553324   8.387273   9.975472  10.770625
    31  N    6.862478   9.002913   8.634157  10.107787  11.086929
    32  S    5.977006   7.810440   7.275760   8.651765   9.751367
    33  N    4.396852   6.452229   6.123142   7.657936   8.558405
    34  C    4.683510   7.069083   6.969524   8.599418   9.317072
    35  H    3.178014   5.284268   5.424095   7.035774   7.454923
    36  H    3.251352   5.083153   6.018889   7.555477   7.189024
    37  H    3.175268   2.242557   1.078432   2.403741   3.505172
    38  H    6.107407   3.444447   3.528985   2.422892   1.085174
    39  H    6.680282   4.297726   4.987734   4.405873   2.720528
    40  H    7.947139   6.062653   7.057578   6.780660   5.074671
    41  H    8.441548   7.298500   8.539107   8.716059   7.072743
    42  H    4.943576   5.250873   6.593492   7.640621   6.552989
    43  H    7.289677   9.936354  10.203627  11.916337  12.306473
    44  H    8.064698  10.558004  10.495244  12.114096  12.831406
                   16         17         18         19         20
    16  C    0.000000
    17  C    1.414224   0.000000
    18  C    2.554539   1.461683   0.000000
    19  C    3.838698   2.526805   1.401177   0.000000
    20  C    4.134750   2.721920   2.301683   1.387018   0.000000
    21  C    5.495637   4.086340   3.592587   2.394690   1.372956
    22  S    6.165814   4.857323   4.822259   3.880612   2.554190
    23  C    4.812064   3.668673   4.106117   3.649998   2.314793
    24  C    3.586424   2.336645   2.752169   2.526506   1.446641
    25  C    2.336435   1.453086   2.591863   3.088498   2.556022
    26  C    8.109569   8.640330  10.086930  10.781818  10.038787
    27  N    9.205053   9.599975  11.018397  11.591979  10.728211
    28  C   10.462704  10.918480  12.347313  12.948021  12.094541
    29  C   10.927807  11.536766  12.989797  13.705045  12.950410
    30  C   10.007655  10.745113  12.206690  13.030377  12.392338
    31  N   10.469145  11.341110  12.796400  13.719835  13.188669
    32  S    9.265751  10.261429  11.693532  12.718312  12.325415
    33  N    7.921472   8.814638  10.265469  11.223674  10.761975
    34  C    8.520333   9.246161  10.707738  11.538467  10.924371
    35  H    6.552803   7.110657   8.520150   9.275320   8.637480
    36  H    5.897364   5.747626   6.985419   7.276586   6.263297
    37  H    3.381320   4.697556   5.931952   7.201191   7.302406
    38  H    2.237015   2.839807   2.822964   4.169299   5.081736
    39  H    2.830736   2.216703   1.089564   2.120092   3.292456
    40  H    4.739839   3.517921   2.190260   1.081554   2.198224
    41  H    6.304035   4.892136   4.132926   2.769973   2.213780
    42  H    5.220501   4.279445   4.965717   4.669128   3.370800
    43  H   11.260325  11.619320  13.022751  13.535450  12.603674
    44  H   11.987453  12.610660  14.064339  14.780905  14.019512
                   21         22         23         24         25
    21  C    0.000000
    22  S    1.709980   0.000000
    23  C    2.465661   1.715862   0.000000
    24  C    2.357711   2.587217   1.378581   0.000000
    25  C    3.721493   3.978347   2.495315   1.435152   0.000000
    26  C   10.796355  10.002306   8.433096   8.606837   7.695241
    27  N   11.351303  10.379108   8.918374   9.283090   8.528606
    28  C   12.716419  11.722666  10.277854  10.648730   9.877167
    29  C   13.670864  12.784278  11.268468  11.512227  10.616614
    30  C   13.226459  12.496918  10.899029  10.979302   9.957254
    31  N   14.106477  13.489414  11.848544  11.807947  10.690629
    32  S   13.349029  12.915730  11.225718  11.005785   9.779851
    33  N   11.748543  11.275980   9.592910   9.417743   8.232707
    34  C   11.790729  11.129305   9.502144   9.521867   8.471354
    35  H    9.499210   8.897541   7.271167   7.263131   6.287381
    36  H    6.782477   5.818942   4.353667   4.846640   4.435769
    37  H    8.599910   8.882322   7.259508   6.378446   4.946436
    38  H    6.407477   7.515651   6.484620   5.124004   4.233155
    39  H    4.491724   5.843028   5.194762   3.841188   3.556168
    40  H    2.724903   4.397295   4.510492   3.524190   4.169420
    41  H    1.080302   2.437166   3.516984   3.404493   4.716984
    42  H    3.504964   2.410958   1.079354   2.227680   2.909715
    43  H   13.128258  12.022128  10.668614  11.161141  10.499499
    44  H   14.725986  13.810680  12.313352  12.579628  11.692562
                   26         27         28         29         30
    26  C    0.000000
    27  N    1.375306   0.000000
    28  C    2.396629   1.374819   0.000000
    29  C    2.940985   2.484440   1.393156   0.000000
    30  C    2.532926   2.794014   2.337261   1.407673   0.000000
    31  N    3.690946   4.127158   3.619458   2.442373   1.341975
    32  S    3.827539   4.735606   4.678166   3.795434   2.412335
    33  N    2.491333   3.676262   4.075239   3.686092   2.376928
    34  C    1.425621   2.389080   2.739462   2.541932   1.506996
    35  H    2.824062   3.676453   4.633100   5.038189   4.395261
    36  H    4.475593   4.801916   6.107524   7.111237   6.889290
    37  H    6.332631   7.650278   8.662960   8.741886   7.574744
    38  H   10.151075  11.312224  12.525097  12.878265  11.854014
    39  H   10.784617  11.787908  13.093123  13.655738  12.793820
    40  H   11.861095  12.666583  14.024557  14.785731  14.106735
    41  H   11.872781  12.418486  13.783156  14.746652  14.304696
    42  H    7.601109   7.988175   9.336352  10.378848  10.095118
    43  H    3.333714   2.069786   1.091632   2.143231   3.342607
    44  H    4.020795   3.460772   2.186591   1.080578   2.193490
                   31         32         33         34         35
    31  N    0.000000
    32  S    1.659900   0.000000
    33  N    2.557505   1.658483   0.000000
    34  C    2.381989   2.418612   1.347283   0.000000
    35  H    5.139250   4.686868   3.332888   3.222478   0.000000
    36  H    7.952114   7.661917   6.066516   5.649175   3.439294
    37  H    7.716895   6.298874   5.256449   6.215768   4.937221
    38  H   12.156878  10.801622   9.633890  10.402037   8.492070
    39  H   13.292988  12.094933  10.746209  11.298884   9.168925
    40  H   14.784892  13.760752  12.280134  12.613077  10.342274
    41  H   15.180612  14.406831  12.811789  12.866819  10.567149
    42  H   11.106633  10.600132   8.954178   8.744243   6.581266
    43  H    4.552566   5.727672   5.165375   3.827103   5.427303
    44  H    2.779928   4.357984   4.568895   3.542120   6.016802
                   36         37         38         39         40
    36  H    0.000000
    37  H    6.131563   0.000000
    38  H    8.086726   4.522353   0.000000
    39  H    7.918372   6.062199   2.181938   0.000000
    40  H    8.318708   8.119358   4.655931   2.476058   0.000000
    41  H    7.842822   9.514901   6.936320   4.867598   2.664506
    42  H    3.443070   7.220358   7.108800   6.050455   5.568873
    43  H    6.509116   9.639821  13.370017  13.817830  14.603631
    44  H    8.121675   9.720889  13.915613  14.724406  15.861839
                   41         42         43         44
    41  H    0.000000
    42  H    4.526856   0.000000
    43  H   14.180337   9.677835   0.000000
    44  H   15.800845  11.408391   2.518491   0.000000
 Stoichiometry    C24H12N4S3Si
 Framework group  C1[X(C24H12N4S3Si)]
 Deg. of freedom   126
 Full point group                 C1      NOp   1
 Largest Abelian subgroup         C1      NOp   1
 Largest concise Abelian subgroup C1      NOp   1
                         Standard orientation:                         
 ---------------------------------------------------------------------
 Center     Atomic      Atomic             Coordinates (Angstroms)
 Number     Number       Type             X           Y           Z
 ---------------------------------------------------------------------
      1         14           0        1.537236   -1.120331    1.590681
      2          1           0        0.900185   -2.467159    1.395253
      3          1           0        2.704562   -1.420157    2.478429
      4          6           0        2.823058   -1.136980    0.027716
      5          6           0        2.155798   -0.684734   -1.076934
      6          6           0        0.747567   -0.521189   -0.796284
      7          6           0       -0.172982   -1.566737   -0.893445
      8          7           0       -1.433801   -1.496508   -0.409604
      9          6           0       -1.909694   -0.314818    0.001337
     10          6           0       -0.948990    0.701667    0.292071
     11          6           0        0.463715    0.343630    0.267490
     12          6           0       -1.615841    2.008205    0.159108
     13          6           0       -0.983646    3.225362   -0.023321
     14         16           0       -2.077665    4.563861   -0.104819
     15          6           0       -3.440275    3.541391    0.001790
     16          6           0       -3.071612    2.211316    0.060883
     17          6           0       -4.034878    1.175954    0.047721
     18          6           0       -5.483593    1.369879    0.059398
     19          6           0       -6.412586    0.320946    0.062283
     20          6           0       -5.780793   -0.911238   -0.017587
     21          6           0       -6.515812   -2.070728    0.000789
     22         16           0       -5.509790   -3.449584   -0.102690
     23          6           0       -4.090365   -2.486821   -0.152702
     24          6           0       -4.352897   -1.135574   -0.077238
     25          6           0       -3.354636   -0.106948   -0.006062
     26          6           0        4.250369   -1.274248    0.128239
     27          7           0        4.826766   -2.515634   -0.006646
     28          6           0        6.186051   -2.658721   -0.154962
     29          6           0        7.146948   -1.651678   -0.213471
     30          6           0        6.598781   -0.358445   -0.120719
     31          7           0        7.297206    0.785856   -0.181343
     32         16           0        6.191195    2.018693   -0.071240
     33          7           0        4.779715    1.159516    0.070555
     34          6           0        5.116467   -0.144791    0.047017
     35          1           0        2.612830   -0.336363   -1.972752
     36          1           0        0.154758   -2.583386   -1.113963
     37          1           0        0.061631    3.468085   -0.130550
     38          1           0       -4.429344    3.987499   -0.016416
     39          1           0       -5.897253    2.377158    0.097144
     40          1           0       -7.481144    0.474228    0.128975
     41          1           0       -7.587111   -2.187648    0.076292
     42          1           0       -3.143795   -3.001141   -0.219673
     43          1           0        6.508919   -3.697466   -0.246747
     44          1           0        8.204495   -1.837351   -0.335003
 ---------------------------------------------------------------------
 Rotational constants (GHZ):      0.2162263      0.0536958      0.0439353
 Standard basis: 6-31++G(d,p) (6D, 7F)
 There are   696 symmetry adapted basis functions of A   symmetry.
 Integral buffers will be    131072 words long.
 Raffenetti 2 integral format.
 Two-electron integral symmetry is turned on.
   696 basis functions,  1216 primitive gaussians,   696 cartesian basis functions
   123 alpha electrons      123 beta electrons
       nuclear repulsion energy      3424.1252775518 Hartrees.
 NAtoms=   44 NActive=   44 NUniq=   44 SFac= 1.00D+00 NAtFMM=   60 NAOKFM=F Big=F
 One-electron integrals computed using PRISM.
 NBasis=   696 RedAO= T  NBF=   696
 NBsUse=   685 1.00D-06 NBFU=   685
 Harris functional with IExCor=  402 diagonalized for initial guess.
 ExpMin= 3.31D-02 ExpMax= 2.19D+04 ExpMxC= 3.30D+03 IAcc=3 IRadAn=         5 AccDes= 0.00D+00
 HarFok:  IExCor=  402 AccDes= 0.00D+00 IRadAn=         5 IDoV= 1
 ScaDFX=  1.000000  1.000000  1.000000  1.000000
 FoFCou: FMM=F IPFlag=           0 FMFlag=      100000 FMFlg1=           0
         NFxFlg=           0 DoJE=T BraDBF=F KetDBF=T FulRan=T
         Omega=  0.000000  0.000000  1.000000  0.000000  0.000000 ICntrl=     500 IOpCl=  0
         NMat0=    1 NMatS0=    1 NMatT0=    0 NMatD0=    1 NMtDS0=    0 NMtDT0=    0
         I1Cent=           4 NGrid=           0.
 Petite list used in FoFCou.
 Initial guess orbital symmetries:
       Occupied  (A) (A) (A) (A) (A) (A) (A) (A) (A) (A) (A) (A)
                 (A) (A) (A) (A) (A) (A) (A) (A) (A) (A) (A) (A)
                 (A) (A) (A) (A) (A) (A) (A) (A) (A) (A) (A) (A)
                 (A) (A) (A) (A) (A) (A) (A) (A) (A) (A) (A) (A)
                 (A) (A) (A) (A) (A) (A) (A) (A) (A) (A) (A) (A)
                 (A) (A) (A) (A) (A) (A) (A) (A) (A) (A) (A) (A)
                 (A) (A) (A) (A) (A) (A) (A) (A) (A) (A) (A) (A)
                 (A) (A) (A) (A) (A) (A) (A) (A) (A) (A) (A) (A)
                 (A) (A) (A) (A) (A) (A) (A) (A) (A) (A) (A) (A)
                 (A) (A) (A) (A) (A) (A) (A) (A) (A) (A) (A) (A)
                 (A) (A) (A)
       Virtual   (A) (A) (A) (A) (A) (A) (A) (A) (A) (A) (A) (A)
                 (A) (A) (A) (A) (A) (A) (A) (A) (A) (A) (A) (A)
                 (A) (A) (A) (A) (A) (A) (A) (A) (A) (A) (A) (A)
                 (A) (A) (A) (A) (A) (A) (A) (A) (A) (A) (A) (A)
                 (A) (A) (A) (A) (A) (A) (A) (A) (A) (A) (A) (A)
                 (A) (A) (A) (A) (A) (A) (A) (A) (A) (A) (A) (A)
                 (A) (A) (A) (A) (A) (A) (A) (A) (A) (A) (A) (A)
                 (A) (A) (A) (A) (A) (A) (A) (A) (A) (A) (A) (A)
                 (A) (A) (A) (A) (A) (A) (A) (A) (A) (A) (A) (A)
                 (A) (A) (A) (A) (A) (A) (A) (A) (A) (A) (A) (A)
                 (A) (A) (A) (A) (A) (A) (A) (A) (A) (A) (A) (A)
                 (A) (A) (A) (A) (A) (A) (A) (A) (A) (A) (A) (A)
                 (A) (A) (A) (A) (A) (A) (A) (A) (A) (A) (A) (A)
                 (A) (A) (A) (A) (A) (A) (A) (A) (A) (A) (A) (A)
                 (A) (A) (A) (A) (A) (A) (A) (A) (A) (A) (A) (A)
                 (A) (A) (A) (A) (A) (A) (A) (A) (A) (A) (A) (A)
                 (A) (A) (A) (A) (A) (A) (A) (A) (A) (A) (A) (A)
                 (A) (A) (A) (A) (A) (A) (A) (A) (A) (A) (A) (A)
                 (A) (A) (A) (A) (A) (A) (A) (A) (A) (A) (A) (A)
                 (A) (A) (A) (A) (A) (A) (A) (A) (A) (A) (A) (A)
                 (A) (A) (A) (A) (A) (A) (A) (A) (A) (A) (A) (A)
                 (A) (A) (A) (A) (A) (A) (A) (A) (A) (A) (A) (A)
                 (A) (A) (A) (A) (A) (A) (A) (A) (A) (A) (A) (A)
                 (A) (A) (A) (A) (A) (A) (A) (A) (A) (A) (A) (A)
                 (A) (A) (A) (A) (A) (A) (A) (A) (A) (A) (A) (A)
                 (A) (A) (A) (A) (A) (A) (A) (A) (A) (A) (A) (A)
                 (A) (A) (A) (A) (A) (A) (A) (A) (A) (A) (A) (A)
                 (A) (A) (A) (A) (A) (A) (A) (A) (A) (A) (A) (A)
                 (A) (A) (A) (A) (A) (A) (A) (A) (A) (A) (A) (A)
                 (A) (A) (A) (A) (A) (A) (A) (A) (A) (A) (A) (A)
                 (A) (A) (A) (A) (A) (A) (A) (A) (A) (A) (A) (A)
                 (A) (A) (A) (A) (A) (A) (A) (A) (A) (A) (A) (A)
                 (A) (A) (A) (A) (A) (A) (A) (A) (A) (A) (A) (A)
                 (A) (A) (A) (A) (A) (A) (A) (A) (A) (A) (A) (A)
                 (A) (A) (A) (A) (A) (A) (A) (A) (A) (A) (A) (A)
                 (A) (A) (A) (A) (A) (A) (A) (A) (A) (A) (A) (A)
                 (A) (A) (A) (A) (A) (A) (A) (A) (A) (A) (A) (A)
                 (A) (A) (A) (A) (A) (A) (A) (A) (A) (A) (A) (A)
                 (A) (A) (A) (A) (A) (A) (A) (A) (A) (A) (A) (A)
                 (A) (A) (A) (A) (A) (A) (A) (A) (A) (A) (A) (A)
                 (A) (A) (A) (A) (A) (A) (A) (A) (A) (A) (A) (A)
                 (A) (A) (A) (A) (A) (A) (A) (A) (A) (A) (A) (A)
                 (A) (A) (A) (A) (A) (A) (A) (A) (A) (A) (A) (A)
                 (A) (A) (A) (A) (A) (A) (A) (A) (A) (A) (A) (A)
                 (A) (A) (A) (A) (A) (A) (A) (A) (A) (A) (A) (A)
                 (A) (A) (A) (A) (A) (A) (A) (A) (A) (A) (A) (A)
                 (A) (A) (A) (A) (A) (A) (A) (A) (A) (A)
 The electronic state of the initial guess is 1-A.
 Requested convergence on RMS density matrix=1.00D-08 within 128 cycles.
 Requested convergence on MAX density matrix=1.00D-06.
 Requested convergence on             energy=1.00D-06.
 No special actions if energy rises.
 EnCoef did     2 forward-backward iterations
 EnCoef did     2 forward-backward iterations
 EnCoef did     6 forward-backward iterations
 Restarting incremental Fock formation.
 SCF Done:  E(RB3LYP) =  -2624.61049054     A.U. after   29 cycles
             Convg  =    0.9812D-08             -V/T =  2.0062

 **********************************************************************

            Population analysis using the SCF density.

 **********************************************************************

 Orbital symmetries:
       Occupied  (A) (A) (A) (A) (A) (A) (A) (A) (A) (A) (A) (A)
                 (A) (A) (A) (A) (A) (A) (A) (A) (A) (A) (A) (A)
                 (A) (A) (A) (A) (A) (A) (A) (A) (A) (A) (A) (A)
                 (A) (A) (A) (A) (A) (A) (A) (A) (A) (A) (A) (A)
                 (A) (A) (A) (A) (A) (A) (A) (A) (A) (A) (A) (A)
                 (A) (A) (A) (A) (A) (A) (A) (A) (A) (A) (A) (A)
                 (A) (A) (A) (A) (A) (A) (A) (A) (A) (A) (A) (A)
                 (A) (A) (A) (A) (A) (A) (A) (A) (A) (A) (A) (A)
                 (A) (A) (A) (A) (A) (A) (A) (A) (A) (A) (A) (A)
                 (A) (A) (A) (A) (A) (A) (A) (A) (A) (A) (A) (A)
                 (A) (A) (A)
       Virtual   (A) (A) (A) (A) (A) (A) (A) (A) (A) (A) (A) (A)
                 (A) (A) (A) (A) (A) (A) (A) (A) (A) (A) (A) (A)
                 (A) (A) (A) (A) (A) (A) (A) (A) (A) (A) (A) (A)
                 (A) (A) (A) (A) (A) (A) (A) (A) (A) (A) (A) (A)
                 (A) (A) (A) (A) (A) (A) (A) (A) (A) (A) (A) (A)
                 (A) (A) (A) (A) (A) (A) (A) (A) (A) (A) (A) (A)
                 (A) (A) (A) (A) (A) (A) (A) (A) (A) (A) (A) (A)
                 (A) (A) (A) (A) (A) (A) (A) (A) (A) (A) (A) (A)
                 (A) (A) (A) (A) (A) (A) (A) (A) (A) (A) (A) (A)
                 (A) (A) (A) (A) (A) (A) (A) (A) (A) (A) (A) (A)
                 (A) (A) (A) (A) (A) (A) (A) (A) (A) (A) (A) (A)
                 (A) (A) (A) (A) (A) (A) (A) (A) (A) (A) (A) (A)
                 (A) (A) (A) (A) (A) (A) (A) (A) (A) (A) (A) (A)
                 (A) (A) (A) (A) (A) (A) (A) (A) (A) (A) (A) (A)
                 (A) (A) (A) (A) (A) (A) (A) (A) (A) (A) (A) (A)
                 (A) (A) (A) (A) (A) (A) (A) (A) (A) (A) (A) (A)
                 (A) (A) (A) (A) (A) (A) (A) (A) (A) (A) (A) (A)
                 (A) (A) (A) (A) (A) (A) (A) (A) (A) (A) (A) (A)
                 (A) (A) (A) (A) (A) (A) (A) (A) (A) (A) (A) (A)
                 (A) (A) (A) (A) (A) (A) (A) (A) (A) (A) (A) (A)
                 (A) (A) (A) (A) (A) (A) (A) (A) (A) (A) (A) (A)
                 (A) (A) (A) (A) (A) (A) (A) (A) (A) (A) (A) (A)
                 (A) (A) (A) (A) (A) (A) (A) (A) (A) (A) (A) (A)
                 (A) (A) (A) (A) (A) (A) (A) (A) (A) (A) (A) (A)
                 (A) (A) (A) (A) (A) (A) (A) (A) (A) (A) (A) (A)
                 (A) (A) (A) (A) (A) (A) (A) (A) (A) (A) (A) (A)
                 (A) (A) (A) (A) (A) (A) (A) (A) (A) (A) (A) (A)
                 (A) (A) (A) (A) (A) (A) (A) (A) (A) (A) (A) (A)
                 (A) (A) (A) (A) (A) (A) (A) (A) (A) (A) (A) (A)
                 (A) (A) (A) (A) (A) (A) (A) (A) (A) (A) (A) (A)
                 (A) (A) (A) (A) (A) (A) (A) (A) (A) (A) (A) (A)
                 (A) (A) (A) (A) (A) (A) (A) (A) (A) (A) (A) (A)
                 (A) (A) (A) (A) (A) (A) (A) (A) (A) (A) (A) (A)
                 (A) (A) (A) (A) (A) (A) (A) (A) (A) (A) (A) (A)
                 (A) (A) (A) (A) (A) (A) (A) (A) (A) (A) (A) (A)
                 (A) (A) (A) (A) (A) (A) (A) (A) (A) (A) (A) (A)
                 (A) (A) (A) (A) (A) (A) (A) (A) (A) (A) (A) (A)
                 (A) (A) (A) (A) (A) (A) (A) (A) (A) (A) (A) (A)
                 (A) (A) (A) (A) (A) (A) (A) (A) (A) (A) (A) (A)
                 (A) (A) (A) (A) (A) (A) (A) (A) (A) (A) (A) (A)
                 (A) (A) (A) (A) (A) (A) (A) (A) (A) (A) (A) (A)
                 (A) (A) (A) (A) (A) (A) (A) (A) (A) (A) (A) (A)
                 (A) (A) (A) (A) (A) (A) (A) (A) (A) (A) (A) (A)
                 (A) (A) (A) (A) (A) (A) (A) (A) (A) (A) (A) (A)
                 (A) (A) (A) (A) (A) (A) (A) (A) (A) (A) (A) (A)
                 (A) (A) (A) (A) (A) (A) (A) (A) (A) (A) (A) (A)
                 (A) (A) (A) (A) (A) (A) (A) (A) (A) (A)
 The electronic state is 1-A.
 Alpha  occ. eigenvalues --  -88.99482 -88.92407 -88.91751 -66.19654 -14.39829
 Alpha  occ. eigenvalues --  -14.39102 -14.36002 -14.34433 -10.26836 -10.26798
 Alpha  occ. eigenvalues --  -10.26765 -10.25416 -10.25323 -10.24766 -10.24721
 Alpha  occ. eigenvalues --  -10.23930 -10.23160 -10.22712 -10.22323 -10.22308
 Alpha  occ. eigenvalues --  -10.22008 -10.21961 -10.21893 -10.21713 -10.21296
 Alpha  occ. eigenvalues --  -10.21276 -10.21007 -10.20932 -10.20724 -10.20537
 Alpha  occ. eigenvalues --  -10.20438 -10.20316  -8.04758  -7.98351  -7.97711
 Alpha  occ. eigenvalues --   -6.01315  -6.00732  -6.00520  -5.94738  -5.94368
 Alpha  occ. eigenvalues --   -5.94133  -5.94078  -5.93713  -5.93528  -5.33641
 Alpha  occ. eigenvalues --   -3.69651  -3.69487  -3.69398  -1.02989  -0.96764
 Alpha  occ. eigenvalues --   -0.94770  -0.91131  -0.90599  -0.89636  -0.86763
 Alpha  occ. eigenvalues --   -0.84202  -0.81710  -0.81051  -0.80415  -0.78667
 Alpha  occ. eigenvalues --   -0.76757  -0.74711  -0.73228  -0.71794  -0.70090
 Alpha  occ. eigenvalues --   -0.68843  -0.65721  -0.64965  -0.64003  -0.62855
 Alpha  occ. eigenvalues --   -0.60537  -0.60245  -0.58770  -0.57527  -0.56632
 Alpha  occ. eigenvalues --   -0.55159  -0.53643  -0.53063  -0.52523  -0.51328
 Alpha  occ. eigenvalues --   -0.50911  -0.49870  -0.49391  -0.48309  -0.48085
 Alpha  occ. eigenvalues --   -0.46894  -0.45926  -0.45675  -0.44622  -0.44389
 Alpha  occ. eigenvalues --   -0.42851  -0.42527  -0.41824  -0.40571  -0.40162
 Alpha  occ. eigenvalues --   -0.39991  -0.39845  -0.39631  -0.39193  -0.39027
 Alpha  occ. eigenvalues --   -0.37669  -0.36989  -0.36313  -0.36143  -0.35593
 Alpha  occ. eigenvalues --   -0.34662  -0.34582  -0.33908  -0.33631  -0.32536
 Alpha  occ. eigenvalues --   -0.31536  -0.31051  -0.29378  -0.28859  -0.28677
 Alpha  occ. eigenvalues --   -0.28033  -0.27731  -0.26963  -0.25477  -0.24507
 Alpha  occ. eigenvalues --   -0.22672  -0.21169  -0.19434
 Alpha virt. eigenvalues --   -0.14743  -0.11535  -0.07965  -0.06974  -0.04372
 Alpha virt. eigenvalues --   -0.03745  -0.02905  -0.02560  -0.02104  -0.01813
 Alpha virt. eigenvalues --   -0.00747  -0.00640   0.00128   0.00316   0.00335
 Alpha virt. eigenvalues --    0.00548   0.01041   0.01204   0.01515   0.01875
 Alpha virt. eigenvalues --    0.02031   0.02137   0.02490   0.02860   0.03320
 Alpha virt. eigenvalues --    0.03609   0.03903   0.04195   0.04596   0.04955
 Alpha virt. eigenvalues --    0.05111   0.05518   0.05613   0.05782   0.06056
 Alpha virt. eigenvalues --    0.06137   0.06435   0.06660   0.07186   0.07358
 Alpha virt. eigenvalues --    0.07648   0.07812   0.08199   0.08316   0.08666
 Alpha virt. eigenvalues --    0.08850   0.09442   0.09765   0.09956   0.10149
 Alpha virt. eigenvalues --    0.10273   0.10521   0.10710   0.10776   0.10875
 Alpha virt. eigenvalues --    0.11298   0.11399   0.11653   0.11683   0.12006
 Alpha virt. eigenvalues --    0.12132   0.12229   0.12367   0.12615   0.12796
 Alpha virt. eigenvalues --    0.13141   0.13243   0.13401   0.13620   0.13674
 Alpha virt. eigenvalues --    0.14149   0.14307   0.14469   0.14559   0.14827
 Alpha virt. eigenvalues --    0.15007   0.15151   0.15618   0.15784   0.15926
 Alpha virt. eigenvalues --    0.16127   0.16390   0.16479   0.16876   0.17463
 Alpha virt. eigenvalues --    0.17651   0.17705   0.18213   0.18267   0.18598
 Alpha virt. eigenvalues --    0.18767   0.18915   0.19037   0.19216   0.19680
 Alpha virt. eigenvalues --    0.19957   0.20091   0.20164   0.20529   0.20606
 Alpha virt. eigenvalues --    0.21130   0.21531   0.21710   0.21840   0.21958
 Alpha virt. eigenvalues --    0.22150   0.22342   0.22774   0.22920   0.23053
 Alpha virt. eigenvalues --    0.23184   0.23271   0.23451   0.23893   0.24240
 Alpha virt. eigenvalues --    0.24473   0.24694   0.24866   0.25299   0.25360
 Alpha virt. eigenvalues --    0.25510   0.25636   0.25861   0.26188   0.26285
 Alpha virt. eigenvalues --    0.26586   0.26738   0.26939   0.27245   0.27402
 Alpha virt. eigenvalues --    0.27788   0.28137   0.28324   0.28427   0.28842
 Alpha virt. eigenvalues --    0.29069   0.29240   0.29734   0.29967   0.30410
 Alpha virt. eigenvalues --    0.30424   0.30678   0.30936   0.31054   0.31350
 Alpha virt. eigenvalues --    0.31468   0.31834   0.31939   0.32255   0.32725
 Alpha virt. eigenvalues --    0.33193   0.33280   0.33565   0.33911   0.34517
 Alpha virt. eigenvalues --    0.34715   0.34779   0.35126   0.35345   0.35699
 Alpha virt. eigenvalues --    0.36024   0.36627   0.36830   0.37089   0.37323
 Alpha virt. eigenvalues --    0.37908   0.38268   0.38616   0.39403   0.39556
 Alpha virt. eigenvalues --    0.39807   0.39846   0.40607   0.40776   0.40958
 Alpha virt. eigenvalues --    0.41848   0.41898   0.42247   0.43387   0.43607
 Alpha virt. eigenvalues --    0.43864   0.44667   0.45475   0.46288   0.46718
 Alpha virt. eigenvalues --    0.47589   0.47667   0.49449   0.50049   0.50338
 Alpha virt. eigenvalues --    0.50869   0.51174   0.51501   0.52068   0.52457
 Alpha virt. eigenvalues --    0.52753   0.53387   0.54844   0.55753   0.56203
 Alpha virt. eigenvalues --    0.57413   0.57925   0.60081   0.60175   0.62259
 Alpha virt. eigenvalues --    0.62342   0.63082   0.64252   0.64602   0.64825
 Alpha virt. eigenvalues --    0.65344   0.65672   0.65721   0.66246   0.66708
 Alpha virt. eigenvalues --    0.66896   0.67177   0.67497   0.67634   0.68702
 Alpha virt. eigenvalues --    0.69237   0.69706   0.69930   0.70294   0.70597
 Alpha virt. eigenvalues --    0.71545   0.71810   0.72457   0.72647   0.73850
 Alpha virt. eigenvalues --    0.74502   0.75023   0.75238   0.75520   0.75963
 Alpha virt. eigenvalues --    0.76565   0.77133   0.77828   0.78284   0.78752
 Alpha virt. eigenvalues --    0.79077   0.79359   0.80039   0.81128   0.81358
 Alpha virt. eigenvalues --    0.81505   0.82265   0.82851   0.83324   0.83774
 Alpha virt. eigenvalues --    0.83849   0.83948   0.84482   0.85152   0.86016
 Alpha virt. eigenvalues --    0.86386   0.86936   0.87191   0.87436   0.89017
 Alpha virt. eigenvalues --    0.89855   0.90242   0.90505   0.91562   0.91915
 Alpha virt. eigenvalues --    0.92318   0.93304   0.93703   0.94307   0.94688
 Alpha virt. eigenvalues --    0.95779   0.96067   0.96101   0.96753   0.97286
 Alpha virt. eigenvalues --    0.97561   0.98581   0.99676   1.00124   1.00237
 Alpha virt. eigenvalues --    1.00530   1.01205   1.01867   1.02098   1.03007
 Alpha virt. eigenvalues --    1.03570   1.04329   1.04898   1.05497   1.05692
 Alpha virt. eigenvalues --    1.06449   1.07272   1.07646   1.08157   1.08479
 Alpha virt. eigenvalues --    1.09172   1.10238   1.11124   1.12307   1.12939
 Alpha virt. eigenvalues --    1.13291   1.14000   1.14522   1.15370   1.15748
 Alpha virt. eigenvalues --    1.16162   1.16693   1.17536   1.17604   1.18216
 Alpha virt. eigenvalues --    1.19135   1.19219   1.20168   1.21005   1.21511
 Alpha virt. eigenvalues --    1.21829   1.22307   1.22887   1.23466   1.23606
 Alpha virt. eigenvalues --    1.24696   1.24978   1.26183   1.26981   1.27448
 Alpha virt. eigenvalues --    1.27776   1.28341   1.28571   1.29560   1.30186
 Alpha virt. eigenvalues --    1.30501   1.31169   1.31647   1.32095   1.32442
 Alpha virt. eigenvalues --    1.32728   1.33779   1.35547   1.35977   1.36501
 Alpha virt. eigenvalues --    1.36736   1.37423   1.38166   1.38451   1.39445
 Alpha virt. eigenvalues --    1.39830   1.41538   1.43136   1.44464   1.45980
 Alpha virt. eigenvalues --    1.46502   1.47474   1.47833   1.49133   1.50490
 Alpha virt. eigenvalues --    1.51546   1.51877   1.53213   1.54328   1.55608
 Alpha virt. eigenvalues --    1.56792   1.58065   1.60286   1.60824   1.62541
 Alpha virt. eigenvalues --    1.63043   1.66264   1.67022   1.67299   1.68951
 Alpha virt. eigenvalues --    1.70107   1.71125   1.71854   1.72312   1.74100
 Alpha virt. eigenvalues --    1.74383   1.74865   1.75728   1.75770   1.76425
 Alpha virt. eigenvalues --    1.77522   1.77796   1.79338   1.80280   1.81145
 Alpha virt. eigenvalues --    1.81639   1.82977   1.83690   1.84122   1.84348
 Alpha virt. eigenvalues --    1.85461   1.85729   1.86323   1.87686   1.89860
 Alpha virt. eigenvalues --    1.90896   1.91447   1.92003   1.92794   1.93731
 Alpha virt. eigenvalues --    1.94606   1.95176   1.96316   1.96851   1.97810
 Alpha virt. eigenvalues --    1.98520   1.99149   2.00699   2.01943   2.02670
 Alpha virt. eigenvalues --    2.04208   2.05810   2.06500   2.08570   2.10208
 Alpha virt. eigenvalues --    2.10648   2.11351   2.11797   2.13322   2.14281
 Alpha virt. eigenvalues --    2.14972   2.15352   2.17317   2.17808   2.18508
 Alpha virt. eigenvalues --    2.19289   2.19813   2.20612   2.22121   2.22843
 Alpha virt. eigenvalues --    2.23805   2.24929   2.25064   2.25640   2.26546
 Alpha virt. eigenvalues --    2.27408   2.27549   2.29150   2.29974   2.30373
 Alpha virt. eigenvalues --    2.31778   2.33103   2.33950   2.34278   2.35285
 Alpha virt. eigenvalues --    2.35422   2.35799   2.36965   2.38150   2.38588
 Alpha virt. eigenvalues --    2.39276   2.41048   2.42124   2.42235   2.43013
 Alpha virt. eigenvalues --    2.43300   2.44289   2.45679   2.46139   2.47625
 Alpha virt. eigenvalues --    2.47739   2.48497   2.50208   2.50931   2.51380
 Alpha virt. eigenvalues --    2.52982   2.53598   2.54049   2.54592   2.55502
 Alpha virt. eigenvalues --    2.57009   2.57396   2.57964   2.58657   2.59872
 Alpha virt. eigenvalues --    2.61040   2.61454   2.61892   2.62525   2.63563
 Alpha virt. eigenvalues --    2.63782   2.64708   2.65707   2.65809   2.67077
 Alpha virt. eigenvalues --    2.68038   2.68780   2.69269   2.69821   2.71454
 Alpha virt. eigenvalues --    2.73342   2.74085   2.77021   2.77177   2.78024
 Alpha virt. eigenvalues --    2.79584   2.81497   2.83317   2.84545   2.86111
 Alpha virt. eigenvalues --    2.87583   2.87951   2.90049   2.91137   2.95697
 Alpha virt. eigenvalues --    2.96615   2.97655   2.98730   2.99891   3.02519
 Alpha virt. eigenvalues --    3.03966   3.07479   3.08216   3.11815   3.12702
 Alpha virt. eigenvalues --    3.15247   3.19865   3.23132   3.28578   3.29471
 Alpha virt. eigenvalues --    3.32287   3.36377   3.39804   3.45868   3.46748
 Alpha virt. eigenvalues --    3.52552   3.55298   3.55491   3.60625   3.69167
 Alpha virt. eigenvalues --    3.73515   3.94963   3.99359   4.00142   4.10165
 Alpha virt. eigenvalues --    4.20804   4.28846   4.30843   4.31450   4.31732
 Alpha virt. eigenvalues --    4.33152   4.33407   4.34921   4.38020   4.39597
 Alpha virt. eigenvalues --    4.40390   4.41751   4.45201   4.48218   4.48370
 Alpha virt. eigenvalues --    4.49470   4.52615   4.54916   4.55314   4.55824
 Alpha virt. eigenvalues --    4.61839   4.62226   4.64382   4.72847   4.76748
 Alpha virt. eigenvalues --    4.77772   4.92640
          Condensed to atoms (all electrons):
              1          2          3          4          5          6
     1  Si  15.213178  -0.013924   0.335511   0.101385  -1.556918   0.566735
     2  H   -0.013924   0.837678  -0.038364   0.117704   0.053329   0.078137
     3  H    0.335511  -0.038364   0.775037  -0.256600   0.213843  -0.127805
     4  C    0.101385   0.117704  -0.256600  15.356756  -4.583061   4.100862
     5  C   -1.556918   0.053329   0.213843  -4.583061  32.827896 -21.631414
     6  C    0.566735   0.078137  -0.127805   4.100862 -21.631414  32.644715
     7  C   -0.796001  -0.068347  -0.003431   0.209083  -2.285907  -1.014899
     8  N    0.119991  -0.011550   0.008745   0.027691   0.068846  -0.421057
     9  C    0.085683   0.114431  -0.106197  -0.131483  -3.533952   2.079252
    10  C    0.304793   0.001696   0.010703   0.070975  -0.984134  -0.304061
    11  C   -0.200806  -0.067770   0.039066  -1.612395   7.016454  -7.470227
    12  C   -0.099435   0.020337   0.007692  -0.142433  -0.738316   1.636017
    13  C    0.028584   0.011316  -0.004541  -0.013632   0.799207  -1.430682
    14  S    0.007835  -0.001933  -0.000402  -0.007138   0.020125  -0.004388
    15  C   -0.040384   0.004574   0.000455  -0.022105   0.071369   0.073615
    16  C   -0.008087  -0.007432  -0.005261  -0.039494  -0.519703   0.404034
    17  C   -0.016875   0.009941   0.000295   0.025017  -0.174221   0.139267
    18  C   -0.019062   0.002153  -0.000901  -0.005897   0.014965   0.023500
    19  C   -0.000923   0.002397   0.000370   0.004876  -0.004834   0.015217
    20  C   -0.004810  -0.000137   0.000321  -0.000537   0.016749   0.060685
    21  C    0.000878  -0.002945  -0.000182  -0.001166  -0.006136   0.006336
    22  S   -0.002745  -0.000285  -0.000229  -0.001071  -0.004894  -0.003413
    23  C   -0.010122  -0.019162  -0.004103  -0.044998   0.196008  -0.039424
    24  C   -0.021529   0.013278  -0.004870  -0.048261  -0.272159  -0.182818
    25  C    0.021182  -0.028775  -0.025337  -0.171749  -0.327209  -0.260996
    26  C   -0.368510   0.015461  -0.057338   1.920524   3.194244  -2.592587
    27  N    0.124491  -0.017099   0.011854  -0.482977  -0.252308   0.144917
    28  C    0.075473  -0.001503  -0.023197   0.928132  -0.038967   0.047275
    29  C    0.046927  -0.013746   0.033153  -2.268626  -0.051058  -0.189072
    30  C   -0.064604   0.005491  -0.004521   0.656515  -0.304749  -0.218053
    31  N   -0.002868  -0.000165   0.001470   0.009193   0.018348   0.004551
    32  S    0.021038  -0.000530   0.003755  -0.029274  -0.067339   0.069591
    33  N    0.043938  -0.002509  -0.002386   0.017618  -0.042533   0.061972
    34  C   -0.448880   0.007236   0.208083  -7.195114  -1.581830   0.038000
    35  H    0.009967  -0.001230   0.002846  -0.074911   0.358810  -0.012958
    36  H    0.009200  -0.007490   0.002668   0.052955  -0.199451  -0.031305
    37  H   -0.005473   0.001058  -0.000394   0.006061   0.007850  -0.035905
    38  H   -0.000496   0.000074   0.000002  -0.000239   0.001455   0.002851
    39  H   -0.000104  -0.000000  -0.000011  -0.000134  -0.000060  -0.001991
    40  H    0.000045   0.000018   0.000004   0.000026  -0.000057  -0.000251
    41  H   -0.000052  -0.000012  -0.000005  -0.000033  -0.000101  -0.000215
    42  H    0.019080  -0.013241  -0.000852   0.000968   0.024646   0.009749
    43  H   -0.004804   0.000895  -0.000307   0.004732   0.010631  -0.003391
    44  H   -0.000229  -0.000118   0.000252  -0.020355  -0.005592   0.000040
              7          8          9         10         11         12
     1  Si  -0.796001   0.119991   0.085683   0.304793  -0.200806  -0.099435
     2  H   -0.068347  -0.011550   0.114431   0.001696  -0.067770   0.020337
     3  H   -0.003431   0.008745  -0.106197   0.010703   0.039066   0.007692
     4  C    0.209083   0.027691  -0.131483   0.070975  -1.612395  -0.142433
     5  C   -2.285907   0.068846  -3.533952  -0.984134   7.016454  -0.738316
     6  C   -1.014899  -0.421057   2.079252  -0.304061  -7.470227   1.636017
     7  C   13.001158  -0.086898  -0.757953   0.509045  -2.058579  -0.082456
     8  N   -0.086898   7.090184  -0.041028   0.040925   0.352243   0.010540
     9  C   -0.757953  -0.041028  20.689163  -5.147460  -7.951248  -3.259782
    10  C    0.509045   0.040925  -5.147460  18.121986   3.783920   2.293801
    11  C   -2.058579   0.352243  -7.951248   3.783920  19.274730   1.876122
    12  C   -0.082456   0.010540  -3.259782   2.293801   1.876122  16.770971
    13  C   -0.845220   0.141949  -0.801570   0.699321   1.909719  -7.149435
    14  S    0.034263  -0.004322   0.005237   0.179525  -0.007593   0.734268
    15  C   -0.128131  -0.030512   0.211406  -1.521287  -0.681798  -1.296315
    16  C    0.076025  -0.173282   2.671243  -2.458457  -2.792885  -0.577886
    17  C   -0.039321  -0.062684   0.559734  -0.570390  -0.596538   0.456244
    18  C   -0.161012   0.018608  -0.613429  -1.349100  -0.346377  -0.956222
    19  C   -0.018953   0.014846   0.179185   1.001692   0.134381   0.116449
    20  C   -0.016194  -0.091270  -0.077595  -0.249396  -0.086335  -0.263001
    21  C   -0.011691  -0.035726  -0.233752  -0.179068  -0.051501  -0.191368
    22  S    0.040124   0.058239  -0.108726  -0.058860  -0.032770  -0.043874
    23  C   -0.162434   0.107517   0.459741  -0.414074   0.288387   0.066393
    24  C    0.018183   0.017713  -0.694724  -4.285985  -1.397151  -1.451707
    25  C   -0.179858  -0.119441   3.874791  -3.685955  -2.418220  -1.810100
    26  C    0.272167  -0.007761  -0.519044  -0.212989   0.265813   0.058556
    27  N   -0.013009   0.002820   0.010289   0.014761  -0.015405  -0.002992
    28  C    0.027252  -0.000734   0.013479   0.008139   0.102153   0.003812
    29  C   -0.019799   0.000717  -0.012634  -0.009181  -0.120002  -0.005900
    30  C   -0.054464  -0.000725   0.003677  -0.007417   0.170375   0.024854
    31  N   -0.000273   0.000004  -0.000176  -0.000054  -0.004240  -0.000337
    32  S   -0.002127   0.000342   0.000059   0.013238  -0.006602  -0.004555
    33  N    0.001044  -0.000622   0.004345  -0.008397   0.020871  -0.001745
    34  C   -0.048936   0.030448  -0.165750   0.280455  -1.137383  -0.087308
    35  H    0.054616  -0.003815  -0.081226  -0.000845  -0.005596   0.014728
    36  H    0.744192  -0.094316  -0.034816   0.028808  -0.217673  -0.005922
    37  H   -0.023476   0.001071   0.083647   0.009155  -0.040974  -0.348073
    38  H   -0.004740  -0.000149  -0.016430  -0.010635  -0.004704  -0.009972
    39  H   -0.000098  -0.000453  -0.003911   0.004619   0.000870   0.002427
    40  H    0.000082   0.000287   0.002705   0.012256   0.001286   0.006302
    41  H   -0.000325  -0.000027  -0.019667  -0.010233  -0.001168  -0.002511
    42  H   -0.061076  -0.019639   0.075582   0.004214   0.042527   0.007326
    43  H    0.002204  -0.000051  -0.000195  -0.000063  -0.000077   0.000048
    44  H   -0.000027  -0.000001  -0.000056  -0.000061  -0.000865  -0.000038
             13         14         15         16         17         18
     1  Si   0.028584   0.007835  -0.040384  -0.008087  -0.016875  -0.019062
     2  H    0.011316  -0.001933   0.004574  -0.007432   0.009941   0.002153
     3  H   -0.004541  -0.000402   0.000455  -0.005261   0.000295  -0.000901
     4  C   -0.013632  -0.007138  -0.022105  -0.039494   0.025017  -0.005897
     5  C    0.799207   0.020125   0.071369  -0.519703  -0.174221   0.014965
     6  C   -1.430682  -0.004388   0.073615   0.404034   0.139267   0.023500
     7  C   -0.845220   0.034263  -0.128131   0.076025  -0.039321  -0.161012
     8  N    0.141949  -0.004322  -0.030512  -0.173282  -0.062684   0.018608
     9  C   -0.801570   0.005237   0.211406   2.671243   0.559734  -0.613429
    10  C    0.699321   0.179525  -1.521287  -2.458457  -0.570390  -1.349100
    11  C    1.909719  -0.007593  -0.681798  -2.792885  -0.596538  -0.346377
    12  C   -7.149435   0.734268  -1.296315  -0.577886   0.456244  -0.956222
    13  C   16.186316  -0.773088  -0.148179  -2.017061  -1.121684   0.089140
[...]
 0004784,0.00000041,-0.00001397,-0.00003921,-0.00088791,0.00021512,0.00
 088403,-0.07894880,-0.12472798,0.17366960,0.00002081,-0.00000416,-0.00
 000798,-0.00000609,-0.00000145,0.00000361,-0.00000331,0.00000376,-0.00
 000151,-0.00000486,-0.00000089,0.00000407,-0.00003080,0.00001568,-0.00
 000009,0.00002289,-0.00000109,0.00002189,0.00007671,0.00001340,-0.0000
 0650,-0.00031769,0.00013841,0.00011591,0.00021504,-0.00022727,0.000044
 15,0.00000249,0.00002613,-0.00003082,-0.00003328,-0.00000877,0.0000014
 7,-0.00001657,0.00002242,-0.00000607,0.00000589,0.00000192,0.00000506,
 -0.00000043,-0.00000131,0.00001371,-0.00000894,-0.00001372,-0.00000696
 ,0.00003280,0.00001217,0.00003724,-0.00019901,0.00023889,-0.00008245,-
 0.00012426,-0.00003636,0.00020222,-0.00297073,0.00156963,-0.00062212,0
 .00197454,0.00137977,-0.00185133,-0.06138335,-0.06508135,0.08926581,-0
 .00561665,-0.00137593,0.00609882,-0.00076045,-0.00195085,-0.00077397,0
 .00358488,-0.00136338,0.00011609,0.00083361,-0.00029826,-0.00009826,0.
 00001303,-0.00000211,-0.00000146,-0.00000360,0.00000077,0.00000192,-0.
 00000137,-0.00000033,-0.00000168,-0.00000017,0.00000039,0.00000101,-0.
 00000072,-0.00000083,0.00000001,-0.00000189,0.00000067,0.00000140,0.00
 000193,-0.00000045,-0.00000124,-0.00000144,0.00000047,0.00000081,0.000
 00172,-0.00000266,0.00000045,0.00000362,-0.00000125,-0.00000042,-0.000
 01010,0.00000108,-0.00000670,0.00000034,-0.00000036,0.00000011,0.00000
 555,-0.00000219,0.00000161,0.00020971,-0.00009118,0.00003779,0.0002828
 4,-0.00011633,0.00017939,0.06147968,-0.00000116,0.00001121,-0.00002289
 ,0.00000176,-0.00000089,0.00000245,-0.00000004,-0.00000300,0.00000471,
 -0.00000238,-0.00000553,0.00001047,0.00001514,-0.00000092,0.00001109,-
 0.00001062,0.00001635,0.00004027,0.00002414,0.00011129,-0.00003590,0.0
 0007718,-0.00005330,0.00041359,-0.00024898,-0.00026579,-0.00011595,0.0
 0005545,0.00008689,-0.00006577,-0.00000762,-0.00004716,-0.00000379,0.0
 0002273,0.00002354,0.00000318,-0.00000127,0.00000603,0.00000844,-0.000
 00444,-0.00000218,0.00001686,-0.00000925,-0.00002900,-0.00001583,-0.00
 001160,0.00003216,0.00007330,0.00025367,0.00022971,-0.00003749,-0.0001
 2360,-0.00019769,0.00045786,0.00171742,0.00014575,0.00035095,0.0050986
 4,0.00965866,-0.00805976,-0.06527412,-0.12240436,0.12113155,-0.0046189
 0,-0.00860571,0.01699466,-0.00217711,-0.00542228,-0.00180877,-0.001415
 87,0.00027543,-0.00241204,-0.00003465,0.00069239,-0.00055056,-0.000000
 40,0.00000984,-0.00000873,0.,-0.00000143,0.00000667,0.00000040,-0.0000
 0189,-0.00000378,0.00000002,0.00000054,0.00000234,-0.00000095,-0.00000
 186,0.00000032,0.00000016,-0.00000030,0.00000421,0.00000018,0.00000074
 ,-0.00000398,0.00000018,-0.00000016,0.00000259,-0.00000293,-0.00000356
 ,-0.00000054,-0.00000071,0.00000167,-0.00000264,0.00000354,-0.00000838
 ,-0.00001400,-0.00000034,-0.00000040,-0.00000002,-0.00000265,0.0000006
 9,-0.00000047,-0.00009414,0.00004293,-0.00001555,-0.00027361,-0.000154
 78,0.00026415,0.06804042,0.12454922,0.00000097,-0.00000296,0.00000605,
 -0.00000036,0.00000143,-0.00000094,0.00000076,0.00000190,-0.00000166,-
 0.00000021,0.00000078,0.00000016,-0.00000225,0.00000675,-0.00000411,-0
 .00000717,-0.00002357,0.00000224,0.00002594,0.00003569,0.00000552,-0.0
 0006698,0.00000873,0.00010615,-0.00002092,-0.00025999,-0.00031330,0.00
 005707,0.00012858,-0.00000696,0.00000502,0.00000393,-0.00005013,-0.000
 00550,0.00000473,0.00002176,-0.00000414,-0.00001216,-0.00000223,0.0000
 0396,-0.00000442,-0.00003801,0.00000733,0.00001498,-0.00000500,-0.0000
 3318,-0.00008303,0.00000584,-0.00003800,0.00006066,0.00011305,-0.00005
 867,-0.00011926,-0.00004652,-0.00018157,0.00132648,0.00138383,0.009246
 10,0.01651249,-0.01074580,0.08869271,0.11986044,-0.24680429,-0.0035837
 7,-0.00443993,0.00635763,-0.00144859,-0.00330438,-0.00028726,-0.000038
 70,-0.00275516,-0.00374762,0.00068873,0.00119187,-0.00004084,0.0000032
 7,0.00000195,-0.00000251,-0.00000032,0.00000165,0.00000346,0.00000047,
 0.00000104,-0.00000161,-0.00000047,-0.00000079,0.00000013,0.00000076,0
 .00000132,0.00000076,-0.00000045,0.00000029,0.00000146,0.00000042,-0.0
 0000007,-0.00000219,-0.00000001,0.00000075,0.00000119,-0.00000012,-0.0
 0000213,-0.00000204,0.00000125,0.00000105,-0.00000088,0.00000077,0.000
 00245,-0.00000905,-0.00000006,-0.00000019,-0.00000031,0.00000013,-0.00
 000364,-0.00000530,0.00002880,-0.00003536,-0.00003957,-0.00029013,-0.0
 0077530,-0.00003436,-0.09340564,-0.12744175,0.25345478,-0.00000148,0.0
 0000710,0.00004954,-0.00000844,-0.00000189,-0.00002301,-0.00000528,0.0
 0000357,-0.00000089,0.00002884,-0.00001156,-0.00001207,-0.00008102,0.0
 0003977,-0.00000040,0.00007176,-0.00023829,0.00002346,0.00021512,0.000
 11968,0.00040984,-0.00221872,-0.00006517,0.00235296,0.00049787,0.00021
 722,-0.00049697,0.00039163,-0.00024387,0.00017839,-0.00000376,0.000044
 56,-0.00006446,-0.00001256,0.00000483,-0.00004102,-0.00002785,0.000022
 15,0.00002320,-0.00004628,-0.00001299,0.00001869,0.00001266,-0.0000255
 1,-0.00001516,0.00024081,-0.00011315,0.00000717,-0.00013822,-0.0000015
 4,0.00005326,-0.00035268,0.00022442,-0.00002940,0.00042336,-0.00044063
 ,0.00044573,0.00364261,-0.00227678,-0.00062743,0.00037149,0.00046841,-
 0.00052810,-0.00366090,0.00094868,-0.00013737,-0.08687490,-0.12730522,
 0.05059352,-0.00027211,-0.00318212,0.00357607,-0.00266630,0.00128079,-
 0.00021632,0.00000392,-0.00001587,0.00001654,-0.00000968,0.00000471,-0
 .00001177,0.00000125,0.00000566,0.00000609,-0.00000315,0.,-0.00000509,
 0.00000312,0.00000019,0.00000077,-0.00000218,0.00000168,-0.00000845,0.
 00000241,-0.00000642,0.00001012,-0.00001164,0.00000743,-0.00000939,0.0
 0001100,0.00000558,0.00000097,0.00002135,-0.00001562,0.00000929,-0.000
 02033,-0.00013842,0.00003825,0.00000422,-0.00000086,0.00000361,0.00001
 483,-0.00001132,0.00000237,-0.00000596,0.00000125,-0.00000234,0.000187
 93,-0.00017936,-0.00003064,0.00272639,-0.00099298,0.00042247,0.0875480
 2,0.00001084,0.00002058,-0.00001839,0.00000026,-0.00000446,0.00000602,
 0.00000184,-0.00000831,-0.00000359,-0.00003324,-0.00002681,0.00004367,
 0.00005614,0.00003564,0.00002967,-0.00022960,-0.00026250,0.00018664,0.
 00024009,0.00090011,0.00043405,-0.00029033,-0.00122094,0.00374783,-0.0
 0008244,-0.00017255,-0.00093897,-0.00018077,0.00014626,0.00005355,0.00
 000524,-0.00003443,-0.00003712,0.00000087,-0.00002303,-0.00001315,0.00
 001824,0.00001746,0.00003339,-0.00000034,-0.00002738,0.00003319,-0.000
 01077,-0.00001343,-0.00003274,-0.00011031,0.00003722,-0.00003295,-0.00
 000778,-0.00012270,0.00007227,0.00021576,0.00003610,0.00004894,-0.0006
 4407,-0.00036411,0.00110934,-0.00232605,-0.00168337,-0.00331028,0.0007
 2927,0.00067958,-0.00302919,0.00389552,0.00391721,-0.00178508,-0.12654
 917,-0.27123896,0.09158676,-0.00676860,-0.00941526,0.01153502,0.001448
 91,0.00014680,0.00064496,0.00000576,0.00001992,-0.00001972,0.00000135,
 -0.00000482,0.00001707,0.00000359,0.00000525,-0.00000705,-0.00000083,-
 0.00000456,0.00000320,-0.00000263,-0.00000232,0.00000327,0.00000105,-0
 .00000143,0.00000083,-0.00000994,-0.00001268,0.00000642,0.00001070,0.0
 0000486,-0.00000708,-0.00000264,0.00000122,-0.00000396,-0.00001578,-0.
 00000348,0.00000531,-0.00015521,-0.00027492,0.00006274,-0.00000226,0.0
 0000047,0.00000082,-0.00000830,0.00000238,0.00000128,0.00000317,-0.000
 00441,-0.00001376,-0.00020671,-0.00025828,-0.00019363,-0.00088289,0.00
 131522,0.00009402,0.13187324,0.27789869,0.00006050,0.00000573,-0.00037
 987,-0.00000292,-0.00000203,0.00007307,-0.00001997,0.00000673,0.000073
 83,-0.00007689,-0.00009968,0.00024263,0.00004927,0.00013926,-0.0000075
 7,0.00005033,0.00024583,0.00058532,0.00076908,0.00122986,-0.00118979,0
 .00168019,0.00225813,-0.00619751,-0.00139158,-0.00291979,0.00080693,0.
 00036625,0.00047006,-0.00048954,-0.00018181,-0.00029706,0.00028120,-0.
 00005232,-0.00003854,0.00021100,0.00001182,0.00000830,-0.00008790,0.00
 005636,0.00011651,-0.00006194,0.00002805,0.00006366,0.00002407,0.00001
 494,-0.00001501,0.00014776,0.00003492,0.00003170,-0.00026612,-0.000054
 97,-0.00000795,-0.00011741,-0.00016078,-0.00023402,0.00105444,-0.00077
 512,-0.00363667,-0.00115415,0.00024756,-0.00131177,-0.00547396,0.00866
 279,0.01769864,-0.00852984,0.05284777,0.09657802,-0.08272073,-0.007126
 27,-0.01216134,0.01250095,0.00028561,0.00175554,0.00007558,0.00008184,
 0.00012457,-0.00015479,-0.00002184,-0.00000515,0.00011541,-0.00000003,
 -0.00002063,-0.00006154,-0.00000702,-0.00000114,0.00003949,-0.00000955
 ,-0.00001906,0.00000687,-0.00000957,-0.00000202,0.00005349,-0.00000043
 ,-0.00001707,-0.00003998,0.00000045,0.00001455,0.00002372,-0.00002378,
 -0.00005806,-0.00000825,0.00000854,0.00000368,-0.00001589,-0.00001206,
 -0.00004864,-0.00001792,-0.00000050,-0.00000846,-0.00001631,0.00001146
 ,0.00002128,0.00000840,0.00000360,-0.00000066,-0.00003231,-0.00011232,
 -0.00037435,-0.00011091,0.00075012,0.00081991,0.00072827,-0.05598052,-
 0.10031264,0.09007189,0.00006715,0.00007004,0.00004897,-0.00002886,-0.
 00001124,-0.00001553,-0.00002060,-0.00001464,-0.00001457,0.00037718,0.
 00011714,0.00021253,-0.00012361,-0.00007383,0.00006395,-0.00005526,0.0
 0005527,0.00000549,0.00000697,-0.00002281,0.00000642,-0.00000493,-0.00
 000062,0.00000355,0.00000641,-0.00000301,0.00000507,0.00000682,0.00000
 274,-0.00000284,-0.00000605,-0.00002377,0.00001001,-0.00000080,0.00000
 168,0.00000037,-0.00000733,0.00000093,0.00000041,0.00000046,-0.0000045
 7,-0.00000049,-0.00000298,0.00000172,0.00000061,0.00000263,-0.00000144
 ,-0.00000188,-0.00000041,-0.00000209,0.00000386,-0.00000083,0.00000084
 ,-0.00000244,-0.00000058,0.00000066,0.00000134,0.00000066,-0.00000106,
 -0.00000051,-0.00000078,0.00000096,-0.00000022,0.00000038,-0.00000098,
 -0.00000082,-0.00000230,0.00000153,0.00000044,0.00000006,-0.00000070,-
 0.00000037,-0.00000319,0.00000289,-0.00000161,0.00483173,-0.00255254,0
 .00282017,0.00017247,0.00637370,0.01233697,-0.04983009,-0.02587011,-0.
 02959422,0.00485753,-0.00791288,-0.01076636,0.00603896,-0.00517810,0.0
 0172599,0.00076483,-0.00056099,-0.00050144,-0.00122088,0.00036217,-0.0
 0030472,-0.00021710,0.00029051,-0.00010881,-0.00025610,-0.00019093,0.0
 0027762,0.00002033,-0.00001312,0.00000433,0.00000257,-0.00000131,-0.00
 000063,0.00000959,-0.00000306,0.00000492,0.00000061,-0.00000031,-0.000
 00041,0.00000079,-0.00000069,0.00000047,0.00000046,-0.00000009,-0.0000
 0010,0.00000072,-0.00000026,0.00000015,0.00000103,-0.00000057,0.000000
 23,0.03792126,-0.00000288,0.00007720,0.00012122,-0.00000147,-0.0000187
 2,-0.00002825,0.00000959,-0.00002383,-0.00002638,0.00000971,0.00040785
 ,0.00008876,-0.00006984,-0.00017360,0.00018515,0.00005987,0.00005417,0
 .00000426,-0.00002100,-0.00001770,0.00003094,0.00001318,0.00002279,-0.
 00000658,-0.00001505,-0.00001718,0.00002254,0.00000249,-0.00000080,-0.
 00003486,-0.00001889,-0.00003561,0.00000010,0.00000138,0.00000139,0.00
 000061,-0.00000054,-0.00000717,0.00000540,-0.00000215,-0.00000134,0.00
 000273,0.00000371,0.00000376,-0.00000398,-0.00000009,0.00000244,-0.000
 00241,-0.00000818,-0.00001675,0.00000028,0.00000232,-0.00000191,-0.000
 01520,0.00000400,0.00001036,0.00000757,-0.00000101,-0.00000310,-0.0000
 0462,0.00000292,0.00000555,-0.00000022,-0.00000257,-0.00000574,-0.0000
 0190,-0.00000021,-0.00000365,-0.00000022,0.00000241,0.00000673,0.00000
 235,0.00001243,0.00002139,-0.00000397,-0.00287512,0.00126999,0.0036531
 2,0.00262940,0.01064330,0.01689391,-0.02566519,-0.14357087,-0.13168736
 ,-0.00393593,-0.01012492,-0.02450868,-0.00527888,-0.00260546,0.0013238
 3,-0.00036699,-0.00032510,-0.00135683,0.00038578,-0.00062180,-0.000134
 33,0.00028771,0.00023417,-0.00011379,-0.00020534,-0.00036915,0.0006357
 0,-0.00001327,-0.00000183,0.00000155,-0.00000150,-0.00000042,-0.000000
 86,-0.00000486,0.00000167,0.00000237,-0.00000007,0.,-0.00000143,-0.000
 00003,0.00000130,0.00000082,0.00000023,0.00000055,-0.00000130,-0.00000
 019,0.00000046,0.00000015,-0.00000112,0.00000003,0.00000340,0.03326327
 ,0.14523030,-0.00016852,-0.00036040,0.00008098,0.00004589,0.00008053,-
 0.00000161,0.00002552,0.00008981,-0.00000467,-0.00010782,-0.00062045,-
 0.00078262,0.00007546,0.00021013,0.00004922,0.00001877,0.00003324,-0.0
 0010285,0.00001200,0.00004349,0.00006812,0.00004472,0.00008451,-0.0000
 4718,-0.00003088,-0.00005698,0.00004238,-0.00000327,-0.00003566,-0.000
 08039,0.00002458,0.00003239,-0.00005958,-0.00000076,-0.00000234,-0.000
 00229,-0.00000407,-0.00000457,0.00000576,0.00000676,0.00001881,0.00001
 386,0.00000691,0.00001062,-0.00001954,0.00000238,0.00000754,0.00000823
 ,-0.00001425,-0.00003970,-0.00002362,0.00000176,-0.00000632,-0.0000308
 4,0.00001106,0.00002872,0.00001310,-0.00000065,-0.00000528,-0.00000915
 ,0.00000595,0.00001386,-0.00000047,-0.00000574,-0.00001294,0.00000033,
 -0.00000485,-0.00001216,-0.00000653,0.00000917,0.00002385,0.00001002,0
 .00002691,0.00005909,-0.00000599,0.00185711,0.00152091,-0.00132070,0.0
 0116104,-0.00784844,-0.03193215,-0.02898376,-0.13034123,-0.24011303,0.
 00110414,0.00177631,0.00480576,0.00142664,0.00066252,0.00118523,0.0000
 7737,-0.00007516,0.00020698,-0.00023421,0.00002112,0.00018130,-0.00011
 745,-0.00013282,0.00001478,0.00023515,0.00054159,-0.00006607,0.0000040
 3,0.00000103,0.00000303,-0.00000113,-0.00000180,0.00000469,-0.00000049
 ,-0.00000970,-0.00001370,0.00000028,0.00000001,-0.00000089,0.00000232,
 0.00000482,0.00000044,0.00000081,0.00000073,-0.00000268,0.00000035,0.0
 0000054,0.00000025,-0.00000144,-0.00000019,0.00001002,0.02421897,0.134
 36748,0.26755343,0.00018738,0.00002806,-0.00014327,-0.00002379,0.00000
 010,0.00001152,-0.00002642,-0.00001380,0.00002284,-0.00146487,0.000732
 11,-0.00004831,-0.00007314,0.00004768,-0.00000990,0.00020471,-0.000095
 80,0.00005000,0.00001757,-0.00001169,-0.00000134,-0.00003193,0.0000101
 9,0.00000434,0.00000238,0.00000196,-0.00001071,-0.00003825,0.00002606,
 0.00001273,-0.00001245,-0.00000025,0.00000048,-0.00000649,0.00000288,-
 0.00000301,0.00000446,0.00000105,-0.00000190,-0.00000047,-0.00000152,-
 0.00000002,-0.00000226,-0.00000349,0.00000361,-0.00000364,-0.00000007,
 -0.00000116,-0.00000016,0.00000495,-0.00000015,0.00000038,0.00000038,0
 .00000442,-0.00000140,-0.00000326,-0.00000194,-0.00000155,0.00000186,0
 .00000132,-0.00000174,-0.00000150,0.00000011,0.00000103,0.00000166,0.0
 0000076,-0.00000124,0.00000166,0.,0.00000029,-0.00000349,-0.00000037,0
 .00001210,-0.00001109,0.00000365,-0.00012329,-0.00024100,-0.00062834,0
 .00636996,-0.00541237,0.00074079,-0.00139248,-0.00218773,0.01143126,-0
 .06541591,-0.04567231,0.08131809,0.00389108,0.00159508,-0.00364392,-0.
 00165391,0.00125978,0.00006228,-0.00035537,0.00041752,-0.00006237,0.00
 064596,-0.00036947,-0.00039293,0.00378734,-0.00214850,-0.00007257,-0.0
 0002532,0.00001158,0.00000714,-0.00000326,0.00000281,0.00000028,0.0000
 0047,0.00000269,0.00000207,0.00000190,-0.00000087,0.00000078,-0.000000
 05,-0.00000048,-0.00000025,0.00000046,-0.00000046,0.00000059,0.0000005
 3,-0.00000044,0.00000016,0.00000179,-0.00000062,-0.00000142,-0.0033089
 0,0.00180199,-0.00072675,0.05883847,0.00007671,0.00020690,-0.00034622,
 -0.00001666,-0.00002981,0.00004268,-0.00000455,-0.00002846,0.00003926,
 0.00068118,-0.00010145,0.00057580,0.00004943,0.00000384,-0.00002766,-0
 .00010904,0.00002825,0.00004272,-0.00000965,-0.00000647,-0.00002336,0.
 00000324,-0.00002159,0.00002139,0.00000839,0.00001088,-0.00002271,0.00
 001929,0.00000988,0.00004519,0.00000398,-0.00000106,0.00000723,0.00000
 371,-0.00000111,-0.00000278,0.00000172,0.00000552,-0.00000551,-0.00000
 146,-0.00000341,-0.00000149,-0.00000433,-0.00000680,0.00000823,-0.0000
 0004,-0.00000421,-0.00000159,0.00000610,0.00001201,0.00000258,-0.00000
 115,0.00000202,0.00001151,-0.00000321,-0.00000918,-0.00000500,0.000001
 38,0.00000215,0.00000430,-0.00000176,-0.00000466,0.00000029,0.00000154
 ,0.00000415,0.00000128,0.00000211,0.00000298,0.00000113,-0.00000370,-0
 .00000705,-0.00000245,-0.00001423,-0.00001281,0.00000317,-0.00014729,-
 0.00093795,-0.00149842,-0.00544301,-0.00333837,-0.00063341,-0.00644370
 ,-0.00415611,0.02621977,-0.04567992,-0.10039373,0.09920089,0.00578979,
 0.01045193,-0.01488483,0.00118343,0.00095687,0.00164082,0.00043882,0.0
 0036128,-0.00016992,-0.00013248,-0.00006495,-0.00156642,-0.00238590,-0
 .00119601,-0.00196783,0.00000178,-0.00001307,0.00003701,0.00000265,0.0
 0000244,0.00000300,0.00000190,0.00000530,0.00000448,-0.00000100,0.0000
 0048,0.00000086,-0.00000059,-0.00000140,-0.00000062,-0.00000064,-0.000
 00029,0.00000111,-0.00000040,-0.00000015,-0.00000002,-0.00000025,0.000
 00011,-0.00000364,0.00189966,-0.00004873,-0.00006749,0.05022814,0.0983
 2184,0.00000166,-0.00002558,0.00006573,0.00000758,0.00001671,-0.000011
 51,0.00000453,0.00001579,-0.00001023,-0.00020027,0.00023952,0.00023544
 ,-0.00000446,-0.00001542,-0.00011325,0.00001090,-0.00004375,0.00005241
 ,0.00000463,-0.00001011,-0.00003786,-0.00001664,-0.00002510,-0.0000009
 2,0.00000874,0.00002030,0.00000273,-0.00000824,-0.00000077,0.00000429,
 0.00001302,0.00003485,0.00000571,-0.00000088,0.00000226,0.00000385,0.0
 0000013,-0.00000118,-0.00000070,0.00000041,-0.00000058,-0.00000426,0.0
 0000134,0.00000303,0.00000078,-0.00000048,-0.00000015,-0.00000048,0.00
 000362,0.00001103,0.00000675,-0.00000068,0.00000036,0.00000599,-0.0000
 0210,-0.00000535,-0.00000271,-0.00000018,0.00000065,0.00000053,-0.0000
 0051,-0.00000111,-0.00000051,0.00000070,0.00000142,-0.00000010,0.00000
 098,0.00000345,0.00000160,-0.00000111,-0.00000452,-0.00000405,-0.00000
 611,-0.00001837,0.00000314,-0.00034746,-0.00087626,-0.00042885,0.00064
 783,-0.00083881,0.00214144,-0.00126909,-0.00190266,0.00403395,0.081297
 70,0.09915398,-0.27380519,0.00887203,0.01282902,-0.01772031,-0.0001648
 7,0.00113744,0.00227014,-0.00000036,-0.00003173,-0.00064618,0.00031478
 ,0.00000004,-0.00132621,-0.00078143,-0.00353590,-0.00064202,-0.0000222
 4,-0.00002825,0.00003334,-0.00000006,0.00000212,0.00000242,-0.00000033
 ,-0.00000085,-0.00000088,0.00000036,-0.00000007,-0.00000024,-0.0000002
 8,-0.00000055,0.00000028,0.00000015,0.00000010,0.00000006,0.00000016,0
 .00000009,-0.00000004,-0.00000004,-0.00000076,-0.00000008,-0.00043486,
 0.00057894,0.00036864,-0.08792857,-0.10668330,0.28551735\\-0.00000021,
 0.00000300,-0.00000380,-0.00000016,-0.00000126,0.00000095,0.00000075,0
 .00000081,-0.00000048,0.00000186,-0.00000195,-0.00000367,-0.00000045,0
 .00000368,0.00000510,-0.00000138,-0.00000400,-0.00000484,0.00000104,-0
 .00000017,0.00000543,0.00000006,0.00000211,-0.00000407,0.00000084,0.00
 000007,-0.00000468,0.00000233,-0.00000179,0.00000783,-0.00000063,0.000
 00516,-0.00000186,0.00000191,-0.00000102,0.00000010,-0.00000360,-0.000
 00047,-0.00000100,-0.00000152,-0.00000106,-0.00000152,0.00000675,0.000
 00017,-0.00000080,-0.00000661,-0.00000135,-0.00000060,0.00000168,0.000
 00279,-0.00000228,-0.00000002,-0.00000154,0.00000195,0.00000082,-0.000
 00189,-0.00000260,0.00000043,-0.00000065,0.00000116,-0.00000353,0.0000
 0183,-0.00000146,0.00000577,-0.00000390,0.00000224,-0.00000529,0.00000
 212,-0.00000014,0.00000080,-0.00000322,0.00000073,0.00000115,-0.000003
 14,0.00000102,-0.00000133,0.00000027,0.00000626,-0.00000092,0.00000125
 ,-0.00000267,0.00000592,-0.00000155,0.00000245,0.00000074,-0.00000092,
 -0.00000187,0.00000137,-0.00000488,0.00000182,-0.00000243,0.00000325,-
 0.00000071,0.00000214,0.00000300,0.00000447,0.00000320,0.00000101,-0.0
 0000544,-0.00000380,0.00000207,0.00000338,-0.00000030,-0.00000112,-0.0
 0000057,-0.00000028,0.00000055,-0.00000062,0.00000152,0.00000030,0.000
 00122,-0.00000168,0.00000030,-0.00000112,-0.00000057,-0.00000058,-0.00
 000175,-0.00000080,-0.00000062,-0.00000107,-0.00000139,-0.00000058,-0.
 00000058,-0.00000197,-0.00000092,0.00000109,-0.00000249,0.00000101,0.0
 0000059,0.00000025,0.00000383,0.00000244\\\@


 A MAN IS NEVER SO BRILLIANT AS WHEN HE TAKES THE WORDS RIGHT OUT
 OF YOUR MOUTH. -- ARNOT SHEPPARD, JR.
 Job cpu time:  1 days  0 hours 33 minutes 44.8 seconds.
 File lengths (MBytes):  RWF=   2230 Int=      0 D2E=      0 Chk=     34 Scr=      1
 Normal termination of Gaussian 09 at Sun Dec 29 17:16:28 2013.
