 Entering Gaussian System, Link 0=g09
 Initial command:
 /opt/gaussian/g09/l1.exe /panfs/panfs.cluster/home/shuo/Gau-14862.inp -scrdir=/panfs/panfs.cluster/home/shuo/
 Default is to use a total of  12 processors:
                               12 via shared-memory
                                1 via Linda
 Entering Link 1 = /opt/gaussian/g09/l1.exe PID=     14863.
  
 Copyright (c) 1988,1990,1992,1993,1995,1998,2003,2009,2011,
            Gaussian, Inc.  All Rights Reserved.
  
 This is part of the Gaussian(R) 09 program.  It is based on
 the Gaussian(R) 03 system (copyright 2003, Gaussian, Inc.),
 the Gaussian(R) 98 system (copyright 1998, Gaussian, Inc.),
 the Gaussian(R) 94 system (copyright 1995, Gaussian, Inc.),
 the Gaussian 92(TM) system (copyright 1992, Gaussian, Inc.),
 the Gaussian 90(TM) system (copyright 1990, Gaussian, Inc.),
 the Gaussian 88(TM) system (copyright 1988, Gaussian, Inc.),
 the Gaussian 86(TM) system (copyright 1986, Carnegie Mellon
 University), and the Gaussian 82(TM) system (copyright 1983,
 Carnegie Mellon University). Gaussian is a federally registered
 trademark of Gaussian, Inc.
  
 This software contains proprietary and confidential information,
 including trade secrets, belonging to Gaussian, Inc.
  
 This software is provided under written license and may be
 used, copied, transmitted, or stored only in accord with that
 written license.
  
 The following legend is applicable only to US Government
 contracts under FAR:
  
                    RESTRICTED RIGHTS LEGEND
  
 Use, reproduction and disclosure by the US Government is
 subject to restrictions as set forth in subparagraphs (a)
 and (c) of the Commercial Computer Software - Restricted
 Rights clause in FAR 52.227-19.
  
 Gaussian, Inc.
 340 Quinnipiac St., Bldg. 40, Wallingford CT 06492
  
  
 ---------------------------------------------------------------
 Warning -- This program may not be used in any manner that
 competes with the business of Gaussian, Inc. or will provide
 assistance to any competitor of Gaussian, Inc.  The licensee
 of this program is prohibited from giving any competitor of
 Gaussian, Inc. access to this program.  By using this program,
 the user acknowledges that Gaussian, Inc. is engaged in the
 business of creating and licensing software in the field of
 computational chemistry and represents and warrants to the
 licensee that it is not a competitor of Gaussian, Inc. and that
 it will not use this program in any manner prohibited above.
 ---------------------------------------------------------------
  

 Cite this work as:
 Gaussian 09, Revision C.01,
 M. J. Frisch, G. W. Trucks, H. B. Schlegel, G. E. Scuseria, 
 M. A. Robb, J. R. Cheeseman, G. Scalmani, V. Barone, B. Mennucci, 
 G. A. Petersson, H. Nakatsuji, M. Caricato, X. Li, H. P. Hratchian, 
 A. F. Izmaylov, J. Bloino, G. Zheng, J. L. Sonnenberg, M. Hada, 
 M. Ehara, K. Toyota, R. Fukuda, J. Hasegawa, M. Ishida, T. Nakajima, 
 Y. Honda, O. Kitao, H. Nakai, T. Vreven, J. A. Montgomery, Jr., 
 J. E. Peralta, F. Ogliaro, M. Bearpark, J. J. Heyd, E. Brothers, 
 K. N. Kudin, V. N. Staroverov, T. Keith, R. Kobayashi, J. Normand, 
 K. Raghavachari, A. Rendell, J. C. Burant, S. S. Iyengar, J. Tomasi, 
 M. Cossi, N. Rega, J. M. Millam, M. Klene, J. E. Knox, J. B. Cross, 
 V. Bakken, C. Adamo, J. Jaramillo, R. Gomperts, R. E. Stratmann, 
 O. Yazyev, A. J. Austin, R. Cammi, C. Pomelli, J. W. Ochterski, 
 R. L. Martin, K. Morokuma, V. G. Zakrzewski, G. A. Voth, 
 P. Salvador, J. J. Dannenberg, S. Dapprich, A. D. Daniels, 
 O. Farkas, J. B. Foresman, J. V. Ortiz, J. Cioslowski, 
 and D. J. Fox, Gaussian, Inc., Wallingford CT, 2010.
 
 ******************************************
 Gaussian 09:  EM64L-G09RevC.01 23-Sep-2011
                29-Dec-2013 
 ******************************************
 %chk=4_C24H14N4S2Si2.chk
 %NProcShared=12
 Will use up to   12 processors via shared memory.
 %Mem=8000MB
 Default route:  MaxDisk=100GB
 --------------------------------------------
 #B3LYP/6-31++G(d,p) opt scf=direct freq test
 --------------------------------------------
 1/14=-1,18=20,19=15,26=3,38=1/1,3;
 2/9=110,12=2,17=6,18=5,40=1/2;
 3/5=1,6=6,7=1111,11=2,16=1,25=1,30=1,71=1,74=-5/1,2,3;
 4//1;
 5/5=2,38=5/2;
 6/7=2,8=2,9=2,10=2,28=1/1;
 7//1,2,3,16;
 1/14=-1,18=20,19=15/3(2);
 2/9=110/2;
 99//99;
 2/9=110/2;
 3/5=1,6=6,7=1111,11=2,16=1,25=1,30=1,71=1,74=-5/1,2,3;
 4/5=5,16=3/1;
 5/5=2,38=5/2;
 7//1,2,3,16;
 1/14=-1,18=20,19=15/3(-5);
 2/9=110/2;
 6/7=2,8=2,9=2,10=2,19=2,28=1/1;
 99/9=1/99;
 ----------------------------------------------------------------------
 Geom opt of No.4 candidate from the CEPDB database with SMILE code of 
 c1c([Se]c2c1[nH]c1c2oc2ccc3nsnc3c12)-c1cncc2nsnc12, HPC, 20131227, Shu
 o Dai, Gaussian09
 ----------------------------------------------------------------------
 Charge =  0 Multiplicity = 1
 Symbolic Z-Matrix:
 C                     1.00706   0.02755  -0.09587 
 C                     2.52706   0.02755  -0.09587 
 Se                    3.1804   -1.76571   0.35023 
 C                     2.53974  -2.2661    2.09185 
 C                     2.54664  -3.54758   2.61486 
 N                     2.1099   -3.48035   3.92025 
 H                     2.01898  -4.2585    4.54171 
 C                     1.8163   -2.16074   4.23524 
 C                     2.08425  -1.41965   3.09232 
 O                     1.69565   0.2524    3.54197 
 C                     1.18602  -0.02116   5.21947 
 C                     0.73632   0.80791   6.22616 
 C                     0.41075   0.26958   7.45559 
 C                     0.54061  -1.09658   7.66039 
 N                     0.23288  -1.59689   8.81872 
 S                    -0.29049  -0.63801   9.99293 
 N                     1.09128  -3.19733   6.90503 
 C                     0.98296  -1.92367   6.67525 
 C                     1.32635  -1.40929   5.40201 
 C                     3.02106   0.41339  -1.43879 
 C                     3.45598  -0.52135  -2.313 
 N                     3.84384  -0.19389  -3.57371 
 C                     3.80179   1.08104  -4.01784 
 C                     3.35192   2.10053  -3.15285 
 N                     3.18764   3.4185   -3.25595 
 S                     2.72446   3.8793   -2.1033 
 N                     2.57662   2.89585  -1.23923 
 C                     2.95317   1.75137  -1.83208 
 H                     0.50432  -0.21423  -1.00894 
 H                     0.31959   0.81551   0.13084 
 H                     2.88373   0.72793   0.63017 
 H                     0.64389   1.82254   6.06183 
 H                     0.0732    0.87925   8.21676 
 H                     3.4945   -1.50881  -2.01555 
 H                     4.09598   1.30715  -4.98083 
 

 GradGradGradGradGradGradGradGradGradGradGradGradGradGradGradGradGradGrad
 Berny optimization.
 Initialization pass.
                           ----------------------------
                           !    Initial Parameters    !
                           ! (Angstroms and Degrees)  !
 --------------------------                            --------------------------
 ! Name  Definition              Value          Derivative Info.                !
 --------------------------------------------------------------------------------
 ! R1    R(1,2)                  1.52           estimate D2E/DX2                !
 ! R2    R(1,29)                 1.07           estimate D2E/DX2                !
 ! R3    R(1,30)                 1.07           estimate D2E/DX2                !
 ! R4    R(2,3)                  1.96           estimate D2E/DX2                !
 ! R5    R(2,20)                 1.482          estimate D2E/DX2                !
 ! R6    R(2,31)                 1.07           estimate D2E/DX2                !
 ! R7    R(3,4)                  1.922          estimate D2E/DX2                !
 ! R8    R(4,5)                  1.3841         estimate D2E/DX2                !
 ! R9    R(4,9)                  1.3874         estimate D2E/DX2                !
 ! R10   R(5,6)                  1.3782         estimate D2E/DX2                !
 ! R11   R(6,7)                  1.0            estimate D2E/DX2                !
 ! R12   R(6,8)                  1.3881         estimate D2E/DX2                !
 ! R13   R(8,9)                  1.3883         estimate D2E/DX2                !
 ! R14   R(8,19)                 1.4718         estimate D2E/DX2                !
 ! R15   R(9,10)                 1.7745         estimate D2E/DX2                !
 ! R16   R(10,11)                1.7744         estimate D2E/DX2                !
 ! R17   R(11,12)                1.3795         estimate D2E/DX2                !
 ! R18   R(11,19)                1.4071         estimate D2E/DX2                !
 ! R19   R(12,13)                1.381          estimate D2E/DX2                !
 ! R20   R(12,32)                1.032          estimate D2E/DX2                !
 ! R21   R(13,14)                1.3875         estimate D2E/DX2                !
 ! R22   R(13,33)                1.032          estimate D2E/DX2                !
 ! R23   R(14,15)                1.2987         estimate D2E/DX2                !
 ! R24   R(14,18)                1.3602         estimate D2E/DX2                !
 ! R25   R(15,16)                1.6038         estimate D2E/DX2                !
 ! R26   R(17,18)                1.2987         estimate D2E/DX2                !
 ! R27   R(18,19)                1.4155         estimate D2E/DX2                !
 ! R28   R(20,21)                1.3517         estimate D2E/DX2                !
 ! R29   R(20,28)                1.3962         estimate D2E/DX2                !
 ! R30   R(21,22)                1.3591         estimate D2E/DX2                !
 ! R31   R(21,34)                1.032          estimate D2E/DX2                !
 ! R32   R(22,23)                1.3507         estimate D2E/DX2                !
 ! R33   R(23,24)                1.4107         estimate D2E/DX2                !
 ! R34   R(23,35)                1.032          estimate D2E/DX2                !
 ! R35   R(24,25)                1.3322         estimate D2E/DX2                !
 ! R36   R(24,26)                2.1585         estimate D2E/DX2                !
 ! R37   R(24,28)                1.4231         estimate D2E/DX2                !
 ! R38   R(25,26)                1.3249         estimate D2E/DX2                !
 ! R39   R(26,27)                1.3174         estimate D2E/DX2                !
 ! R40   R(26,28)                2.1573         estimate D2E/DX2                !
 ! R41   R(27,28)                1.3428         estimate D2E/DX2                !
 ! A1    A(2,1,29)             118.0246         estimate D2E/DX2                !
 ! A2    A(2,1,30)             129.9783         estimate D2E/DX2                !
 ! A3    A(29,1,30)             92.598          estimate D2E/DX2                !
 ! A4    A(1,2,3)              109.4713         estimate D2E/DX2                !
 ! A5    A(1,2,20)             109.4711         estimate D2E/DX2                !
 ! A6    A(1,2,31)             109.4716         estimate D2E/DX2                !
 ! A7    A(3,2,20)             109.471          estimate D2E/DX2                !
 ! A8    A(3,2,31)             109.4708         estimate D2E/DX2                !
 ! A9    A(20,2,31)            109.4715         estimate D2E/DX2                !
 ! A10   A(2,3,4)              109.471          estimate D2E/DX2                !
 ! A11   A(3,4,5)              125.5762         estimate D2E/DX2                !
 ! A12   A(3,4,9)              127.1591         estimate D2E/DX2                !
 ! A13   A(5,4,9)              107.0982         estimate D2E/DX2                !
 ! A14   A(4,5,6)              108.1298         estimate D2E/DX2                !
 ! A15   A(5,6,7)              125.4155         estimate D2E/DX2                !
 ! A16   A(5,6,8)              109.1685         estimate D2E/DX2                !
 ! A17   A(7,6,8)              125.4159         estimate D2E/DX2                !
 ! A18   A(6,8,9)              106.251          estimate D2E/DX2                !
 ! A19   A(6,8,19)             137.3666         estimate D2E/DX2                !
 ! A20   A(9,8,19)             116.3824         estimate D2E/DX2                !
 ! A21   A(4,9,8)              109.3508         estimate D2E/DX2                !
 ! A22   A(4,9,10)             146.0455         estimate D2E/DX2                !
 ! A23   A(8,9,10)             104.603          estimate D2E/DX2                !
 ! A24   A(9,10,11)             99.0433         estimate D2E/DX2                !
 ! A25   A(10,11,12)           133.6986         estimate D2E/DX2                !
 ! A26   A(10,11,19)           104.2462         estimate D2E/DX2                !
 ! A27   A(12,11,19)           122.0552         estimate D2E/DX2                !
 ! A28   A(11,12,13)           119.4865         estimate D2E/DX2                !
 ! A29   A(11,12,32)           120.2567         estimate D2E/DX2                !
 ! A30   A(13,12,32)           120.2568         estimate D2E/DX2                !
 ! A31   A(12,13,14)           119.5467         estimate D2E/DX2                !
 ! A32   A(12,13,33)           120.2268         estimate D2E/DX2                !
 ! A33   A(14,13,33)           120.2265         estimate D2E/DX2                !
 ! A34   A(13,14,15)           119.2594         estimate D2E/DX2                !
 ! A35   A(13,14,18)           121.4816         estimate D2E/DX2                !
 ! A36   A(15,14,18)           119.2589         estimate D2E/DX2                !
 ! A37   A(14,15,16)           119.9996         estimate D2E/DX2                !
 ! A38   A(14,18,17)           119.6888         estimate D2E/DX2                !
 ! A39   A(14,18,19)           120.6228         estimate D2E/DX2                !
 ! A40   A(17,18,19)           119.6883         estimate D2E/DX2                !
 ! A41   A(8,19,11)            115.725          estimate D2E/DX2                !
 ! A42   A(8,19,18)            127.4678         estimate D2E/DX2                !
 ! A43   A(11,19,18)           116.8072         estimate D2E/DX2                !
 ! A44   A(2,20,21)            120.8811         estimate D2E/DX2                !
 ! A45   A(2,20,28)            119.2435         estimate D2E/DX2                !
 ! A46   A(21,20,28)           119.7449         estimate D2E/DX2                !
 ! A47   A(20,21,22)           121.6778         estimate D2E/DX2                !
 ! A48   A(20,21,34)           119.1616         estimate D2E/DX2                !
 ! A49   A(22,21,34)           119.1606         estimate D2E/DX2                !
 ! A50   A(21,22,23)           121.5708         estimate D2E/DX2                !
 ! A51   A(22,23,24)           119.3708         estimate D2E/DX2                !
 ! A52   A(22,23,35)           120.3147         estimate D2E/DX2                !
 ! A53   A(24,23,35)           120.3145         estimate D2E/DX2                !
 ! A54   A(23,24,25)           134.9814         estimate D2E/DX2                !
 ! A55   A(23,24,28)           118.7583         estimate D2E/DX2                !
 ! A56   A(25,24,28)           106.2604         estimate D2E/DX2                !
 ! A57   A(24,26,27)            74.7147         estimate D2E/DX2                !
 ! A58   A(25,26,27)           110.4991         estimate D2E/DX2                !
 ! A59   A(25,26,28)            74.2916         estimate D2E/DX2                !
 ! A60   A(20,28,24)           118.8749         estimate D2E/DX2                !
 ! A61   A(20,28,27)           134.9123         estimate D2E/DX2                !
 ! A62   A(24,28,27)           106.2128         estimate D2E/DX2                !
 ! A63   L(23,24,26,1,-1)      188.8565         estimate D2E/DX2                !
 ! A64   L(20,28,26,12,-1)     170.3416         estimate D2E/DX2                !
 ! A65   L(23,24,26,1,-2)      183.3781         estimate D2E/DX2                !
 ! A66   L(20,28,26,12,-2)     180.4551         estimate D2E/DX2                !
 ! D1    D(29,1,2,3)           -89.1382         estimate D2E/DX2                !
 ! D2    D(29,1,2,20)           30.8616         estimate D2E/DX2                !
 ! D3    D(29,1,2,31)          150.8621         estimate D2E/DX2                !
 ! D4    D(30,1,2,3)           149.9789         estimate D2E/DX2                !
 ! D5    D(30,1,2,20)          -90.0214         estimate D2E/DX2                !
 ! D6    D(30,1,2,31)           29.9791         estimate D2E/DX2                !
 ! D7    D(1,2,3,4)            -60.0003         estimate D2E/DX2                !
 ! D8    D(20,2,3,4)           179.9999         estimate D2E/DX2                !
 ! D9    D(31,2,3,4)            60.0            estimate D2E/DX2                !
 ! D10   D(1,2,20,21)         -100.7314         estimate D2E/DX2                !
 ! D11   D(1,2,20,28)           75.1048         estimate D2E/DX2                !
 ! D12   D(3,2,20,21)           19.2685         estimate D2E/DX2                !
 ! D13   D(3,2,20,28)         -164.8953         estimate D2E/DX2                !
 ! D14   D(31,2,20,21)         139.268          estimate D2E/DX2                !
 ! D15   D(31,2,20,28)         -44.8957         estimate D2E/DX2                !
 ! D16   D(2,3,4,5)            165.0343         estimate D2E/DX2                !
 ! D17   D(2,3,4,9)            -20.2718         estimate D2E/DX2                !
 ! D18   D(3,4,5,6)            175.1597         estimate D2E/DX2                !
 ! D19   D(9,4,5,6)             -0.4179         estimate D2E/DX2                !
 ! D20   D(3,4,9,8)           -175.0902         estimate D2E/DX2                !
 ! D21   D(3,4,9,10)             4.5308         estimate D2E/DX2                !
 ! D22   D(5,4,9,8)              0.3963         estimate D2E/DX2                !
 ! D23   D(5,4,9,10)          -179.9827         estimate D2E/DX2                !
 ! D24   D(4,5,6,7)           -179.7098         estimate D2E/DX2                !
 ! D25   D(4,5,6,8)              0.2895         estimate D2E/DX2                !
 ! D26   D(5,6,8,9)             -0.0439         estimate D2E/DX2                !
 ! D27   D(5,6,8,19)          -179.9866         estimate D2E/DX2                !
 ! D28   D(7,6,8,9)            179.9555         estimate D2E/DX2                !
 ! D29   D(7,6,8,19)             0.0128         estimate D2E/DX2                !
 ! D30   D(6,8,9,4)             -0.2192         estimate D2E/DX2                !
 ! D31   D(6,8,9,10)           179.9996         estimate D2E/DX2                !
 ! D32   D(19,8,9,4)           179.7375         estimate D2E/DX2                !
 ! D33   D(19,8,9,10)           -0.0437         estimate D2E/DX2                !
 ! D34   D(6,8,19,11)          179.9772         estimate D2E/DX2                !
 ! D35   D(6,8,19,18)           -0.0722         estimate D2E/DX2                !
 ! D36   D(9,8,19,11)            0.0385         estimate D2E/DX2                !
 ! D37   D(9,8,19,18)          179.9891         estimate D2E/DX2                !
 ! D38   D(4,9,10,11)         -179.5977         estimate D2E/DX2                !
 ! D39   D(8,9,10,11)            0.0327         estimate D2E/DX2                !
 ! D40   D(9,10,11,12)        -179.975          estimate D2E/DX2                !
 ! D41   D(9,10,11,19)          -0.0131         estimate D2E/DX2                !
 ! D42   D(10,11,12,13)        179.9552         estimate D2E/DX2                !
 ! D43   D(10,11,12,32)         -0.044          estimate D2E/DX2                !
 ! D44   D(19,11,12,13)         -0.0012         estimate D2E/DX2                !
 ! D45   D(19,11,12,32)        179.9996         estimate D2E/DX2                !
 ! D46   D(10,11,19,8)          -0.0103         estimate D2E/DX2                !
 ! D47   D(10,11,19,18)       -179.9664         estimate D2E/DX2                !
 ! D48   D(12,11,19,8)         179.9572         estimate D2E/DX2                !
 ! D49   D(12,11,19,18)          0.0011         estimate D2E/DX2                !
 ! D50   D(11,12,13,14)          0.0011         estimate D2E/DX2                !
 ! D51   D(11,12,13,33)       -179.9996         estimate D2E/DX2                !
 ! D52   D(32,12,13,14)       -179.9997         estimate D2E/DX2                !
 ! D53   D(32,12,13,33)         -0.0004         estimate D2E/DX2                !
 ! D54   D(12,13,14,15)        179.9998         estimate D2E/DX2                !
 ! D55   D(12,13,14,18)         -0.001          estimate D2E/DX2                !
 ! D56   D(33,13,14,15)          0.0005         estimate D2E/DX2                !
 ! D57   D(33,13,14,18)        179.9997         estimate D2E/DX2                !
 ! D58   D(13,14,15,16)         -0.0004         estimate D2E/DX2                !
 ! D59   D(18,14,15,16)       -179.9996         estimate D2E/DX2                !
 ! D60   D(13,14,18,17)       -179.9996         estimate D2E/DX2                !
 ! D61   D(13,14,18,19)          0.001          estimate D2E/DX2                !
 ! D62   D(15,14,18,17)         -0.0004         estimate D2E/DX2                !
 ! D63   D(15,14,18,19)       -179.9998         estimate D2E/DX2                !
 ! D64   D(14,18,19,8)        -179.9511         estimate D2E/DX2                !
 ! D65   D(14,18,19,11)         -0.001          estimate D2E/DX2                !
 ! D66   D(17,18,19,8)           0.0495         estimate D2E/DX2                !
 ! D67   D(17,18,19,11)        179.9996         estimate D2E/DX2                !
 ! D68   D(2,20,21,22)         176.3622         estimate D2E/DX2                !
 ! D69   D(2,20,21,34)          -3.6382         estimate D2E/DX2                !
 ! D70   D(28,20,21,22)          0.5467         estimate D2E/DX2                !
 ! D71   D(28,20,21,34)       -179.4537         estimate D2E/DX2                !
 ! D72   D(2,20,26,25)        -176.2988         estimate D2E/DX2                !
 ! D73   D(21,20,26,25)         -0.233          estimate D2E/DX2                !
 ! D74   D(2,20,28,24)        -176.128          estimate D2E/DX2                !
 ! D75   D(2,20,28,27)           3.8283         estimate D2E/DX2                !
 ! D76   D(21,20,28,24)         -0.2437         estimate D2E/DX2                !
 ! D77   D(21,20,28,27)        179.7126         estimate D2E/DX2                !
 ! D78   D(20,21,22,23)         -0.6083         estimate D2E/DX2                !
 ! D79   D(34,21,22,23)        179.3921         estimate D2E/DX2                !
 ! D80   D(21,22,23,24)          0.3472         estimate D2E/DX2                !
 ! D81   D(21,22,23,35)       -179.6527         estimate D2E/DX2                !
 ! D82   D(22,23,24,25)        179.9632         estimate D2E/DX2                !
 ! D83   D(22,23,24,28)         -0.051          estimate D2E/DX2                !
 ! D84   D(35,23,24,25)         -0.0369         estimate D2E/DX2                !
 ! D85   D(35,23,24,28)        179.9489         estimate D2E/DX2                !
 ! D86   D(22,23,26,27)         -0.1037         estimate D2E/DX2                !
 ! D87   D(35,23,26,27)        179.9076         estimate D2E/DX2                !
 ! D88   D(23,24,28,20)          0.0019         estimate D2E/DX2                !
 ! D89   D(23,24,28,27)       -179.9659         estimate D2E/DX2                !
 ! D90   D(25,24,28,20)        179.9915         estimate D2E/DX2                !
 ! D91   D(25,24,28,27)          0.0237         estimate D2E/DX2                !
 --------------------------------------------------------------------------------
 Trust Radius=3.00D-01 FncErr=1.00D-07 GrdErr=1.00D-06
 Number of steps in this run=    208 maximum allowed number of steps=    210.
 GradGradGradGradGradGradGradGradGradGradGradGradGradGradGradGradGradGrad

                          Input orientation:                          
 ---------------------------------------------------------------------
 Center     Atomic      Atomic             Coordinates (Angstroms)
 Number     Number       Type             X           Y           Z
 ---------------------------------------------------------------------
      1          6           0        1.007060    0.027550   -0.095870
      2          6           0        2.527060    0.027550   -0.095870
      3         34           0        3.180400   -1.765710    0.350230
      4          6           0        2.539740   -2.266100    2.091850
      5          6           0        2.546640   -3.547580    2.614860
      6          7           0        2.109900   -3.480350    3.920250
      7          1           0        2.018980   -4.258500    4.541710
      8          6           0        1.816300   -2.160740    4.235240
      9          6           0        2.084250   -1.419650    3.092320
     10          8           0        1.695650    0.252400    3.541970
     11          6           0        1.186020   -0.021160    5.219470
     12          6           0        0.736320    0.807910    6.226160
     13          6           0        0.410750    0.269580    7.455590
     14          6           0        0.540610   -1.096580    7.660390
     15          7           0        0.232880   -1.596890    8.818720
     16         16           0       -0.290490   -0.638010    9.992930
     17          7           0        1.091280   -3.197330    6.905030
     18          6           0        0.982960   -1.923670    6.675250
     19          6           0        1.326350   -1.409290    5.402010
     20          6           0        3.021060    0.413390   -1.438790
     21          6           0        3.455980   -0.521350   -2.313000
     22          7           0        3.843840   -0.193890   -3.573710
     23          6           0        3.801790    1.081040   -4.017840
     24          6           0        3.351920    2.100530   -3.152850
     25          7           0        3.187640    3.418500   -3.255950
     26         16           0        2.724460    3.879300   -2.103300
     27          7           0        2.576620    2.895850   -1.239230
     28          6           0        2.953170    1.751370   -1.832080
     29          1           0        0.504320   -0.214230   -1.008940
     30          1           0        0.319590    0.815510    0.130840
     31          1           0        2.883730    0.727930    0.630170
     32          1           0        0.643890    1.822540    6.061830
     33          1           0        0.073200    0.879250    8.216760
     34          1           0        3.494500   -1.508810   -2.015550
     35          1           0        4.095980    1.307150   -4.980830
 ---------------------------------------------------------------------
                    Distance matrix (angstroms):
                    1          2          3          4          5
     1  C    0.000000
     2  C    1.520000   0.000000
     3  Se   2.852752   1.960010   0.000000
     4  C    3.520803   3.169718   1.921998   0.000000
     5  C    4.743408   4.486646   2.950468   1.384116   0.000000
     6  N    5.445258   5.348701   4.102561   2.236563   1.378153
     7  H    6.395417   6.335260   5.013123   3.200416   2.120515
     8  C    4.919552   4.904315   4.136438   2.264638   2.254407
     9  C    3.663234   3.529168   2.973274   1.387404   2.229318
    10  O    3.709258   3.738406   4.057642   3.026248   4.002945
    11  C    5.318575   5.482116   5.543510   4.080971   4.590307
    12  C    6.375761   6.616931   6.864663   5.458423   5.940458
    13  C    7.578833   7.846139   7.893004   6.303331   6.524217
    14  C    7.851166   8.085123   7.800940   6.030998   5.957259
    15  N    9.094398   9.347298   8.968372   7.142844   6.902648
    16  S   10.193650  10.495973  10.310211   8.549149   8.423231
    17  N    7.708407   7.840530   7.027045   5.111940   4.543821
    18  C    7.046695   7.213846   6.697729   4.852667   4.644238
    19  C    5.691497   5.808003   5.393053   3.628167   3.718817
    20  C    2.451225   1.482006   2.823908   4.458335   5.687393
    21  C    3.348756   2.465735   2.952485   4.825593   5.853953
    22  N    4.493521   3.725361   4.278794   6.171977   7.157399
    23  C    4.929727   4.256363   5.250728   7.079861   8.184878
    24  C    4.375013   3.784543   5.220038   6.872698   8.112712
    25  N    5.122458   4.681988   6.315110   7.831565   9.132555
    26  S    4.670676   4.347956   6.172020   7.443074   8.800636
    27  N    3.463804   3.088183   4.961963   6.143548   7.508175
    28  C    3.126232   2.483455   4.145354   5.631005   6.929604
    29  H    1.070001   2.232405   3.378733   4.238868   5.330499
    30  H    1.069997   2.354825   3.859412   4.274453   5.492419
    31  H    2.130624   1.069991   2.526781   3.349486   4.725739
    32  H    6.424263   6.684728   7.206372   6.005994   6.658847
    33  H    8.408169   8.708998   8.861873   7.313793   7.556190
    34  H    3.497561   2.642255   2.400327   4.284366   5.147399
    35  H    5.919598   5.287884   6.221009   8.075444   9.146768
                    6          7          8          9         10
     6  N    0.000000
     7  H    0.999998   0.000000
     8  C    1.388089   2.129695   0.000000
     9  C    2.220948   3.188112   1.388264   0.000000
    10  O    3.774668   4.631656   2.513648   1.774527   0.000000
    11  C    3.808874   4.371296   2.437984   2.699511   1.774419
    12  C    5.058964   5.491002   3.734033   4.074297   2.904097
    13  C    5.426575   5.619663   4.272316   4.969127   4.119185
    14  C    4.704644   4.680756   3.806767   4.832645   4.485003
    15  N    5.573655   5.344823   4.881950   6.020851   5.779590
    16  S    7.121672   6.939553   6.317299   7.339535   6.808265
    17  N    3.166480   2.751725   2.954311   4.322371   4.855520
    18  C    3.359058   3.328177   2.589268   3.782098   3.880805
    19  C    2.664367   3.055790   1.471761   2.430882   2.521378
    20  C    6.686609   7.654874   6.346039   4.976807   5.156607
    21  C    7.030008   7.938407   6.946625   5.648546   6.162639
    22  N    8.364616   9.258035   8.304163   7.002471   7.446261
    23  C    9.310319  10.244755   9.086509   7.730315   7.891337
    24  C    9.094920  10.070762   8.666050   7.280165   7.139988
    25  N   10.012667  11.004799   9.440679   8.057648   7.646041
    26  S    9.530230  10.529846   8.802496   7.448705   6.788367
    27  N    8.215472   9.214931   7.491129   6.134191   5.533878
    28  C    7.821208   8.810020   7.308177   5.921157   5.719150
    29  H    6.127181   7.032783   5.745574   4.557362   4.727345
    30  H    6.001604   6.934643   5.286237   4.108568   3.721081
    31  H    5.397505   6.396282   4.741345   3.363547   3.180604
    32  H    5.903913   6.417218   4.536242   4.626491   3.149799
    33  H    6.450911   6.609730   5.304002   5.965664   4.987880
    34  H    6.406076   7.261929   6.504902   5.299726   6.101127
    35  H   10.300189  11.223598  10.107381   8.755470   8.916961
                   11         12         13         14         15
    11  C    0.000000
    12  C    1.379497   0.000000
    13  C    2.384493   1.381048   0.000000
    14  C    2.744298   2.392154   1.387516   0.000000
    15  N    4.043019   3.571818   2.318075   1.298744   0.000000
    16  S    5.034531   4.163362   2.784520   2.518284   1.603788
    17  N    3.596963   4.077844   3.575710   2.299338   2.638270
    18  C    2.404178   2.779216   2.397228   1.360240   2.294312
    19  C    1.407096   2.437895   2.806086   2.411525   3.592322
    20  C    6.920161   8.007942   9.270620   9.551320  10.818118
    21  C    7.882957   9.059842  10.262765  10.406670  11.638743
    22  N    9.187701  10.329460  11.560552  11.744411  12.983827
    23  C    9.663591  10.696319  11.991548  12.319025  13.589912
    24  C    8.904405   9.822324  11.159832  11.621150  12.911925
    25  N    9.363252  10.135806  11.504951  12.106163  13.404566
    26  S    8.438208   9.097584  10.476436  11.173998  12.469449
    27  N    7.222016   7.967324   9.337461   9.964340  11.262335
    28  C    7.482582   8.410694   9.742711  10.199914  11.491317
    29  H    6.268579   7.310627   8.478862   8.714192   9.928158
    30  H    5.229233   6.109554   7.345632   7.771683   9.017009
    31  H    4.950256   5.994403   7.274069   7.631713   8.915388
    32  H    2.098262   1.031999   2.099668   3.329763   4.411561
    33  H    3.321574   2.099358   1.031997   2.105213   2.553257
    34  H    7.738714   8.994472  10.118037  10.125177  11.314916
    35  H   10.690107  11.710388  13.012379  13.349870  14.621374
                   16         17         18         19         20
    16  S    0.000000
    17  N    4.241996   0.000000
    18  C    3.779100   1.298746   0.000000
    19  C    4.928041   2.347640   1.415501   0.000000
    20  C   11.948055   9.294121   8.686389   7.279475   0.000000
    21  C   12.864119   9.885583   9.427140   8.052648   1.351716
    22  N   14.189561  11.242830  10.780443   9.400984   2.367201
    23  C   14.697060  12.039950  11.459331  10.053016   2.776111
    24  C   13.913241  11.590460  10.881071   9.466119   2.427738
    25  N   14.285849  12.304855  11.490349  10.086240   3.515751
    26  S   13.259517  11.571343  10.666313   9.287280   3.541480
    27  N   12.118989  10.279205   9.402474   8.012707   2.529814
    28  C   12.492451  10.212412   9.474297   8.060296   1.396237
    29  H   11.038680   8.477873   7.886574   6.572989   2.629193
    30  H    9.987279   7.911260   7.125480   5.809349   3.150140
    31  H    9.980117   7.615406   6.869272   5.455603   2.097234
    32  H    4.730848   5.109818   3.811213   3.368359   7.993494
    33  H    2.364134   4.401775   3.325699   3.838049  10.106263
    34  H   12.620936   9.391662   9.055934   7.728582   2.061953
    35  H   15.723812  13.061096  12.489727  11.083919   3.807927
                   21         22         23         24         25
    21  C    0.000000
    22  N    1.359064   0.000000
    23  C    2.365104   1.350728   0.000000
    24  C    2.755074   2.384003   1.410656   0.000000
    25  N    4.059997   3.685232   2.534043   1.332165   0.000000
    26  S    4.465962   4.472806   3.557578   2.158537   1.324943
    27  N    3.688294   4.074572   3.537690   2.212592   2.171098
    28  C    2.376838   2.758732   2.438656   1.423147   2.204927
    29  H    3.241480   4.210802   4.648065   4.250093   5.044402
    30  H    4.194817   5.211806   5.422893   4.650690   5.145057
    31  H    3.248141   4.409554   4.750949   4.051478   4.736397
    32  H    9.139992  10.351295  10.588763   9.608383   9.789728
    33  H   11.148127  12.425157  12.791737  11.895779  12.156093
    34  H    1.032007   2.068554   3.287996   3.786967   5.090299
    35  H    3.297018   2.072844   1.032000   2.127108   2.873690
                   26         27         28         29         30
    26  S    0.000000
    27  N    1.317440   0.000000
    28  C    2.157303   1.342794   0.000000
    29  H    4.783684   3.744337   3.246230   0.000000
    30  H    4.490166   3.361412   3.415352   1.547123   0.000000
    31  H    4.174729   2.879036   2.667382   3.039069   2.613774
    32  H    8.673430   7.628428   8.225063   7.359599   6.024610
    33  H   11.069468   9.987469  10.489710   9.300274   8.089924
    34  H    5.443564   4.565765   3.309905   3.410334   4.482132
    35  H    4.095998   4.339584   3.379049   5.566914   6.374324
                   31         32         33         34         35
    31  H    0.000000
    32  H    5.976453   0.000000
    33  H    8.091868   2.420580   0.000000
    34  H    3.517937   9.190644  11.050262   0.000000
    35  H    5.769607  11.581144  13.803704   4.133315   0.000000
 Stoichiometry    C17H8N6OS2Se
 Framework group  C1[X(C17H8N6OS2Se)]
 Deg. of freedom    99
 Full point group                 C1      NOp   1
 Largest Abelian subgroup         C1      NOp   1
 Largest concise Abelian subgroup C1      NOp   1
                         Standard orientation:                         
 ---------------------------------------------------------------------
 Center     Atomic      Atomic             Coordinates (Angstroms)
 Number     Number       Type             X           Y           Z
 ---------------------------------------------------------------------
      1          6           0       -1.924266    0.163838    1.607029
      2          6           0       -2.293760   -0.211817    0.181280
      3         34           0       -1.590162   -1.994861   -0.227797
      4          6           0        0.322888   -1.986666   -0.042725
      5          6           0        1.129035   -3.108982    0.036707
      6          7           0        2.442838   -2.693067    0.052251
      7          1           0        3.240467   -3.294250    0.100869
      8          6           0        2.482875   -1.306967   -0.010325
      9          6           0        1.162328   -0.882265   -0.065659
     10          8           0        1.264484    0.887579   -0.144161
     11          6           0        3.029379    1.067066   -0.105518
     12          6           0        3.877549    2.154675   -0.132463
     13          6           0        5.243032    1.953166   -0.086151
     14          6           0        5.741818    0.660456   -0.013258
     15          7           0        7.026868    0.477393    0.030018
     16         16           0        8.017915    1.737948   -0.000981
     17          7           0        5.419702   -1.614194    0.082471
     18          6           0        4.915155   -0.419425    0.013912
     19          6           0        3.510184   -0.253281   -0.031845
     20          6           0       -3.768865   -0.218135    0.038573
     21          6           0       -4.463029   -1.377790    0.060345
     22          7           0       -5.820776   -1.398012    0.004043
     23          6           0       -6.542778   -0.258489   -0.064256
     24          6           0       -5.874613    0.983715   -0.085102
     25          7           0       -6.257719    2.258128   -0.146458
     26         16           0       -5.178192    3.026217   -0.134802
     27          7           0       -4.088356    2.289267   -0.065457
     28          6           0       -4.452517    0.997226   -0.032098
     29          1           0       -2.598528   -0.112501    2.390553
     30          1           0       -1.739636    1.125297    2.038772
     31          1           0       -1.872955    0.501678   -0.496014
     32          1           0        3.494663    3.111476   -0.186792
     33          1           0        5.888001    2.758555   -0.105639
     34          1           0       -3.948916   -2.270547    0.121265
     35          1           0       -7.573438   -0.296259   -0.100839
 ---------------------------------------------------------------------
 Rotational constants (GHZ):      0.3414650      0.0560349      0.0485786
 Standard basis: 6-31++G(d,p) (6D, 7F)
 There are   584 symmetry adapted basis functions of A   symmetry.
 Integral buffers will be    131072 words long.
 Raffenetti 2 integral format.
 Two-electron integral symmetry is turned on.
   584 basis functions,  1031 primitive gaussians,   584 cartesian basis functions
   113 alpha electrons      113 beta electrons
       nuclear repulsion energy      2963.4708388215 Hartrees.
 NAtoms=   35 NActive=   35 NUniq=   35 SFac= 1.00D+00 NAtFMM=   60 NAOKFM=F Big=F
 One-electron integrals computed using PRISM.
 NBasis=   584 RedAO= T  NBF=   584
 NBsUse=   579 1.00D-06 NBFU=   579
 Harris functional with IExCor=  402 diagonalized for initial guess.
 ExpMin= 3.00D-02 ExpMax= 5.61D+05 ExpMxC= 5.42D+03 IAcc=3 IRadAn=         5 AccDes= 0.00D+00
 HarFok:  IExCor=  402 AccDes= 0.00D+00 IRadAn=         5 IDoV= 1
 ScaDFX=  1.000000  1.000000  1.000000  1.000000
 FoFCou: FMM=F IPFlag=           0 FMFlag=      100000 FMFlg1=           0
         NFxFlg=           0 DoJE=T BraDBF=F KetDBF=T FulRan=T
         Omega=  0.000000  0.000000  1.000000  0.000000  0.000000 ICntrl=     500 IOpCl=  0
         NMat0=    1 NMatS0=    1 NMatT0=    0 NMatD0=    1 NMtDS0=    0 NMtDT0=    0
         I1Cent=           4 NGrid=           0.
 Petite list used in FoFCou.
 Initial guess orbital symmetries:
       Occupied  (A) (A) (A) (A) (A) (A) (A) (A) (A) (A) (A) (A)
                 (A) (A) (A) (A) (A) (A) (A) (A) (A) (A) (A) (A)
                 (A) (A) (A) (A) (A) (A) (A) (A) (A) (A) (A) (A)
                 (A) (A) (A) (A) (A) (A) (A) (A) (A) (A) (A) (A)
                 (A) (A) (A) (A) (A) (A) (A) (A) (A) (A) (A) (A)
                 (A) (A) (A) (A) (A) (A) (A) (A) (A) (A) (A) (A)
                 (A) (A) (A) (A) (A) (A) (A) (A) (A) (A) (A) (A)
                 (A) (A) (A) (A) (A) (A) (A) (A) (A) (A) (A) (A)
                 (A) (A) (A) (A) (A) (A) (A) (A) (A) (A) (A) (A)
                 (A) (A) (A) (A) (A)
       Virtual   (A) (A) (A) (A) (A) (A) (A) (A) (A) (A) (A) (A)
                 (A) (A) (A) (A) (A) (A) (A) (A) (A) (A) (A) (A)
                 (A) (A) (A) (A) (A) (A) (A) (A) (A) (A) (A) (A)
                 (A) (A) (A) (A) (A) (A) (A) (A) (A) (A) (A) (A)
                 (A) (A) (A) (A) (A) (A) (A) (A) (A) (A) (A) (A)
                 (A) (A) (A) (A) (A) (A) (A) (A) (A) (A) (A) (A)
                 (A) (A) (A) (A) (A) (A) (A) (A) (A) (A) (A) (A)
                 (A) (A) (A) (A) (A) (A) (A) (A) (A) (A) (A) (A)
                 (A) (A) (A) (A) (A) (A) (A) (A) (A) (A) (A) (A)
                 (A) (A) (A) (A) (A) (A) (A) (A) (A) (A) (A) (A)
                 (A) (A) (A) (A) (A) (A) (A) (A) (A) (A) (A) (A)
                 (A) (A) (A) (A) (A) (A) (A) (A) (A) (A) (A) (A)
                 (A) (A) (A) (A) (A) (A) (A) (A) (A) (A) (A) (A)
                 (A) (A) (A) (A) (A) (A) (A) (A) (A) (A) (A) (A)
                 (A) (A) (A) (A) (A) (A) (A) (A) (A) (A) (A) (A)
                 (A) (A) (A) (A) (A) (A) (A) (A) (A) (A) (A) (A)
                 (A) (A) (A) (A) (A) (A) (A) (A) (A) (A) (A) (A)
                 (A) (A) (A) (A) (A) (A) (A) (A) (A) (A) (A) (A)
                 (A) (A) (A) (A) (A) (A) (A) (A) (A) (A) (A) (A)
                 (A) (A) (A) (A) (A) (A) (A) (A) (A) (A) (A) (A)
                 (A) (A) (A) (A) (A) (A) (A) (A) (A) (A) (A) (A)
                 (A) (A) (A) (A) (A) (A) (A) (A) (A) (A) (A) (A)
                 (A) (A) (A) (A) (A) (A) (A) (A) (A) (A) (A) (A)
                 (A) (A) (A) (A) (A) (A) (A) (A) (A) (A) (A) (A)
                 (A) (A) (A) (A) (A) (A) (A) (A) (A) (A) (A) (A)
                 (A) (A) (A) (A) (A) (A) (A) (A) (A) (A) (A) (A)
                 (A) (A) (A) (A) (A) (A) (A) (A) (A) (A) (A) (A)
                 (A) (A) (A) (A) (A) (A) (A) (A) (A) (A) (A) (A)
                 (A) (A) (A) (A) (A) (A) (A) (A) (A) (A) (A) (A)
                 (A) (A) (A) (A) (A) (A) (A) (A) (A) (A) (A) (A)
                 (A) (A) (A) (A) (A) (A) (A) (A) (A) (A) (A) (A)
                 (A) (A) (A) (A) (A) (A) (A) (A) (A) (A) (A) (A)
                 (A) (A) (A) (A) (A) (A) (A) (A) (A) (A) (A) (A)
                 (A) (A) (A) (A) (A) (A) (A) (A) (A) (A) (A) (A)
                 (A) (A) (A) (A) (A) (A) (A) (A) (A) (A) (A) (A)
                 (A) (A) (A) (A) (A) (A) (A) (A) (A) (A) (A) (A)
                 (A) (A) (A) (A) (A) (A) (A) (A) (A) (A) (A) (A)
                 (A) (A) (A) (A) (A) (A) (A) (A) (A) (A) (A) (A)
                 (A) (A) (A) (A) (A) (A) (A) (A) (A) (A)
 The electronic state of the initial guess is 1-A.
 Requested convergence on RMS density matrix=1.00D-08 within 128 cycles.
 Requested convergence on MAX density matrix=1.00D-06.
 Requested convergence on             energy=1.00D-06.
 No special actions if energy rises.
 EnCoef did     2 forward-backward iterations
 EnCoef did     2 forward-backward iterations
 EnCoef did     2 forward-backward iterations
 EnCoef did     5 forward-backward iterations
 EnCoef did    12 forward-backward iterations
 EnCoef did     5 forward-backward iterations
 EnCoef did     6 forward-backward iterations
 EnCoef did    11 forward-backward iterations
 EnCoef did     7 forward-backward iterations
 EnCoef did     3 forward-backward iterations
 EnCoef did     3 forward-backward iterations
 EnCoef did     4 forward-backward iterations
 EnCoef did     5 forward-backward iterations
 EnCoef did     5 forward-backward iterations
 EnCoef did     2 forward-backward iterations
 EnCoef did     9 forward-backward iterations
 Restarting incremental Fock formation.
 EnCoef did     4 forward-backward iterations
 Matrix for removal  4 Erem= -4239.85425413233     Crem= 0.000D+00
 Matrix for removal  1 Erem= -4249.26920796991     Crem= 0.000D+00
 Matrix for removal  1 Erem= -4249.35443945118     Crem= 0.000D+00
 Matrix for removal  1 Erem= -4249.59119716644     Crem= 0.000D+00
 Matrix for removal  2 Erem= -4249.67295738962     Crem= 0.000D+00
 Matrix for removal  1 Erem= -4250.08435144232     Crem= 0.000D+00
 Matrix for removal  2 Erem= -4250.15165015066     Crem= 0.000D+00
 Matrix for removal  1 Erem= -4250.29151597333     Crem= 0.000D+00
 Matrix for removal  4 Erem= -4250.75940647624     Crem= 0.000D+00
 Matrix for removal  1 Erem= -4250.80983410236     Crem= 0.000D+00
 Restarting incremental Fock formation.
 SCF Done:  E(RB3LYP) =  -4251.40208758     A.U. after   46 cycles
             Convg  =    0.4925D-08             -V/T =  2.0047

 **********************************************************************

            Population analysis using the SCF density.

 **********************************************************************

 Orbital symmetries:
       Occupied  (A) (A) (A) (A) (A) (A) (A) (A) (A) (A) (A) (A)
                 (A) (A) (A) (A) (A) (A) (A) (A) (A) (A) (A) (A)
                 (A) (A) (A) (A) (A) (A) (A) (A) (A) (A) (A) (A)
                 (A) (A) (A) (A) (A) (A) (A) (A) (A) (A) (A) (A)
                 (A) (A) (A) (A) (A) (A) (A) (A) (A) (A) (A) (A)
                 (A) (A) (A) (A) (A) (A) (A) (A) (A) (A) (A) (A)
                 (A) (A) (A) (A) (A) (A) (A) (A) (A) (A) (A) (A)
                 (A) (A) (A) (A) (A) (A) (A) (A) (A) (A) (A) (A)
                 (A) (A) (A) (A) (A) (A) (A) (A) (A) (A) (A) (A)
                 (A) (A) (A) (A) (A)
       Virtual   (A) (A) (A) (A) (A) (A) (A) (A) (A) (A) (A) (A)
                 (A) (A) (A) (A) (A) (A) (A) (A) (A) (A) (A) (A)
                 (A) (A) (A) (A) (A) (A) (A) (A) (A) (A) (A) (A)
                 (A) (A) (A) (A) (A) (A) (A) (A) (A) (A) (A) (A)
                 (A) (A) (A) (A) (A) (A) (A) (A) (A) (A) (A) (A)
                 (A) (A) (A) (A) (A) (A) (A) (A) (A) (A) (A) (A)
                 (A) (A) (A) (A) (A) (A) (A) (A) (A) (A) (A) (A)
                 (A) (A) (A) (A) (A) (A) (A) (A) (A) (A) (A) (A)
                 (A) (A) (A) (A) (A) (A) (A) (A) (A) (A) (A) (A)
                 (A) (A) (A) (A) (A) (A) (A) (A) (A) (A) (A) (A)
                 (A) (A) (A) (A) (A) (A) (A) (A) (A) (A) (A) (A)
                 (A) (A) (A) (A) (A) (A) (A) (A) (A) (A) (A) (A)
                 (A) (A) (A) (A) (A) (A) (A) (A) (A) (A) (A) (A)
                 (A) (A) (A) (A) (A) (A) (A) (A) (A) (A) (A) (A)
                 (A) (A) (A) (A) (A) (A) (A) (A) (A) (A) (A) (A)
                 (A) (A) (A) (A) (A) (A) (A) (A) (A) (A) (A) (A)
                 (A) (A) (A) (A) (A) (A) (A) (A) (A) (A) (A) (A)
                 (A) (A) (A) (A) (A) (A) (A) (A) (A) (A) (A) (A)
                 (A) (A) (A) (A) (A) (A) (A) (A) (A) (A) (A) (A)
                 (A) (A) (A) (A) (A) (A) (A) (A) (A) (A) (A) (A)
                 (A) (A) (A) (A) (A) (A) (A) (A) (A) (A) (A) (A)
                 (A) (A) (A) (A) (A) (A) (A) (A) (A) (A) (A) (A)
                 (A) (A) (A) (A) (A) (A) (A) (A) (A) (A) (A) (A)
                 (A) (A) (A) (A) (A) (A) (A) (A) (A) (A) (A) (A)
                 (A) (A) (A) (A) (A) (A) (A) (A) (A) (A) (A) (A)
                 (A) (A) (A) (A) (A) (A) (A) (A) (A) (A) (A) (A)
                 (A) (A) (A) (A) (A) (A) (A) (A) (A) (A) (A) (A)
                 (A) (A) (A) (A) (A) (A) (A) (A) (A) (A) (A) (A)
                 (A) (A) (A) (A) (A) (A) (A) (A) (A) (A) (A) (A)
                 (A) (A) (A) (A) (A) (A) (A) (A) (A) (A) (A) (A)
                 (A) (A) (A) (A) (A) (A) (A) (A) (A) (A) (A) (A)
                 (A) (A) (A) (A) (A) (A) (A) (A) (A) (A) (A) (A)
                 (A) (A) (A) (A) (A) (A) (A) (A) (A) (A) (A) (A)
                 (A) (A) (A) (A) (A) (A) (A) (A) (A) (A) (A) (A)
                 (A) (A) (A) (A) (A) (A) (A) (A) (A) (A) (A) (A)
                 (A) (A) (A) (A) (A) (A) (A) (A) (A) (A) (A) (A)
                 (A) (A) (A) (A) (A) (A) (A) (A) (A) (A) (A) (A)
                 (A) (A) (A) (A) (A) (A) (A) (A) (A) (A) (A) (A)
                 (A) (A) (A) (A) (A) (A) (A) (A) (A) (A)
 The electronic state is 1-A.
 Alpha  occ. eigenvalues -- -453.93379 -88.99613 -88.91913 -57.53239 -52.20500
 Alpha  occ. eigenvalues --  -52.20333 -52.20116 -19.22087 -14.41352 -14.40694
 Alpha  occ. eigenvalues --  -14.38668 -14.37725 -14.37692 -14.37454 -10.30863
 Alpha  occ. eigenvalues --  -10.28409 -10.27958 -10.27765 -10.27664 -10.27511
 Alpha  occ. eigenvalues --  -10.26970 -10.26422 -10.26233 -10.25930 -10.25880
 Alpha  occ. eigenvalues --  -10.25756 -10.25735 -10.25030 -10.24717 -10.23649
 Alpha  occ. eigenvalues --  -10.22154  -8.07010  -7.97746  -7.77302  -6.03431
 Alpha  occ. eigenvalues --   -6.02805  -6.02596  -5.94245  -5.93839  -5.93316
 Alpha  occ. eigenvalues --   -5.81506  -5.81052  -5.80415  -2.17077  -2.17060
 Alpha  occ. eigenvalues --   -2.16492  -2.16121  -2.16038  -1.19565  -1.01340
 Alpha  occ. eigenvalues --   -1.00620  -0.99644  -0.98106  -0.95688  -0.93053
 Alpha  occ. eigenvalues --   -0.88879  -0.87868  -0.85368  -0.82623  -0.81035
 Alpha  occ. eigenvalues --   -0.79091  -0.76793  -0.74553  -0.72544  -0.71827
 Alpha  occ. eigenvalues --   -0.70429  -0.69952  -0.66343  -0.64126  -0.62040
 Alpha  occ. eigenvalues --   -0.60430  -0.60312  -0.58405  -0.57445  -0.56809
 Alpha  occ. eigenvalues --   -0.56778  -0.54308  -0.52385  -0.52035  -0.51246
 Alpha  occ. eigenvalues --   -0.50264  -0.49424  -0.47427  -0.46992  -0.46487
 Alpha  occ. eigenvalues --   -0.45717  -0.44733  -0.44219  -0.44063  -0.42555
 Alpha  occ. eigenvalues --   -0.41591  -0.40683  -0.39957  -0.39528  -0.39344
 Alpha  occ. eigenvalues --   -0.38543  -0.36311  -0.36160  -0.35581  -0.35443
 Alpha  occ. eigenvalues --   -0.35030  -0.34148  -0.33209  -0.32257  -0.31757
 Alpha  occ. eigenvalues --   -0.29924  -0.29083  -0.28413  -0.25788  -0.23751
 Alpha  occ. eigenvalues --   -0.23049  -0.22527  -0.21147
 Alpha virt. eigenvalues --   -0.18753  -0.17711  -0.13636  -0.09231  -0.07166
 Alpha virt. eigenvalues --   -0.05379  -0.04123  -0.02537  -0.02198  -0.01836
 Alpha virt. eigenvalues --   -0.01351  -0.00824  -0.00574   0.00046   0.00601
 Alpha virt. eigenvalues --    0.00669   0.00981   0.01546   0.01788   0.02115
 Alpha virt. eigenvalues --    0.02601   0.02870   0.02894   0.03216   0.03530
 Alpha virt. eigenvalues --    0.03979   0.04377   0.04623   0.04780   0.04987
 Alpha virt. eigenvalues --    0.05535   0.06018   0.06551   0.06746   0.07291
 Alpha virt. eigenvalues --    0.07449   0.07572   0.08124   0.08407   0.08588
 Alpha virt. eigenvalues --    0.09125   0.09173   0.09703   0.10364   0.10380
 Alpha virt. eigenvalues --    0.10424   0.10644   0.10779   0.11028   0.11176
 Alpha virt. eigenvalues --    0.11647   0.11825   0.11959   0.12191   0.12546
 Alpha virt. eigenvalues --    0.12681   0.13055   0.13196   0.13444   0.13704
 Alpha virt. eigenvalues --    0.13844   0.14141   0.14319   0.14567   0.15043
 Alpha virt. eigenvalues --    0.15430   0.15574   0.15796   0.15830   0.16212
 Alpha virt. eigenvalues --    0.16487   0.16709   0.16765   0.17133   0.17361
 Alpha virt. eigenvalues --    0.17834   0.17903   0.18214   0.18507   0.19012
 Alpha virt. eigenvalues --    0.19155   0.19566   0.19765   0.20185   0.20366
 Alpha virt. eigenvalues --    0.20628   0.20924   0.21053   0.21402   0.21484
 Alpha virt. eigenvalues --    0.21615   0.21699   0.22216   0.22408   0.22616
 Alpha virt. eigenvalues --    0.22936   0.23184   0.23643   0.23689   0.24173
 Alpha virt. eigenvalues --    0.24391   0.24536   0.24690   0.25087   0.25557
 Alpha virt. eigenvalues --    0.25705   0.26130   0.26466   0.26849   0.27017
 Alpha virt. eigenvalues --    0.27449   0.27784   0.27928   0.28047   0.28382
 Alpha virt. eigenvalues --    0.28632   0.28893   0.29053   0.29337   0.29934
 Alpha virt. eigenvalues --    0.30397   0.30629   0.30751   0.31121   0.31392
 Alpha virt. eigenvalues --    0.32097   0.32182   0.32487   0.33021   0.33048
 Alpha virt. eigenvalues --    0.33436   0.34464   0.34748   0.35132   0.35535
 Alpha virt. eigenvalues --    0.36079   0.36508   0.36698   0.37224   0.37551
 Alpha virt. eigenvalues --    0.38108   0.38463   0.39221   0.39544   0.40207
 Alpha virt. eigenvalues --    0.40769   0.41321   0.41831   0.42753   0.43122
 Alpha virt. eigenvalues --    0.43927   0.44975   0.45324   0.45818   0.47640
 Alpha virt. eigenvalues --    0.48567   0.48887   0.50241   0.50300   0.50865
 Alpha virt. eigenvalues --    0.51501   0.52382   0.54136   0.54875   0.55241
 Alpha virt. eigenvalues --    0.57501   0.58048   0.58992   0.59773   0.60855
 Alpha virt. eigenvalues --    0.62507   0.62956   0.63745   0.64486   0.65519
 Alpha virt. eigenvalues --    0.65816   0.66805   0.67514   0.67852   0.68570
 Alpha virt. eigenvalues --    0.68964   0.69680   0.69967   0.70591   0.71054
 Alpha virt. eigenvalues --    0.71268   0.71628   0.72351   0.72676   0.73002
 Alpha virt. eigenvalues --    0.74072   0.74492   0.74839   0.74912   0.75469
 Alpha virt. eigenvalues --    0.75946   0.76490   0.76946   0.77206   0.77844
 Alpha virt. eigenvalues --    0.78146   0.78406   0.79467   0.79874   0.80004
 Alpha virt. eigenvalues --    0.80439   0.80759   0.81369   0.82220   0.83429
 Alpha virt. eigenvalues --    0.84289   0.84653   0.85694   0.87156   0.88487
 Alpha virt. eigenvalues --    0.89281   0.89489   0.91008   0.91785   0.91904
 Alpha virt. eigenvalues --    0.93005   0.93311   0.94466   0.94760   0.95721
 Alpha virt. eigenvalues --    0.96089   0.96893   0.97466   0.97642   0.98226
 Alpha virt. eigenvalues --    0.98995   0.99785   1.00984   1.01220   1.02076
 Alpha virt. eigenvalues --    1.02432   1.02833   1.04098   1.04421   1.04905
 Alpha virt. eigenvalues --    1.05897   1.06770   1.07220   1.07597   1.08358
 Alpha virt. eigenvalues --    1.09195   1.10876   1.11125   1.11519   1.12827
 Alpha virt. eigenvalues --    1.13706   1.14874   1.15418   1.16060   1.16762
 Alpha virt. eigenvalues --    1.17105   1.17566   1.17902   1.18122   1.20196
 Alpha virt. eigenvalues --    1.20565   1.20708   1.21627   1.21702   1.21960
 Alpha virt. eigenvalues --    1.22713   1.23504   1.24221   1.25649   1.26442
 Alpha virt. eigenvalues --    1.27789   1.29630   1.30117   1.30314   1.31330
 Alpha virt. eigenvalues --    1.31470   1.31986   1.34268   1.34400   1.34501
 Alpha virt. eigenvalues --    1.34797   1.35276   1.35633   1.37006   1.37438
 Alpha virt. eigenvalues --    1.37979   1.38235   1.41242   1.41730   1.42192
 Alpha virt. eigenvalues --    1.42755   1.44340   1.46266   1.46584   1.49677
 Alpha virt. eigenvalues --    1.50277   1.52008   1.53085   1.55581   1.56947
 Alpha virt. eigenvalues --    1.58133   1.59811   1.60432   1.62011   1.62341
 Alpha virt. eigenvalues --    1.64502   1.67009   1.69309   1.69921   1.71607
 Alpha virt. eigenvalues --    1.71896   1.73038   1.75549   1.75998   1.76152
 Alpha virt. eigenvalues --    1.78681   1.79141   1.80625   1.81527   1.82852
 Alpha virt. eigenvalues --    1.83352   1.85014   1.85111   1.86010   1.86356
 Alpha virt. eigenvalues --    1.87044   1.87980   1.89117   1.90629   1.90906
 Alpha virt. eigenvalues --    1.91375   1.91725   1.92148   1.92433   1.95078
 Alpha virt. eigenvalues --    1.96209   1.96478   1.97197   1.98091   1.99037
 Alpha virt. eigenvalues --    1.99282   2.01338   2.02159   2.03797   2.05227
 Alpha virt. eigenvalues --    2.05813   2.06949   2.07855   2.08496   2.10122
 Alpha virt. eigenvalues --    2.10366   2.12569   2.14894   2.15292   2.16416
 Alpha virt. eigenvalues --    2.18817   2.20033   2.20392   2.22515   2.24287
 Alpha virt. eigenvalues --    2.24881   2.26310   2.26568   2.28503   2.28997
 Alpha virt. eigenvalues --    2.29508   2.30154   2.31102   2.33576   2.34909
 Alpha virt. eigenvalues --    2.36871   2.37468   2.38096   2.39185   2.39854
 Alpha virt. eigenvalues --    2.41369   2.41997   2.43334   2.44300   2.45639
 Alpha virt. eigenvalues --    2.45836   2.49017   2.49918   2.50864   2.51735
 Alpha virt. eigenvalues --    2.53070   2.53602   2.54584   2.54803   2.56222
 Alpha virt. eigenvalues --    2.58409   2.60742   2.62396   2.64112   2.64291
 Alpha virt. eigenvalues --    2.65049   2.65340   2.67109   2.68224   2.70111
 Alpha virt. eigenvalues --    2.71542   2.72043   2.73790   2.73995   2.74794
 Alpha virt. eigenvalues --    2.75528   2.77662   2.78325   2.79744   2.80320
 Alpha virt. eigenvalues --    2.81210   2.82307   2.84427   2.88033   2.88389
 Alpha virt. eigenvalues --    2.89372   2.91696   2.94831   2.96902   3.00952
 Alpha virt. eigenvalues --    3.02991   3.03696   3.04340   3.10998   3.13361
 Alpha virt. eigenvalues --    3.23982   3.30030   3.32192   3.33317   3.33577
 Alpha virt. eigenvalues --    3.40439   3.43836   3.45675   3.52403   3.53354
 Alpha virt. eigenvalues --    3.56975   3.74677   3.81625   3.92398   3.95677
 Alpha virt. eigenvalues --    4.02654   4.15803   4.21660   4.24386   4.26942
 Alpha virt. eigenvalues --    4.29050   4.30488   4.32604   4.33744   4.35667
 Alpha virt. eigenvalues --    4.37336   4.38926   4.41515   4.42683   4.46943
 Alpha virt. eigenvalues --    4.48538   4.50586   4.55322   4.56194   4.57751
 Alpha virt. eigenvalues --    4.63482   4.64610   4.79289   4.87793   8.44210
 Alpha virt. eigenvalues --   82.96627
          Condensed to atoms (all electrons):
              1          2          3          4          5          6
     1  C    6.920572  -0.633386   0.033555  -0.231741  -0.412396   0.009801
     2  C   -0.633386  26.443727  -0.150062  -0.530879   0.726792  -0.027974
     3  Se   0.033555  -0.150062  34.185449  -0.226649  -0.334074   0.025068
     4  C   -0.231741  -0.530879  -0.226649  21.982359  -5.602597  -0.054998
     5  C   -0.412396   0.726792  -0.334074  -5.602597  13.918956   0.363071
     6  N    0.009801  -0.027974   0.025068  -0.054998   0.363071   6.896544
     7  H   -0.001630   0.000724   0.002100  -0.014149  -0.052765   0.314374
     8  C   -0.105529  -0.219475  -0.064015   1.627352  -1.030454  -0.085693
     9  C    0.627851   0.785372   0.461863  -7.851898  -0.524612  -0.035132
    10  O   -0.034880   0.058982   0.011109  -0.025838  -0.053107   0.012259
    11  C    0.002823   0.193096  -0.136222  -2.756637   1.701902  -0.004874
    12  C   -0.018006   0.005647  -0.044899   0.701467   0.019745  -0.022023
    13  C    0.007849   0.000186  -0.003537  -0.217825   0.016375   0.020530
    14  C    0.004131  -0.020034   0.017328  -0.434274  -0.103681   0.062908
    15  N    0.000024   0.000046  -0.000318  -0.003898   0.003105   0.001406
    16  S   -0.000025  -0.000255   0.000083  -0.007331   0.001505  -0.000316
    17  N   -0.001067  -0.000467   0.000787  -0.052495   0.069411   0.014490
    18  C    0.008003  -0.038881   0.071412  -0.229346  -0.942992   0.118700
    19  C   -0.018126  -0.513346   0.157257  -2.049096  -0.482217  -0.200125
    20  C   -0.003727  -6.586599   0.382980   1.087687  -0.886405   0.000320
    21  C    0.316313  -2.652832  -0.595631   0.348468  -0.089847   0.005176
    22  N    0.011571   0.025327   0.038639  -0.006443  -0.001183   0.000030
    23  C   -0.059695  -0.550012  -0.030733   0.005383   0.005321  -0.000005
    24  C   -0.279668  -2.326508   0.161641   0.161568   0.046184  -0.000163
    25  N   -0.001768   0.084619  -0.000585  -0.003594  -0.000583  -0.000000
    26  S    0.017294  -0.616016  -0.007034   0.016352  -0.004186  -0.000007
    27  N    0.022460   0.021337  -0.015179   0.000425  -0.007432  -0.000021
    28  C   -0.472595  -7.040732   0.126427   0.768479  -0.023693  -0.002521
    29  H    0.221195   0.246048  -0.034203   0.005810   0.040576  -0.000049
    30  H    0.520317  -0.226152   0.020504  -0.032859  -0.040688   0.000543
    31  H   -0.212051   1.326760  -0.203533  -0.119145   0.078158  -0.002569
    32  H   -0.001863  -0.001061   0.001135   0.011565  -0.001426  -0.000355
    33  H   -0.000004   0.000217  -0.000175   0.001784   0.000034   0.000280
    34  H    0.041177  -0.990322  -0.186136   0.185146   0.022641   0.004115
    35  H   -0.000599  -0.041479  -0.002966   0.000491   0.000075   0.000001
              7          8          9         10         11         12
     1  C   -0.001630  -0.105529   0.627851  -0.034880   0.002823  -0.018006
     2  C    0.000724  -0.219475   0.785372   0.058982   0.193096   0.005647
     3  Se   0.002100  -0.064015   0.461863   0.011109  -0.136222  -0.044899
     4  C   -0.014149   1.627352  -7.851898  -0.025838  -2.756637   0.701467
     5  C   -0.052765  -1.030454  -0.524612  -0.053107   1.701902   0.019745
     6  N    0.314374  -0.085693  -0.035132   0.012259  -0.004874  -0.022023
     7  H    0.401099  -0.073796   0.013122  -0.000697   0.047316   0.008411
     8  C   -0.073796  13.867536  -2.547667  -0.075359  -1.964975  -2.223079
     9  C    0.013122  -2.547667  23.128325   0.021278  -2.598299  -2.350089
    10  O   -0.000697  -0.075359   0.021278   8.111310  -0.070128  -0.228973
    11  C    0.047316  -1.964975  -2.598299  -0.070128  24.088794  -2.274325
    12  C    0.008411  -2.223079  -2.350089  -0.228973  -2.274325  14.636995
    13  C    0.006445   0.210304   0.268807  -0.033593   0.019811  -0.447228
    14  C    0.001545   1.207188   0.388999   0.016698  -0.681103  -2.668344
    15  N   -0.000004  -0.018360  -0.008871   0.000354   0.048207   0.039705
    16  S    0.000040   0.000799  -0.034098  -0.000010   0.139176   0.064380
    17  N    0.001356  -0.125111  -0.012700  -0.001279  -0.064179   0.009761
    18  C    0.027560  -3.489204  -0.719636   0.129229  -4.923616   1.626724
    19  C   -0.036810   0.046069  -1.463901   0.375419  -2.821881  -0.744057
    20  C   -0.003513   0.231916  -1.017653   0.036965  -0.523796  -0.000764
    21  C   -0.000220  -0.018015  -0.201617   0.000521  -0.038483  -0.002658
    22  N   -0.000005  -0.000395   0.008285  -0.000023  -0.000465  -0.000058
    23  C    0.000016  -0.001255  -0.018313  -0.000247   0.000590   0.000036
    24  C    0.000070   0.007500  -0.143700  -0.002357   0.009079   0.002092
    25  N   -0.000001  -0.000130   0.001629   0.000019  -0.000145  -0.000022
    26  S   -0.000015  -0.000343  -0.016857   0.000092  -0.004844   0.000005
    27  N   -0.000023  -0.001237   0.000454   0.000010  -0.004309   0.000265
    28  C   -0.000173   0.031159  -0.863658   0.005515  -0.032386   0.013922
    29  H    0.000176   0.006368  -0.038039  -0.001403   0.020048   0.005137
    30  H   -0.000193  -0.010380   0.060368   0.000726  -0.022922  -0.013239
    31  H    0.000718   0.039933  -0.038342  -0.015364   0.125131   0.048920
    32  H    0.000050  -0.014953  -0.033345  -0.009222  -0.207378   0.546272
    33  H    0.000081  -0.009378   0.006019   0.000462  -0.023725  -0.003496
    34  H   -0.000110  -0.002497  -0.129922  -0.000862  -0.016836  -0.001182
    35  H    0.000000   0.000027  -0.000592  -0.000004  -0.000013  -0.000000
             13         14         15         16         17         18
     1  C    0.007849   0.004131   0.000024  -0.000025  -0.001067   0.008003
     2  C    0.000186  -0.020034   0.000046  -0.000255  -0.000467  -0.038881
     3  Se  -0.003537   0.017328  -0.000318   0.000083   0.000787   0.071412
     4  C   -0.217825  -0.434274  -0.003898  -0.007331  -0.052495  -0.229346
     5  C    0.016375  -0.103681   0.003105   0.001505   0.069411  -0.942992
     6  N    0.020530   0.062908   0.001406  -0.000316   0.014490   0.118700
     7  H    0.006445   0.001545  -0.000004   0.000040   0.001356   0.027560
     8  C    0.210304   1.207188  -0.018360   0.000799  -0.125111  -3.489204
     9  C    0.268807   0.388999  -0.008871  -0.034098  -0.012700  -0.719636
    10  O   -0.033593   0.016698   0.000354  -0.000010  -0.001279   0.129229
    11  C    0.019811  -0.681103   0.048207   0.139176  -0.064179  -4.923616
    12  C   -0.447228  -2.668344   0.039705   0.064380   0.009761   1.626724
    13  C   14.804395  -0.591422   0.409088  -0.408468   0.183534  -4.894369
    14  C   -0.591422  17.262111   0.042265  -0.098122  -0.206606   1.124678
    15  N    0.409088   0.042265   7.148511  -0.110019   0.083076  -0.554194
    16  S   -0.408468  -0.098122  -0.110019  16.232823  -0.017510   0.213281
    17  N    0.183534  -0.206606   0.083076  -0.017510   7.161993   0.200725
    18  C   -4.894369   1.124678  -0.554194   0.213281   0.200725  19.596358
    19  C   -3.905740  -8.139061   0.119804  -0.183225   0.036407  -1.351855
    20  C   -0.023214  -0.007118  -0.000007  -0.000048   0.000188   0.054537
    21  C   -0.001411  -0.000454  -0.000001  -0.000002   0.000022   0.003420
    22  N   -0.000003   0.000002   0.000000  -0.000000  -0.000000   0.000033
    23  C    0.000029  -0.000002   0.000000  -0.000000  -0.000000  -0.000035
    24  C    0.000320  -0.000069   0.000000   0.000000   0.000002  -0.000987
    25  N   -0.000004   0.000000  -0.000000  -0.000000   0.000000   0.000002
    26  S   -0.000286  -0.000041  -0.000000  -0.000001   0.000001   0.000080
    27  N   -0.000163   0.000022  -0.000000  -0.000000  -0.000000   0.000288
    28  C    0.000048  -0.002395   0.000001  -0.000007   0.000052  -0.009388
    29  H    0.001017  -0.000609   0.000003   0.000002   0.000011  -0.004231
    30  H   -0.000836   0.002059  -0.000003  -0.000011  -0.000128   0.007801
    31  H    0.010825  -0.004648   0.000043  -0.000025  -0.000470  -0.014344
    32  H   -0.171769   0.008204  -0.005317   0.004966  -0.000002   0.089968
    33  H    0.329760  -0.093880  -0.021068  -0.000575   0.002619   0.008861
    34  H   -0.000510  -0.000232  -0.000001  -0.000001   0.000061   0.000972
    35  H   -0.000000  -0.000000  -0.000000  -0.000000   0.000000   0.000000
             19         20         21         22         23         24
     1  C   -0.018126  -0.003727   0.316313   0.011571  -0.059695  -0.279668
     2  C   -0.513346  -6.586599  -2.652832   0.025327  -0.550012  -2.326508
     3  Se   0.157257   0.382980  -0.595631   0.038639  -0.030733   0.161641
     4  C   -2.049096   1.087687   0.348468  -0.006443   0.005383   0.161568
     5  C   -0.482217  -0.886405  -0.089847  -0.001183   0.005321   0.046184
     6  N   -0.200125   0.000320   0.005176   0.000030  -0.000005  -0.000163
     7  H   -0.036810  -0.003513  -0.000220  -0.000005   0.000016   0.000070
     8  C    0.046069   0.231916  -0.018015  -0.000395  -0.001255   0.007500
     9  C   -1.463901  -1.017653  -0.201617   0.008285  -0.018313  -0.143700
    10  O    0.375419   0.036965   0.000521  -0.000023  -0.000247  -0.002357
    11  C   -2.821881  -0.523796  -0.038483  -0.000465   0.000590   0.009079
    12  C   -0.744057  -0.000764  -0.002658  -0.000058   0.000036   0.002092
    13  C   -3.905740  -0.023214  -0.001411  -0.000003   0.000029   0.000320
    14  C   -8.139061  -0.007118  -0.000454   0.000002  -0.000002  -0.000069
    15  N    0.119804  -0.000007  -0.000001   0.000000   0.000000   0.000000
    16  S   -0.183225  -0.000048  -0.000002  -0.000000  -0.000000   0.000000
    17  N    0.036407   0.000188   0.000022  -0.000000  -0.000000   0.000002
    18  C   -1.351855   0.054537   0.003420   0.000033  -0.000035  -0.000987
    19  C   24.987541   0.445595   0.026054   0.000534  -0.001988  -0.016427
    20  C    0.445595  20.109856  -5.258733   0.495429  -0.306323  -5.403727
    21  C    0.026054  -5.258733  17.786019  -0.052853  -2.343543  -2.329145
    22  N    0.000534   0.495429  -0.052853   6.729800   0.009126   0.142832
    23  C   -0.001988  -0.306323  -2.343543   0.009126  12.980881   0.810259
    24  C   -0.016427  -5.403727  -2.329145   0.142832   0.810259  23.670677
    25  N    0.000191   0.561591   0.070950   0.008303  -0.745781  -1.178818
    26  S    0.003012   0.082828   0.434277   0.010734  -0.412176  -0.855485
    27  N    0.004114  -0.962871  -0.180980  -0.007499   0.546101   2.499842
    28  C   -0.069082   4.465708  -0.459620   0.026916  -4.319842  -8.659377
    29  H   -0.017956  -0.045091  -0.153820  -0.001913  -0.001241   0.012169
    30  H    0.024218   0.046352   0.125345   0.001090  -0.007068  -0.028306
    31  H   -0.107874  -0.439662   0.088604  -0.003561  -0.017325  -0.198349
    32  H    0.040867   0.003350   0.000038   0.000001   0.000003   0.000074
    33  H    0.068238   0.000031   0.000001  -0.000000   0.000000  -0.000000
    34  H    0.004582  -0.880224   1.617472  -0.201116   0.092588   0.086129
    35  H    0.000003  -0.044403  -0.013862  -0.131084   0.762815  -0.299750
             25         26         27         28         29         30
     1  C   -0.001768   0.017294   0.022460  -0.472595   0.221195   0.520317
     2  C    0.084619  -0.616016   0.021337  -7.040732   0.246048  -0.226152
     3  Se  -0.000585  -0.007034  -0.015179   0.126427  -0.034203   0.020504
     4  C   -0.003594   0.016352   0.000425   0.768479   0.005810  -0.032859
     5  C   -0.000583  -0.004186  -0.007432  -0.023693   0.040576  -0.040688
     6  N   -0.000000  -0.000007  -0.000021  -0.002521  -0.000049   0.000543
     7  H   -0.000001  -0.000015  -0.000023  -0.000173   0.000176  -0.000193
     8  C   -0.000130  -0.000343  -0.001237   0.031159   0.006368  -0.010380
     9  C    0.001629  -0.016857   0.000454  -0.863658  -0.038039   0.060368
    10  O    0.000019   0.000092   0.000010   0.005515  -0.001403   0.000726
    11  C   -0.000145  -0.004844  -0.004309  -0.032386   0.020048  -0.022922
    12  C   -0.000022   0.000005   0.000265   0.013922   0.005137  -0.013239
    13  C   -0.000004  -0.000286  -0.000163   0.000048   0.001017  -0.000836
    14  C    0.000000  -0.000041   0.000022  -0.002395  -0.000609   0.002059
    15  N   -0.000000  -0.000000  -0.000000   0.000001   0.000003  -0.000003
    16  S   -0.000000  -0.000001  -0.000000  -0.000007   0.000002  -0.000011
    17  N    0.000000   0.000001  -0.000000   0.000052   0.000011  -0.000128
    18  C    0.000002   0.000080   0.000288  -0.009388  -0.004231   0.007801
    19  C    0.000191   0.003012   0.004114  -0.069082  -0.017956   0.024218
    20  C    0.561591   0.082828  -0.962871   4.465708  -0.045091   0.046352
    21  C    0.070950   0.434277  -0.180980  -0.459620  -0.153820   0.125345
    22  N    0.008303   0.010734  -0.007499   0.026916  -0.001913   0.001090
    23  C   -0.745781  -0.412176   0.546101  -4.319842  -0.001241  -0.007068
    24  C   -1.178818  -0.855485   2.499842  -8.659377   0.012169  -0.028306
    25  N    7.879370  -0.091653  -0.635208   1.413565   0.002485  -0.002400
    26  S   -0.091653  16.429946  -0.437651   0.443012  -0.007775   0.002869
    27  N   -0.635208  -0.437651   8.318887  -1.884935  -0.005389   0.017393
    28  C    1.413565   0.443012  -1.884935  23.028862   0.040293  -0.067315
    29  H    0.002485  -0.007775  -0.005389   0.040293   0.608974  -0.115844
    30  H   -0.002400   0.002869   0.017393  -0.067315  -0.115844   0.598901
    31  H   -0.005497  -0.017169   0.017196  -0.443767   0.038414  -0.022880
    32  H    0.000002   0.000068  -0.000033   0.001230  -0.000004  -0.000548
    33  H   -0.000000   0.000001   0.000001   0.000008  -0.000004   0.000038
    34  H   -0.004675   0.001473  -0.000759  -0.024834  -0.011262   0.004483
    35  H   -0.003346  -0.016165   0.007117  -0.054011  -0.000341  -0.000034
             31         32         33         34         35
     1  C   -0.212051  -0.001863  -0.000004   0.041177  -0.000599
     2  C    1.326760  -0.001061   0.000217  -0.990322  -0.041479
     3  Se  -0.203533   0.001135  -0.000175  -0.186136  -0.002966
     4  C   -0.119145   0.011565   0.001784   0.185146   0.000491
     5  C    0.078158  -0.001426   0.000034   0.022641   0.000075
     6  N   -0.002569  -0.000355   0.000280   0.004115   0.000001
     7  H    0.000718   0.000050   0.000081  -0.000110   0.000000
     8  C    0.039933  -0.014953  -0.009378  -0.002497   0.000027
     9  C   -0.038342  -0.033345   0.006019  -0.129922  -0.000592
    10  O   -0.015364  -0.009222   0.000462  -0.000862  -0.000004
    11  C    0.125131  -0.207378  -0.023725  -0.016836  -0.000013
    12  C    0.048920   0.546272  -0.003496  -0.001182  -0.000000
    13  C    0.010825  -0.171769   0.329760  -0.000510  -0.000000
    14  C   -0.004648   0.008204  -0.093880  -0.000232  -0.000000
    15  N    0.000043  -0.005317  -0.021068  -0.000001  -0.000000
    16  S   -0.000025   0.004966  -0.000575  -0.000001  -0.000000
    17  N   -0.000470  -0.000002   0.002619   0.000061   0.000000
    18  C   -0.014344   0.089968   0.008861   0.000972   0.000000
    19  C   -0.107874   0.040867   0.068238   0.004582   0.000003
    20  C   -0.439662   0.003350   0.000031  -0.880224  -0.044403
    21  C    0.088604   0.000038   0.000001   1.617472  -0.013862
    22  N   -0.003561   0.000001  -0.000000  -0.201116  -0.131084
    23  C   -0.017325   0.000003   0.000000   0.092588   0.762815
    24  C   -0.198349   0.000074  -0.000000   0.086129  -0.299750
    25  N   -0.005497   0.000002  -0.000000  -0.004675  -0.003346
    26  S   -0.017169   0.000068   0.000001   0.001473  -0.016165
    27  N    0.017196  -0.000033   0.000001  -0.000759   0.007117
    28  C   -0.443767   0.001230   0.000008  -0.024834  -0.054011
    29  H    0.038414  -0.000004  -0.000004  -0.011262  -0.000341
    30  H   -0.022880  -0.000548   0.000038   0.004483  -0.000034
    31  H    0.840916  -0.001463   0.000157  -0.034934  -0.001579
    32  H   -0.001463   0.613267  -0.027337   0.000089   0.000000
    33  H    0.000157  -0.027337   0.640017  -0.000005   0.000000
    34  H   -0.034934   0.000089  -0.000005   1.196796   0.012884
    35  H   -0.001579   0.000000   0.000000   0.012884   0.650934
 Mulliken atomic charges:
              1
     1  C   -0.276178
     2  C   -0.752406
     3  Se   0.338615
     4  C   -0.452642
     5  C   -0.419516
     6  N   -0.412791
     7  H    0.358901
     8  C    0.805150
     9  C    0.876567
    10  O   -0.227599
    11  C   -1.224430
    12  C   -0.687040
    13  C    0.411055
    14  C   -1.086045
    15  N   -0.173579
    16  S    0.202993
    17  N   -0.282481
    18  C   -0.109553
    19  C    1.782859
    20  C    0.388547
    21  C   -0.428950
    22  N   -0.102048
    23  C   -0.397564
    24  C    0.112399
    25  N   -0.348515
    26  S    1.045663
    27  N   -0.312224
    28  C    0.065129
    29  H    0.190448
    30  H    0.158799
    31  H    0.288776
    32  H    0.154926
    33  H    0.121038
    34  H    0.215814
    35  H    0.175882
 Sum of Mulliken atomic charges =  -0.00000
 Mulliken charges with hydrogens summed into heavy atoms:
              1
     1  C    0.073069
     2  C   -0.463630
     3  Se   0.338615
     4  C   -0.452642
     5  C   -0.419516
     6  N   -0.053890
     8  C    0.805150
     9  C    0.876567
    10  O   -0.227599
    11  C   -1.224430
    12  C   -0.532114
    13  C    0.532092
    14  C   -1.086045
    15  N   -0.173579
    16  S    0.202993
    17  N   -0.282481
    18  C   -0.109553
    19  C    1.782859
    20  C    0.388547
    21  C   -0.213137
    22  N   -0.102048
    23  C   -0.221682
    24  C    0.112399
    25  N   -0.348515
    26  S    1.045663
    27  N   -0.312224
    28  C    0.065129
 Sum of Mulliken charges with hydrogens summed into heavy atoms =  -0.00000
 Electronic spatial extent (au):  <R**2>=          19285.5201
 Charge=             -0.0000 electrons
 Dipole moment (field-independent basis, Debye):
    X=             -5.4048    Y=              6.3019    Z=              0.4262  Tot=              8.3131
 Quadrupole moment (field-independent basis, Debye-Ang):
   XX=           -203.1979   YY=           -187.3010   ZZ=           -177.4640
   XY=              5.9860   XZ=             -3.6816   YZ=              2.3637
 Traceless Quadrupole moment (field-independent basis, Debye-Ang):
   XX=            -13.8769   YY=              2.0199   ZZ=             11.8570
   XY=              5.9860   XZ=             -3.6816   YZ=              2.3637
 Octapole moment (field-independent basis, Debye-Ang**2):
  XXX=           -393.3021  YYY=             56.2816  ZZZ=             -2.3379  XYY=             13.7261
  XXY=            118.0606  XXZ=            -15.8570  XZZ=            -41.0776  YZZ=             -0.9928
  YYZ=             -5.2050  XYZ=             -1.1873
 Hexadecapole moment (field-independent basis, Debye-Ang**3):
 XXXX=         -25323.4702 YYYY=          -3600.1964 ZZZZ=           -332.7894 XXXY=            339.5196
 XXXZ=           -133.4003 YYYX=             84.0872 YYYZ=             27.3796 ZZZX=              2.6152
 ZZZY=             21.7419 XXYY=          -4354.8072 XXZZ=          -3795.3978 YYZZ=           -642.5320
 XXYZ=             35.0725 YYXZ=             14.6945 ZZXY=            -28.5521
 N-N= 2.963470838822D+03 E-N=-1.599769259312D+04  KE= 4.231392476122D+03
 Calling FoFJK, ICntrl=      2127 FMM=F ISym2X=0 I1Cent= 0 IOpClX= 0 NMat=1 NMatS=1 NMatT=0.
 ***** Axes restored to original set *****
 -------------------------------------------------------------------
 Center     Atomic                   Forces (Hartrees/Bohr)
 Number     Number              X              Y              Z
 -------------------------------------------------------------------
      1        6           0.026014942    0.008822306   -0.036245233
      2        6          -0.052454242    0.020428884    0.025058785
      3       34          -0.006875379   -0.038681017    0.019384688
      4        6           0.003208705    0.071303575   -0.021850857
      5        6           0.001738324   -0.052330639    0.008044821
      6        7           0.003089449    0.020369824   -0.011922553
      7        1          -0.000181709   -0.007587727    0.004972055
      8        6          -0.018389585    0.022039390    0.045360716
      9        6          -0.021517568    0.071857709    0.033005144
     10        8          -0.006676057   -0.064136711    0.053856640
     11        6           0.030848978   -0.040422816   -0.091183440
     12        6           0.002624751   -0.007187756   -0.007659260
     13        6           0.015813467    0.005468878   -0.053512244
     14        6          -0.015234232    0.068725645    0.021498022
     15        7          -0.021614658   -0.028460882    0.043941406
     16       16          -0.000110495   -0.016332465    0.025408494
     17        7           0.000910995    0.006842422   -0.001254577
     18        6           0.023512618   -0.096041075   -0.014883349
     19        6           0.021375514   -0.001109406   -0.067641783
     20        6          -0.016654820    0.007459942    0.034166595
     21        6           0.010875344    0.042685620   -0.049053859
     22        7           0.005122747    0.009413126   -0.018933047
     23        6          -0.014749413   -0.025391577    0.054523985
     24        6           0.009854117   -0.059970921    0.003006195
     25        7           0.152705584   -0.114689644   -0.395793619
     26       16          -0.111112805    0.547409085    0.084359687
     27        7          -0.061414556   -0.334101305    0.325923551
     28        6           0.015208074   -0.034640014   -0.027350583
     29        1           0.007280924   -0.036206320   -0.018516507
     30        1           0.005248414    0.016046694    0.043608731
     31        1           0.006429911    0.007548088    0.013200679
     32        1          -0.002611471    0.042814198   -0.006602537
     33        1          -0.010703293    0.025863408    0.024259067
[...]
 1,-0.08402642,0.00017653,0.00573231,-0.00275716,-0.01825336,-0.0140087
 3,-0.00374960,0.00275625,0.00396723,0.00119140,-0.00190636,-0.00767705
 ,-0.00031018,0.00034859,0.00194659,0.00077624,0.00034657,-0.00012083,-
 0.00014025,-0.00120741,0.00071560,0.00119646,0.00047047,0.00021678,-0.
 00029034,-0.00003015,0.00040107,0.00044044,0.00083347,0.00073906,0.000
 33386,0.00003169,-0.00015993,-0.00062678,-0.00028472,-0.00027384,0.000
 27635,0.00010720,0.00026601,-0.00003474,-0.00013199,-0.00011469,0.0000
 8348,0.00002304,0.00000446,-0.00001150,0.00013629,0.00019429,0.0000321
 6,-0.00010848,-0.00016992,0.00011277,-0.00005312,-0.00054870,-0.000812
 51,-0.00030670,-0.00108308,0.00240338,0.00044397,-0.00028857,-0.000954
 25,-0.00008376,-0.00016513,0.00021942,0.00007766,0.00032585,-0.0000921
 5,-0.00009217,0.00001439,-0.00009727,0.00001726,-0.00001887,-0.0000750
 0,-0.00016766,0.00021495,0.00008925,0.00016505,-0.00020465,0.00000127,
 0.00033870,0.00039133,0.00024842,0.01298922,0.01277823,-0.00427231,-0.
 08866672,-0.06818787,0.09098692,0.00219029,0.00119059,-0.00158093,-0.1
 8565969,0.07010781,0.14319470,-0.00934669,0.00720865,-0.00103471,0.000
 29132,-0.00271062,0.00108380,0.00145329,0.00059385,-0.00076184,-0.0004
 5818,0.00064239,0.00074410,0.00005379,0.00004116,0.00001873,-0.0004856
 3,-0.00045950,-0.00035517,0.00054684,0.00006576,-0.00035883,0.00004950
 ,-0.00001478,-0.00030428,-0.00006169,-0.00032843,0.00046920,-0.0000808
 4,0.00002339,-0.00005807,0.00005580,0.00010782,0.00002965,-0.00014035,
 -0.00001436,0.00009647,0.00013868,0.00003472,-0.00026716,-0.00007238,0
 .00001914,0.00023147,-0.00003899,-0.00005936,-0.00002125,0.00009484,0.
 00000967,-0.00004725,0.00001356,0.00029668,0.00008739,-0.00163873,0.00
 585605,0.00563384,0.00075334,-0.00171730,0.00213564,-0.00021132,0.0011
 0265,-0.00011314,0.00012615,-0.00036964,0.00003566,-0.00005180,0.00003
 576,0.00023940,0.00023017,0.00033262,-0.00029027,0.00008635,-0.0004829
 3,-0.00029736,0.00024468,0.00061204,0.00030655,-0.00130558,-0.00008791
 ,-0.00107325,0.00187943,-0.00105710,0.00055250,-0.00047195,0.00027134,
 -0.00078906,0.19188920,0.02192070,-0.01164723,-0.01984913,0.07618490,-
 0.09095526,-0.05806836,-0.00141242,0.00112523,-0.00143781,0.00011438,-
 0.00059812,0.00026161,-0.00011626,0.00023899,-0.00012243,-0.00000696,0
 .00002061,0.00003138,-0.00000342,-0.00000128,0.00000102,0.00005708,0.0
 0013191,-0.00024479,-0.00003146,0.00005212,0.00040730,0.00005510,-0.00
 015009,0.00001752,-0.00029491,0.00003956,-0.00031554,0.00006828,-0.000
 01585,0.00019519,0.00005332,0.00004773,-0.00008162,0.00001773,-0.00007
 086,-0.00000637,0.00000903,0.00001373,0.00001045,0.00000262,-0.0000035
 1,-0.00003162,-0.00001958,-0.00003029,0.00001281,0.00008972,-0.0000089
 9,-0.00001320,-0.00006225,0.00014195,0.00016382,-0.01490458,0.01063553
 ,0.01275751,-0.00088103,-0.00360308,0.00190295,-0.00007578,0.00042390,
 0.00117223,-0.00021981,0.00013938,0.00024409,0.00027142,0.00016554,0.0
 0028550,0.00021781,0.00054192,-0.00054601,0.00022342,-0.00093972,-0.00
 031589,0.00034812,-0.00025462,0.00107549,-0.00108343,0.00022714,-0.000
 16507,0.00149225,-0.00445463,0.00225813,-0.00051210,0.00115532,-0.0006
 7551,-0.08122664,0.09758722,-0.00061957,0.00120963,0.00044349,0.139204
 75,-0.06454040,-0.15421487,-0.00953053,0.00723185,-0.00024058,0.000984
 44,-0.00173339,0.00136204,0.00039762,-0.00062343,-0.00011809,-0.000143
 13,0.00035062,0.00001900,0.00002150,0.00001195,-0.00002102,-0.00011658
 ,0.00006504,-0.00022889,0.00024249,0.00033233,-0.00032210,-0.00009880,
 -0.00001250,-0.00021125,0.00037045,-0.00044919,0.00036495,-0.00016206,
 0.00023918,-0.00014398,0.00011085,-0.00006063,-0.00000341,-0.00023171,
 0.00009696,-0.00001957,0.00003584,0.00000554,-0.00009215,-0.00000607,-
 0.00000732,0.00008728,0.00000752,-0.00000007,-0.00001412,0.00015263,-0
 .00010312,0.00008341,-0.00021327,0.00016876,-0.00016771,0.01685481,-0.
 00504553,-0.01108395,0.00134705,0.00317477,0.00248550,0.00020777,0.000
 84075,-0.00165422,0.00018593,-0.00082414,-0.00011411,0.00000955,0.0000
 0666,-0.00036443,-0.00002992,-0.00013209,0.00024521,-0.00019277,0.0001
 0494,0.00010744,-0.00012363,-0.00017726,0.00085752,-0.00103606,-0.0018
 0553,-0.00181244,0.00063419,0.00027172,0.00145775,-0.00077286,0.000259
 99,-0.00042673,-0.14747562,0.06120536,0.16361529,-0.00002817,0.0000114
 7,-0.00000728,0.00003098,0.00006869,-0.00007493,-0.00008570,-0.0000235
 4,0.00007400,0.00003600,0.00010981,-0.00004536,0.00002811,-0.00020006,
 -0.00000408,-0.00022473,0.00030752,-0.00019596,0.00001512,0.00000006,0
 .00000409,0.00023332,-0.00017974,0.00007289,-0.00027787,-0.00009632,-0
 .00024581,-0.00076113,0.00118854,-0.00054015,-0.00029351,-0.00404562,0
 .00239462,-0.16059143,-0.14654138,0.04410632,-0.00344156,-0.01033718,0
 .00186865,0.00429561,-0.00214798,0.00405408,0.00018219,-0.00073946,0.0
 0007323,0.00000571,0.00001785,-0.00016776,-0.00031962,0.00019783,-0.00
 008616,-0.00035862,0.00045302,-0.00046940,0.00214567,-0.00092576,0.000
 56481,-0.00005169,-0.00004976,0.00004151,0.00000408,0.00001009,-0.0000
 2200,-0.00000738,-0.00000190,0.00001914,0.00001054,0.00001528,-0.00004
 118,0.00001783,0.00001305,0.00003513,0.00000547,-0.00000093,-0.0000236
 3,-0.00001911,0.00002633,-0.00002212,0.00000716,-0.00000972,0.00002634
 ,0.00000731,-0.00003043,0.00000801,0.00001714,0.00000331,0.00000729,0.
 00001433,0.00000017,0.00001520,0.00001183,-0.00003023,0.00000590,0.162
 19166,0.00002605,0.00006634,0.00004524,-0.00005266,0.00008849,-0.00017
 989,0.00007994,-0.00009703,0.00007862,0.00027428,0.00013238,0.00013146
 ,-0.00024483,-0.00007577,-0.00009324,0.00044284,-0.00000997,-0.0000526
 8,0.00000180,0.00001097,0.00000198,-0.00063997,-0.00046936,0.00019182,
 -0.00008244,-0.00060869,-0.00051465,0.00155988,0.00104553,0.00127115,-
 0.01461158,-0.01243950,0.00647139,-0.14668648,-0.20950136,0.03920085,-
 0.00044650,0.00376410,-0.00087286,-0.00217184,0.00349501,-0.00204168,-
 0.00050522,0.00014226,0.00011820,0.00011821,-0.00000469,-0.00013272,0.
 00017807,-0.00003751,0.00038084,0.00082347,-0.00001025,-0.00058338,-0.
 00074797,0.00021588,-0.00298001,-0.00012122,-0.00006943,0.00006035,0.0
 0006168,0.00001360,-0.00002917,-0.00000584,-0.00005664,0.00001666,-0.0
 0001250,0.00005218,-0.00001998,0.00004331,-0.00001833,0.00002585,-0.00
 000917,0.00000866,-0.00001501,0.00000651,0.00002402,0.00003996,-0.0000
 2132,-0.00001879,-0.00002669,0.00001191,-0.00000498,0.00000440,-0.0000
 2017,-0.00000817,-0.00000150,-0.00000639,-0.00000230,-0.00001259,0.000
 00018,0.00002326,-0.00002887,0.16018321,0.21558608,-0.00001059,0.00001
 144,-0.00000099,-0.00004741,0.00008273,-0.00013312,0.00008565,-0.00006
 956,0.00003296,0.00015005,0.00035707,0.00008856,-0.00004631,-0.0001253
 3,0.00010158,0.00002500,0.00016764,-0.00026901,-0.00000416,-0.00000982
 ,-0.00000287,-0.00075872,-0.00094918,0.00046773,-0.00016133,-0.0003040
 7,-0.00048533,0.00006202,0.00206266,0.00128840,-0.01503229,-0.01746300
 ,0.00872618,0.04403151,0.03919003,-0.06730867,0.01796032,0.02110655,-0
 .00070868,0.00394057,-0.00214605,-0.00450842,0.00048093,0.00066710,0.0
 0076017,-0.00000918,0.00009234,0.00008407,-0.00013863,0.00032807,0.000
 31943,0.00029566,0.00035292,-0.00080017,0.00089340,-0.00243638,-0.0029
 8269,-0.00001774,-0.00004423,0.00008820,0.00002930,-0.00000012,-0.0000
 7153,-0.00001007,-0.00003211,0.00002901,0.00001135,0.00002175,-0.00000
 890,-0.00000975,0.00001535,-0.00002150,0.00001890,-0.00001835,-0.00000
 158,-0.00004107,0.00005829,-0.00001793,0.00006135,-0.00002423,0.000047
 63,-0.00005995,0.00000843,-0.00001760,0.00001132,0.00000635,-0.0000013
 7,0.00000857,-0.00000535,0.00001262,0.00000731,-0.00002361,0.00001246,
 -0.04968232,-0.04182413,0.06481928,0.00000646,0.00003005,0.00001840,-0
 .00000093,-0.00002595,-0.00000647,0.00009381,0.00000093,-0.00004185,-0
 .00032620,0.00031366,-0.00011235,0.00016468,-0.00001598,0.00017208,-0.
 00013114,0.00007972,-0.00004456,-0.00000852,0.00000059,0.00001437,-0.0
 0039642,0.00029457,0.00013757,0.00008575,0.00003897,-0.00000619,0.0010
 7206,0.00007615,0.00072532,0.00272388,-0.00355230,0.00390557,0.0063143
 9,0.01034350,0.01051842,-0.05063769,-0.04594194,-0.02968331,0.00128322
 ,-0.01119534,-0.01668615,-0.00073015,0.00067494,-0.00097872,-0.0003970
 2,0.00042297,0.00113178,-0.00080485,-0.00089590,0.00005103,0.00104759,
 -0.00193309,0.00318929,-0.00035306,-0.00016525,-0.00042325,-0.00002137
 ,0.00001602,-0.00002253,0.00001221,0.00000063,0.00000390,-0.00000789,-
 0.00000928,-0.00000070,-0.00000326,0.00000049,0.00000284,-0.00000386,-
 0.00000247,0.00000649,-0.00000713,0.00000074,0.00000616,0.00001410,0.0
 0000780,-0.00001085,-0.00001855,-0.00000897,-0.00000604,0.00002487,-0.
 00000522,0.00002065,-0.00000752,-0.00000581,0.00000128,-0.00000930,-0.
 00001064,-0.00000678,0.00000139,0.00000847,-0.00000601,-0.00278971,0.0
 0257801,-0.00204288,0.04380625,-0.00001425,-0.00004524,0.00000194,0.00
 004640,-0.00001048,0.00004644,0.00000709,0.00007572,-0.00011388,0.0002
 0925,-0.00008678,0.00022405,-0.00012534,0.00005171,0.00001661,0.000080
 27,-0.00004544,0.00001415,-0.00000355,-0.00000222,0.00001742,0.0001002
 9,-0.00011892,0.00052027,0.00022675,0.00031324,-0.00005895,-0.00039613
 ,0.00058143,-0.00035986,-0.00332460,0.00285383,0.00039050,0.00039666,0
 .00601603,0.00340701,-0.04501379,-0.18291841,-0.14805019,-0.00111707,-
 0.01096757,-0.01860977,0.00096009,-0.00058583,-0.00032026,-0.00015084,
 0.00040079,0.00129920,-0.00076324,-0.00120699,-0.00007105,-0.00282990,
 0.00138351,0.00218537,0.00007027,-0.00054289,-0.00031413,0.00005863,0.
 00004314,-0.00000616,-0.00002353,-0.00000276,0.00000456,0.00000317,-0.
 00000524,-0.00000871,-0.00000990,-0.00000959,0.00001360,-0.00000030,-0
 .00000792,0.00001302,-0.00000960,-0.00000634,0.00001320,0.00000632,-0.
 00000866,-0.00001396,0.00001471,0.00000750,0.00000472,-0.00002806,0.00
 000708,-0.00001001,0.00000467,0.00000347,0.00000199,0.00000046,0.00000
 736,0.00000081,-0.00001078,-0.00000328,0.00000404,0.00275255,-0.001232
 23,0.00094553,0.04888109,0.18606226,-0.00000489,0.00001154,-0.00000035
 ,0.00000615,-0.00001132,-0.00002461,-0.00002946,0.00000054,0.00004594,
 -0.00016088,0.00002145,-0.00004251,0.00000530,-0.00008715,0.00003092,-
 0.00005166,-0.00004255,-0.00011435,-0.00000335,0.00000194,-0.00000591,
 -0.00021605,0.00009340,0.00005483,0.00031808,0.00043148,-0.00004314,-0
 .00007638,-0.00152053,-0.00094763,0.00443620,0.00104131,-0.00095974,-0
 .00578272,-0.01887071,-0.01424959,-0.02828029,-0.14605011,-0.20549116,
 -0.00013651,0.00388851,0.00865255,-0.00058355,0.00024447,-0.00002103,0
 .00019805,0.00002188,-0.00057321,0.00029612,0.00024223,-0.00039123,0.0
 0167062,0.00025750,0.00059489,-0.00003807,0.00014920,-0.00013159,0.000
 02667,-0.00001040,0.00001017,-0.00000881,-0.00000178,-0.00000599,-0.00
 000147,0.00001447,0.00000363,0.00000760,-0.00000636,-0.00001259,0.0000
 0968,0.00000700,0.00000617,0.00001045,0.00000156,-0.00001228,-0.000002
 55,-0.00000172,0.00000148,0.00000824,-0.00000063,0.00001636,-0.0000416
 4,0.00000009,-0.00001659,-0.00000250,0.00000238,-0.00000280,0.00000208
 ,-0.00001047,0.00001257,0.00000316,-0.00000255,0.00000008,-0.00174867,
 0.00136758,0.00046182,0.03017401,0.15881439,0.21315080,-0.00013944,-0.
 00010098,0.00008183,-0.00166242,0.00071155,-0.00226524,0.00023317,0.00
 016516,0.00069066,0.00015099,0.00012048,-0.00041187,-0.00014468,-0.000
 24048,0.00006638,-0.00004886,-0.00003302,-0.00013114,0.00000361,-0.000
 00682,0.00000078,0.00010765,0.00007348,-0.00000299,0.00001538,-0.00001
 317,0.00009282,-0.00000775,-0.00000532,0.00001742,-0.00010170,0.000058
 61,-0.00016813,0.00005884,0.00001982,0.00006535,-0.00000130,-0.0000035
 9,-0.00005699,0.00001878,-0.00003042,-0.00000086,-0.00001265,0.0000036
 7,0.00005145,0.00001170,-0.00000944,-0.00005017,0.00000119,0.00000160,
 0.00000089,-0.00007941,0.00005626,-0.00000881,0.00010671,-0.00008390,0
 .00006952,0.00319526,0.01598073,0.00494475,-0.05319330,0.04803101,0.01
 846678,0.00086148,-0.01678864,-0.00205167,0.00411525,-0.00271152,0.003
 67457,-0.00083036,-0.00013495,0.00039121,-0.00003417,-0.00011752,-0.00
 048480,-0.00099354,0.00017783,-0.00033391,0.00068151,0.00102112,0.0004
 6468,0.00335720,-0.00001728,0.00573497,0.00027364,-0.00061739,0.000588
 23,0.00001103,-0.00009599,-0.00018712,-0.00012877,-0.00014412,-0.00014
 945,-0.00000681,0.00000057,0.00000125,0.00000278,-0.00000002,-0.000001
 31,0.04364000,-0.00029489,-0.00061090,0.00074001,-0.00014183,-0.000846
 83,0.00061469,-0.00004545,0.00014228,-0.00029377,0.00000820,0.00007330
 ,-0.00000153,-0.00006543,0.00000841,0.00001950,0.00000194,-0.00001464,
 0.00003821,0.00000510,-0.00000390,0.00000561,-0.00002750,-0.00001492,0
 .00005420,0.00003686,-0.00005024,-0.00003679,0.00000401,0.00001150,-0.
 00000507,0.00001576,0.00005231,0.00001727,0.00000528,-0.00002575,-0.00
 003803,-0.00002214,-0.00000549,0.00002260,0.00001265,0.00001029,0.0000
 0190,-0.00000680,-0.00001039,-0.00000038,0.00000029,0.00000237,0.00000
 711,0.00000557,0.00000993,0.00000169,-0.00000050,-0.00000492,-0.000006
 79,-0.00002093,-0.00002438,-0.00003787,0.00131277,-0.00446132,-0.00156
 364,0.04774537,-0.31029644,-0.06608534,-0.00234269,-0.02508549,0.00505
 268,-0.00122879,0.00012071,0.00198558,-0.00008353,0.00016530,0.0000694
 6,0.00001287,-0.00004974,-0.00004366,0.00005971,0.00001091,-0.00019640
 ,0.00012653,-0.00028524,-0.00007974,0.00053492,0.00113601,-0.00040760,
 -0.00074148,-0.00014253,0.00151908,-0.00014732,0.00023576,0.00008712,0
 .00001873,0.00009383,-0.00011484,0.00000131,-0.00000297,0.00000134,-0.
 00000029,-0.00000015,0.00000228,-0.04489557,0.34045837,0.00000854,-0.0
 0046986,-0.00109478,-0.00168612,-0.00025122,-0.00033765,0.00008677,0.0
 0019993,-0.00008473,0.00006833,0.00021530,-0.00005294,-0.00006473,-0.0
 0010559,0.00005653,-0.00006891,-0.00000883,0.00009000,0.00001753,0.000
 00462,0.00001152,-0.00009353,-0.00000203,0.00014899,0.00003098,-0.0001
 2136,-0.00011373,-0.00000201,0.00000508,0.00000340,0.00001899,0.000126
 05,-0.00001622,0.00000777,-0.00005744,-0.00006446,-0.00003657,0.000002
 27,0.00004688,0.00002032,0.00000913,0.00002563,0.00001825,-0.00001094,
 -0.00004740,-0.00001709,0.00000874,0.00005131,0.00001251,0.00001535,-0
 .00000167,-0.00003147,0.00000906,-0.00001438,0.00002242,-0.00009660,-0
 .00004622,0.00440384,-0.02394684,0.00049984,0.01925622,-0.06836702,-0.
 06657611,-0.00257174,0.02809666,0.00206945,0.00388228,0.00392942,0.000
 06214,0.00000870,0.00026749,-0.00071111,-0.00034300,0.00000091,0.00016
 846,-0.00046054,-0.00028901,-0.00051115,0.00057713,-0.00132912,0.00026
 148,0.00567100,0.00076520,-0.00143270,0.00048657,0.00158093,-0.0007066
 9,-0.00000034,0.00029889,0.00024128,-0.00003478,0.00003994,0.00001399,
 -0.00000014,-0.00000168,-0.00000088,-0.00000115,-0.00000185,0.00000281
 ,-0.02930295,0.05882822,0.06775457,0.00000570,-0.00011100,0.00001763,-
 0.00129240,0.00008023,-0.00084616,0.00008273,0.00001130,-0.00000768,0.
 00018672,0.00025504,-0.00008673,-0.00022076,-0.00009685,0.00005795,0.0
 0004609,-0.00009509,-0.00012623,-0.00000175,-0.00001159,-0.00000220,0.
 00006212,0.00011165,0.00002346,-0.00004482,0.00001996,0.00002625,-0.00
 002784,-0.00000363,0.00006314,0.00007015,-0.00000784,-0.00008535,0.000
 00693,0.00003840,0.00000896,-0.00000186,-0.00003075,-0.00002208,0.0000
 0625,0.00000915,-0.00002574,-0.00003356,-0.00000642,0.00006157,0.00001
 943,-0.00000787,-0.00005430,0.00000533,0.00001173,0.00000631,0.0000022
 4,-0.00001045,0.00001923,-0.00004183,-0.00004164,-0.00001992,-0.000658
 72,0.00030884,-0.00010409,0.00867917,0.00223020,0.00437572,0.00073625,
 0.00188819,-0.00954658,-0.09604847,-0.06962696,0.09276860,0.00030874,-
 0.01041927,0.01202492,-0.00030039,-0.00030802,-0.00171205,-0.00078144,
 -0.00012815,0.00016727,-0.00054889,-0.00011150,0.00082219,0.00240061,0
 .00228204,0.00274243,-0.00000117,-0.00000509,0.00001185,0.00002547,-0.
 00000396,-0.00001010,0.00004213,-0.00010938,0.00013475,-0.00000302,-0.
 00000382,-0.00000204,0.00000115,0.00000224,-0.00000165,0.00053900,0.00
 015728,0.00011691,0.08678071,0.00002025,-0.00002809,-0.00002607,-0.000
 25320,0.00019150,0.00011976,0.00001092,0.00001744,-0.00005648,-0.00004
 908,-0.00001691,0.00001594,0.00004279,0.00002923,-0.00001663,-0.000010
 38,0.00001750,0.00004344,0.00000166,0.00000179,0.00000229,-0.00003720,
 -0.00001942,0.00000878,0.00001338,-0.00002751,-0.00001754,0.00000407,-
 0.00000068,-0.00001261,-0.00000720,0.00002064,0.00001708,-0.00000830,-
 0.00001582,-0.00001078,-0.00000241,0.00000977,0.00001485,0.00000318,-0
 .00000072,0.00000736,0.00001214,0.00000029,-0.00002677,-0.00000783,0.0
 0000543,0.00002660,-0.00000034,0.00000006,-0.00000087,0.00000821,-0.00
 000504,-0.00000263,0.00000363,-0.00000689,-0.00001106,-0.00001899,-0.0
 0071553,0.00020673,0.00089585,-0.00278784,-0.00020130,-0.01181844,-0.0
 3063399,0.01990645,-0.06889187,-0.14865163,0.11320309,0.00574001,0.010
 76193,-0.00892892,-0.00079747,0.00125353,0.00102397,-0.00022406,0.0003
 2226,0.00024936,0.00069414,0.00038570,-0.00116213,0.00135230,-0.001879
 28,-0.00152396,-0.00000258,0.00006229,-0.00000984,-0.00000181,0.000026
 25,0.00001307,-0.00003165,-0.00006807,0.00007822,-0.00000010,-0.000000
 78,-0.00000006,-0.00000087,-0.00000015,0.00000110,-0.00037173,-0.00059
 503,0.00065621,0.07373302,0.17234778,-0.00001597,0.00001967,-0.0000127
 1,-0.00088615,0.00004421,-0.00032123,0.00005147,0.00007763,-0.00006955
 ,-0.00003639,-0.00006843,-0.00009314,0.00003477,0.00002705,-0.00003693
 ,-0.00000271,0.00002628,0.00001322,0.00000375,0.00000217,0.00000060,0.
 00001916,-0.00001516,-0.00003967,-0.00004553,0.00004449,0.00006025,0.0
 0000336,-0.00000810,-0.00002430,-0.00002344,-0.00005615,0.00002515,-0.
 00001121,0.00001578,0.00002525,0.00002379,0.00001961,-0.00001134,-0.00
 002369,-0.00001671,0.00001519,0.00002398,0.00000937,-0.00003947,-0.000
 01128,0.00000354,0.00002907,-0.00000758,-0.00001184,-0.00000403,0.0000
 0189,0.00000385,-0.00000787,0.00001785,0.00004815,0.00003048,-0.000073
 28,-0.00057491,-0.00058117,0.00419560,-0.00224026,0.00545390,-0.008041
 87,-0.00123867,0.00682924,0.09250903,0.11467404,-0.18766543,0.01082108
 ,0.01544915,-0.00992571,-0.00167537,0.00033175,0.00109413,0.00014039,0
 .00013637,-0.00095015,0.00068145,0.00005847,-0.00110062,0.00291479,-0.
 00289755,0.00025564,-0.00000531,0.00000987,0.00000762,0.00001007,0.000
 00851,0.00001889,-0.00000663,-0.00014280,0.00009822,0.00000575,0.00000
 438,0.00000114,0.00000063,-0.00000003,0.00000127,0.00020384,-0.0001570
 9,0.00030452,-0.10079625,-0.12358662,0.18661953\\-0.00000422,-0.000009
 88,-0.00002191,-0.00000530,0.00000218,0.00002348,0.00001236,0.00000055
 ,0.00000937,0.00000089,0.00000758,-0.00001764,-0.00000824,-0.00000757,
 0.00000525,-0.00001570,0.00001229,-0.00001214,-0.00000453,0.00000013,-
 0.00000237,0.00000920,-0.00000425,0.00000413,-0.00000359,-0.00000588,0
 .00000813,0.00000380,-0.00000801,-0.00002464,-0.00000588,0.00000257,0.
 00002033,-0.00000040,-0.00000463,-0.00000236,-0.00000473,0.00000042,0.
 00001163,-0.00001152,-0.00000875,-0.00000575,0.00001051,0.00000387,0.0
 0000402,0.00000176,-0.00000167,-0.00000802,-0.00001545,0.00000208,0.00
 000396,0.00001656,0.00000423,-0.00000764,-0.00000954,0.00000047,0.0000
 1720,0.00001090,0.00002739,-0.00002123,-0.00001479,-0.00000638,0.00000
 376,0.00000415,-0.00000109,0.00000295,0.00001541,0.00001018,0.00001227
 ,0.00000158,-0.00001750,-0.00001273,0.00003077,0.00001273,-0.00002784,
 -0.00001824,-0.00000962,0.00004567,-0.00000422,0.00002733,-0.00000347,
 0.00001578,-0.00002913,-0.00000156,-0.00000346,0.00000552,-0.00000218,
 -0.00000919,0.00001245,-0.00000215,0.00000259,-0.00000565,0.00000113,0
 .00000305,-0.00000676,0.00000196,0.00000547,-0.00000576,-0.00000210,-0
 .00000556,0.00000310,-0.00000127,-0.00000022,-0.00000256,0.00000177\\\
 @


 A SCIENTIST IS SOMEONE WHOSE CURIOSITY SURVIVES
 EDUCATION'S ASSAULTS ON IT.
                          - SIR HERMANN BONDI
 Job cpu time:  0 days 14 hours 31 minutes 47.8 seconds.
 File lengths (MBytes):  RWF=   1373 Int=      0 D2E=      0 Chk=     25 Scr=      1
 Normal termination of Gaussian 09 at Sun Dec 29 16:52:04 2013.
