 Entering Gaussian System, Link 0=g09
 Initial command:
 /opt/gaussian/g09/l1.exe /panfs/panfs.cluster/home/shuo/Gau-28929.inp -scrdir=/panfs/panfs.cluster/home/shuo/
 Default is to use a total of  12 processors:
                               12 via shared-memory
                                1 via Linda
 Entering Link 1 = /opt/gaussian/g09/l1.exe PID=     28930.
  
 Copyright (c) 1988,1990,1992,1993,1995,1998,2003,2009,2011,
            Gaussian, Inc.  All Rights Reserved.
  
 This is part of the Gaussian(R) 09 program.  It is based on
 the Gaussian(R) 03 system (copyright 2003, Gaussian, Inc.),
 the Gaussian(R) 98 system (copyright 1998, Gaussian, Inc.),
 the Gaussian(R) 94 system (copyright 1995, Gaussian, Inc.),
 the Gaussian 92(TM) system (copyright 1992, Gaussian, Inc.),
 the Gaussian 90(TM) system (copyright 1990, Gaussian, Inc.),
 the Gaussian 88(TM) system (copyright 1988, Gaussian, Inc.),
 the Gaussian 86(TM) system (copyright 1986, Carnegie Mellon
 University), and the Gaussian 82(TM) system (copyright 1983,
 Carnegie Mellon University). Gaussian is a federally registered
 trademark of Gaussian, Inc.
  
 This software contains proprietary and confidential information,
 including trade secrets, belonging to Gaussian, Inc.
  
 This software is provided under written license and may be
 used, copied, transmitted, or stored only in accord with that
 written license.
  
 The following legend is applicable only to US Government
 contracts under FAR:
  
                    RESTRICTED RIGHTS LEGEND
  
 Use, reproduction and disclosure by the US Government is
 subject to restrictions as set forth in subparagraphs (a)
 and (c) of the Commercial Computer Software - Restricted
 Rights clause in FAR 52.227-19.
  
 Gaussian, Inc.
 340 Quinnipiac St., Bldg. 40, Wallingford CT 06492
  
  
 ---------------------------------------------------------------
 Warning -- This program may not be used in any manner that
 competes with the business of Gaussian, Inc. or will provide
 assistance to any competitor of Gaussian, Inc.  The licensee
 of this program is prohibited from giving any competitor of
 Gaussian, Inc. access to this program.  By using this program,
 the user acknowledges that Gaussian, Inc. is engaged in the
 business of creating and licensing software in the field of
 computational chemistry and represents and warrants to the
 licensee that it is not a competitor of Gaussian, Inc. and that
 it will not use this program in any manner prohibited above.
 ---------------------------------------------------------------
  

 Cite this work as:
 Gaussian 09, Revision C.01,
 M. J. Frisch, G. W. Trucks, H. B. Schlegel, G. E. Scuseria, 
 M. A. Robb, J. R. Cheeseman, G. Scalmani, V. Barone, B. Mennucci, 
 G. A. Petersson, H. Nakatsuji, M. Caricato, X. Li, H. P. Hratchian, 
 A. F. Izmaylov, J. Bloino, G. Zheng, J. L. Sonnenberg, M. Hada, 
 M. Ehara, K. Toyota, R. Fukuda, J. Hasegawa, M. Ishida, T. Nakajima, 
 Y. Honda, O. Kitao, H. Nakai, T. Vreven, J. A. Montgomery, Jr., 
 J. E. Peralta, F. Ogliaro, M. Bearpark, J. J. Heyd, E. Brothers, 
 K. N. Kudin, V. N. Staroverov, T. Keith, R. Kobayashi, J. Normand, 
 K. Raghavachari, A. Rendell, J. C. Burant, S. S. Iyengar, J. Tomasi, 
 M. Cossi, N. Rega, J. M. Millam, M. Klene, J. E. Knox, J. B. Cross, 
 V. Bakken, C. Adamo, J. Jaramillo, R. Gomperts, R. E. Stratmann, 
 O. Yazyev, A. J. Austin, R. Cammi, C. Pomelli, J. W. Ochterski, 
 R. L. Martin, K. Morokuma, V. G. Zakrzewski, G. A. Voth, 
 P. Salvador, J. J. Dannenberg, S. Dapprich, A. D. Daniels, 
 O. Farkas, J. B. Foresman, J. V. Ortiz, J. Cioslowski, 
 and D. J. Fox, Gaussian, Inc., Wallingford CT, 2010.
 
 ******************************************
 Gaussian 09:  EM64L-G09RevC.01 23-Sep-2011
                29-Dec-2013 
 ******************************************
 %chk=56_C23H12N4OS3.chk
 %NProcShared=12
 Will use up to   12 processors via shared memory.
 %Mem=8000MB
 Default route:  MaxDisk=100GB
 --------------------------------------------
 #B3LYP/6-31++G(d,p) opt scf=direct freq test
 --------------------------------------------
 1/14=-1,18=20,19=15,26=3,38=1/1,3;
 2/9=110,12=2,17=6,18=5,40=1/2;
 3/5=1,6=6,7=1111,11=2,16=1,25=1,30=1,71=1,74=-5/1,2,3;
 4//1;
 5/5=2,38=5/2;
 6/7=2,8=2,9=2,10=2,28=1/1;
 7//1,2,3,16;
 1/14=-1,18=20,19=15/3(2);
 2/9=110/2;
 99//99;
 2/9=110/2;
 3/5=1,6=6,7=1111,11=2,16=1,25=1,30=1,71=1,74=-5/1,2,3;
 4/5=5,16=3/1;
 5/5=2,38=5/2;
 7//1,2,3,16;
 1/14=-1,18=20,19=15/3(-5);
 2/9=110/2;
 6/7=2,8=2,9=2,10=2,19=2,28=1/1;
 99/9=1/99;
 ----------------------------------------------------------------------
 Geom opt of No.56 candidate from the CEPDB database with SMILE code of
  c1scc2c(cccc12)-c1sc(-c2nccc3nsnc23)c2nccnc12, HPC, 20131227, Shuo Da
 i, Gaussian09
 ----------------------------------------------------------------------
 Charge =  0 Multiplicity = 1
 Symbolic Z-Matrix:
 C                    -1.45753   1.57791   0.12933 
 S                    -2.75181   0.47864   0.02558 
 C                    -1.65799  -0.81695   0.20268 
 C                    -0.33502  -0.48482   0.0616 
 C                     0.80025  -1.3263    0.01198 
 C                     2.01247  -0.55787  -0.08909 
 C                     2.08184   0.85967  -0.10609 
 C                     0.94717   1.67725  -0.0246 
 C                    -0.23896   0.95139   0.03906 
 C                     0.79097  -2.7836    0.01322 
 S                     2.29313  -3.56674  -0.26026 
 C                     1.64033  -5.13171  -0.13903 
 C                     2.56117  -6.23101  -0.28716 
 N                     3.89117  -5.95402  -0.5037 
 C                     4.80084  -6.9513   -0.65246 
 C                     4.53256  -8.31271  -0.60759 
 C                     3.18137  -8.63357  -0.38671 
 N                     2.67444  -9.87538  -0.30491 
 S                     1.048    -9.71895  -0.04024 
 N                     0.94508  -8.09406  -0.01964 
 C                     2.16096  -7.57637  -0.21993 
 C                     0.29297  -5.07778   0.0832 
 N                    -0.53959  -6.15204   0.21259 
 C                    -1.8271   -5.84986   0.42093 
 C                    -2.29469  -4.56488   0.50952 
 N                    -1.49153  -3.49641   0.4086 
 C                    -0.19273  -3.74735   0.17873 
 H                    -1.69181   2.6207    0.22159 
 H                    -2.18262  -1.71699   0.39541 
 H                     2.98355  -1.05664  -0.16095 
 H                     3.06718   1.3188   -0.18636 
 H                     1.00424   2.75313  -0.02352 
 H                     5.81669  -6.5954   -0.82068 
 H                     5.28594  -9.0703   -0.73095 
 H                    -2.50199  -6.69297   0.52171 
 H                    -3.34182  -4.34177   0.66634 
 

 GradGradGradGradGradGradGradGradGradGradGradGradGradGradGradGradGradGrad
 Berny optimization.
 Initialization pass.
                           ----------------------------
                           !    Initial Parameters    !
                           ! (Angstroms and Degrees)  !
 --------------------------                            --------------------------
 ! Name  Definition              Value          Derivative Info.                !
 --------------------------------------------------------------------------------
 ! R1    R(1,2)                  1.7013         estimate D2E/DX2                !
 ! R2    R(1,9)                  1.3732         estimate D2E/DX2                !
 ! R3    R(1,28)                 1.0728         estimate D2E/DX2                !
 ! R4    R(2,3)                  1.7048         estimate D2E/DX2                !
 ! R5    R(3,4)                  1.3713         estimate D2E/DX2                !
 ! R6    R(3,29)                 1.0595         estimate D2E/DX2                !
 ! R7    R(4,5)                  1.414          estimate D2E/DX2                !
 ! R8    R(4,9)                  1.4396         estimate D2E/DX2                !
 ! R9    R(5,6)                  1.4388         estimate D2E/DX2                !
 ! R10   R(5,10)                 1.4573         estimate D2E/DX2                !
 ! R11   R(6,7)                  1.4193         estimate D2E/DX2                !
 ! R12   R(6,30)                 1.094          estimate D2E/DX2                !
 ! R13   R(7,8)                  1.4009         estimate D2E/DX2                !
 ! R14   R(7,31)                 1.09           estimate D2E/DX2                !
 ! R15   R(8,9)                  1.3921         estimate D2E/DX2                !
 ! R16   R(8,32)                 1.0774         estimate D2E/DX2                !
 ! R17   R(10,11)                1.716          estimate D2E/DX2                !
 ! R18   R(10,27)                1.387          estimate D2E/DX2                !
 ! R19   R(11,12)                1.7            estimate D2E/DX2                !
 ! R20   R(12,13)                1.4416         estimate D2E/DX2                !
 ! R21   R(12,22)                1.3666         estimate D2E/DX2                !
 ! R22   R(13,14)                1.3757         estimate D2E/DX2                !
 ! R23   R(13,21)                1.4052         estimate D2E/DX2                !
 ! R24   R(14,15)                1.358          estimate D2E/DX2                !
 ! R25   R(15,16)                1.3883         estimate D2E/DX2                !
 ! R26   R(15,33)                1.0895         estimate D2E/DX2                !
 ! R27   R(16,17)                1.4062         estimate D2E/DX2                !
 ! R28   R(16,34)                1.0755         estimate D2E/DX2                !
 ! R29   R(17,18)                1.3438         estimate D2E/DX2                !
 ! R30   R(17,21)                1.4788         estimate D2E/DX2                !
 ! R31   R(18,19)                1.6552         estimate D2E/DX2                !
 ! R32   R(19,20)                1.6283         estimate D2E/DX2                !
 ! R33   R(20,21)                1.3366         estimate D2E/DX2                !
 ! R34   R(22,23)                1.3653         estimate D2E/DX2                !
 ! R35   R(22,27)                1.4195         estimate D2E/DX2                !
 ! R36   R(23,24)                1.3388         estimate D2E/DX2                !
 ! R37   R(24,25)                1.3703         estimate D2E/DX2                !
 ! R38   R(24,35)                1.0847         estimate D2E/DX2                !
 ! R39   R(25,26)                1.3405         estimate D2E/DX2                !
 ! R40   R(25,36)                1.0821         estimate D2E/DX2                !
 ! R41   R(26,27)                1.3426         estimate D2E/DX2                !
 ! A1    A(2,1,9)              112.1048         estimate D2E/DX2                !
 ! A2    A(2,1,28)             117.8524         estimate D2E/DX2                !
 ! A3    A(9,1,28)             130.0136         estimate D2E/DX2                !
 ! A4    A(1,2,3)               89.8048         estimate D2E/DX2                !
 ! A5    A(2,3,4)              115.1029         estimate D2E/DX2                !
 ! A6    A(2,3,29)             110.2912         estimate D2E/DX2                !
 ! A7    A(4,3,29)             134.6043         estimate D2E/DX2                !
 ! A8    A(3,4,5)              129.3502         estimate D2E/DX2                !
 ! A9    A(3,4,9)              107.9157         estimate D2E/DX2                !
 ! A10   A(5,4,9)              122.6554         estimate D2E/DX2                !
 ! A11   A(4,5,6)              111.1661         estimate D2E/DX2                !
 ! A12   A(4,5,10)             126.1536         estimate D2E/DX2                !
 ! A13   A(6,5,10)             122.6487         estimate D2E/DX2                !
 ! A14   A(5,6,7)              125.1287         estimate D2E/DX2                !
 ! A15   A(5,6,30)             120.5942         estimate D2E/DX2                !
 ! A16   A(7,6,30)             114.2771         estimate D2E/DX2                !
 ! A17   A(6,7,8)              122.8597         estimate D2E/DX2                !
 ! A18   A(6,7,31)             117.7583         estimate D2E/DX2                !
 ! A19   A(8,7,31)             119.382          estimate D2E/DX2                !
 ! A20   A(7,8,9)              112.8603         estimate D2E/DX2                !
 ! A21   A(7,8,32)             122.6796         estimate D2E/DX2                !
 ! A22   A(9,8,32)             124.4568         estimate D2E/DX2                !
 ! A23   A(1,9,4)              113.2624         estimate D2E/DX2                !
 ! A24   A(1,9,8)              121.4154         estimate D2E/DX2                !
 ! A25   A(4,9,8)              125.2942         estimate D2E/DX2                !
 ! A26   A(5,10,11)            116.7861         estimate D2E/DX2                !
 ! A27   A(5,10,27)            134.3812         estimate D2E/DX2                !
 ! A28   A(11,10,27)           108.8293         estimate D2E/DX2                !
 ! A29   A(10,11,12)            94.1642         estimate D2E/DX2                !
 ! A30   A(11,12,13)           116.7027         estimate D2E/DX2                !
 ! A31   A(11,12,22)           110.7233         estimate D2E/DX2                !
 ! A32   A(13,12,22)           132.5735         estimate D2E/DX2                !
 ! A33   A(12,13,14)           118.6964         estimate D2E/DX2                !
 ! A34   A(12,13,21)           122.9025         estimate D2E/DX2                !
 ! A35   A(14,13,21)           118.401          estimate D2E/DX2                !
 ! A36   A(13,14,15)           121.1305         estimate D2E/DX2                !
 ! A37   A(14,15,16)           125.9551         estimate D2E/DX2                !
 ! A38   A(14,15,33)           113.6789         estimate D2E/DX2                !
 ! A39   A(16,15,33)           120.366          estimate D2E/DX2                !
 ! A40   A(15,16,17)           114.4882         estimate D2E/DX2                !
 ! A41   A(15,16,34)           123.4819         estimate D2E/DX2                !
 ! A42   A(17,16,34)           122.0299         estimate D2E/DX2                !
 ! A43   A(16,17,18)           125.6545         estimate D2E/DX2                !
 ! A44   A(16,17,21)           121.1735         estimate D2E/DX2                !
 ! A45   A(18,17,21)           113.172          estimate D2E/DX2                !
 ! A46   A(17,18,19)           107.0422         estimate D2E/DX2                !
 ! A47   A(18,19,20)            99.1164         estimate D2E/DX2                !
 ! A48   A(19,20,21)           109.094          estimate D2E/DX2                !
 ! A49   A(13,21,17)           118.8516         estimate D2E/DX2                !
 ! A50   A(13,21,20)           129.5733         estimate D2E/DX2                !
 ! A51   A(17,21,20)           111.5751         estimate D2E/DX2                !
 ! A52   A(12,22,23)           125.844          estimate D2E/DX2                !
 ! A53   A(12,22,27)           112.6598         estimate D2E/DX2                !
 ! A54   A(23,22,27)           121.4956         estimate D2E/DX2                !
 ! A55   A(22,23,24)           115.0622         estimate D2E/DX2                !
 ! A56   A(23,24,25)           123.3589         estimate D2E/DX2                !
 ! A57   A(23,24,35)           115.9376         estimate D2E/DX2                !
 ! A58   A(25,24,35)           120.7033         estimate D2E/DX2                !
 ! A59   A(24,25,26)           122.5572         estimate D2E/DX2                !
 ! A60   A(24,25,36)           122.2048         estimate D2E/DX2                !
 ! A61   A(26,25,36)           115.238          estimate D2E/DX2                !
 ! A62   A(25,26,27)           116.328          estimate D2E/DX2                !
 ! A63   A(10,27,22)           113.6109         estimate D2E/DX2                !
 ! A64   A(10,27,26)           125.2129         estimate D2E/DX2                !
 ! A65   A(22,27,26)           121.1762         estimate D2E/DX2                !
 ! D1    D(9,1,2,3)             11.4652         estimate D2E/DX2                !
 ! D2    D(28,1,2,3)          -170.3015         estimate D2E/DX2                !
 ! D3    D(2,1,9,4)             -7.9224         estimate D2E/DX2                !
 ! D4    D(2,1,9,8)            173.9083         estimate D2E/DX2                !
 ! D5    D(28,1,9,4)           174.1172         estimate D2E/DX2                !
 ! D6    D(28,1,9,8)            -4.0521         estimate D2E/DX2                !
 ! D7    D(1,2,3,4)            -12.8855         estimate D2E/DX2                !
 ! D8    D(1,2,3,29)           167.5079         estimate D2E/DX2                !
 ! D9    D(2,3,4,5)           -172.8189         estimate D2E/DX2                !
 ! D10   D(2,3,4,9)             10.3948         estimate D2E/DX2                !
 ! D11   D(29,3,4,5)             6.6629         estimate D2E/DX2                !
 ! D12   D(29,3,4,9)          -170.1233         estimate D2E/DX2                !
 ! D13   D(3,4,5,6)           -177.5531         estimate D2E/DX2                !
 ! D14   D(3,4,5,10)             4.4582         estimate D2E/DX2                !
 ! D15   D(9,4,5,6)             -1.1857         estimate D2E/DX2                !
 ! D16   D(9,4,5,10)          -179.1743         estimate D2E/DX2                !
 ! D17   D(3,4,9,1)             -1.4256         estimate D2E/DX2                !
 ! D18   D(3,4,9,8)            176.6602         estimate D2E/DX2                !
 ! D19   D(5,4,9,1)           -178.4741         estimate D2E/DX2                !
 ! D20   D(5,4,9,8)             -0.3883         estimate D2E/DX2                !
 ! D21   D(4,5,6,7)              1.3987         estimate D2E/DX2                !
 ! D22   D(4,5,6,30)          -178.6016         estimate D2E/DX2                !
 ! D23   D(10,5,6,7)           179.47           estimate D2E/DX2                !
 ! D24   D(10,5,6,30)           -0.5303         estimate D2E/DX2                !
 ! D25   D(4,5,10,11)          172.2174         estimate D2E/DX2                !
 ! D26   D(4,5,10,27)           -7.0361         estimate D2E/DX2                !
 ! D27   D(6,5,10,11)           -5.5549         estimate D2E/DX2                !
 ! D28   D(6,5,10,27)          175.1916         estimate D2E/DX2                !
 ! D29   D(5,6,7,8)             -0.0274         estimate D2E/DX2                !
 ! D30   D(5,6,7,31)           179.9685         estimate D2E/DX2                !
 ! D31   D(30,6,7,8)           179.9729         estimate D2E/DX2                !
 ! D32   D(30,6,7,31)           -0.0312         estimate D2E/DX2                !
 ! D33   D(6,7,8,9)             -1.5351         estimate D2E/DX2                !
 ! D34   D(6,7,8,32)           179.0976         estimate D2E/DX2                !
 ! D35   D(31,7,8,9)           178.469          estimate D2E/DX2                !
 ! D36   D(31,7,8,32)           -0.8982         estimate D2E/DX2                !
 ! D37   D(7,8,9,1)            179.6985         estimate D2E/DX2                !
 ! D38   D(7,8,9,4)              1.7592         estimate D2E/DX2                !
 ! D39   D(32,8,9,1)            -0.9474         estimate D2E/DX2                !
 ! D40   D(32,8,9,4)          -178.8867         estimate D2E/DX2                !
 ! D41   D(5,10,11,12)         179.9013         estimate D2E/DX2                !
 ! D42   D(27,10,11,12)         -0.6623         estimate D2E/DX2                !
 ! D43   D(5,10,27,22)         179.4175         estimate D2E/DX2                !
 ! D44   D(5,10,27,26)          -0.5669         estimate D2E/DX2                !
 ! D45   D(11,10,27,22)          0.1216         estimate D2E/DX2                !
 ! D46   D(11,10,27,26)       -179.8628         estimate D2E/DX2                !
 ! D47   D(10,11,12,13)       -179.1798         estimate D2E/DX2                !
 ! D48   D(10,11,12,22)          1.053          estimate D2E/DX2                !
 ! D49   D(11,12,13,14)          0.4826         estimate D2E/DX2                !
 ! D50   D(11,12,13,21)       -179.5326         estimate D2E/DX2                !
 ! D51   D(22,12,13,14)       -179.813          estimate D2E/DX2                !
 ! D52   D(22,12,13,21)          0.1718         estimate D2E/DX2                !
 ! D53   D(11,12,22,23)        179.1128         estimate D2E/DX2                !
 ! D54   D(11,12,22,27)         -1.1476         estimate D2E/DX2                !
 ! D55   D(13,12,22,23)         -0.6048         estimate D2E/DX2                !
 ! D56   D(13,12,22,27)        179.1348         estimate D2E/DX2                !
 ! D57   D(12,13,14,15)       -179.8879         estimate D2E/DX2                !
 ! D58   D(21,13,14,15)          0.1266         estimate D2E/DX2                !
 ! D59   D(12,13,21,17)        179.896          estimate D2E/DX2                !
 ! D60   D(12,13,21,20)         -0.0889         estimate D2E/DX2                !
 ! D61   D(14,13,21,17)         -0.1191         estimate D2E/DX2                !
 ! D62   D(14,13,21,20)        179.8959         estimate D2E/DX2                !
 ! D63   D(13,14,15,16)         -0.0962         estimate D2E/DX2                !
 ! D64   D(13,14,15,33)        179.8352         estimate D2E/DX2                !
 ! D65   D(14,15,16,17)          0.0516         estimate D2E/DX2                !
 ! D66   D(14,15,16,34)        179.9926         estimate D2E/DX2                !
 ! D67   D(33,15,16,17)       -179.8756         estimate D2E/DX2                !
 ! D68   D(33,15,16,34)          0.0654         estimate D2E/DX2                !
 ! D69   D(15,16,17,18)        179.8993         estimate D2E/DX2                !
 ! D70   D(15,16,17,21)         -0.0442         estimate D2E/DX2                !
 ! D71   D(34,16,17,18)         -0.0426         estimate D2E/DX2                !
 ! D72   D(34,16,17,21)       -179.9861         estimate D2E/DX2                !
 ! D73   D(16,17,18,19)       -179.9385         estimate D2E/DX2                !
 ! D74   D(21,17,18,19)          0.0089         estimate D2E/DX2                !
 ! D75   D(16,17,21,13)          0.0818         estimate D2E/DX2                !
 ! D76   D(16,17,21,20)       -179.9306         estimate D2E/DX2                !
 ! D77   D(18,17,21,13)       -179.8682         estimate D2E/DX2                !
 ! D78   D(18,17,21,20)          0.1193         estimate D2E/DX2                !
 ! D79   D(17,18,19,20)         -0.105          estimate D2E/DX2                !
 ! D80   D(18,19,20,21)          0.1766         estimate D2E/DX2                !
 ! D81   D(19,20,21,13)        179.798          estimate D2E/DX2                !
 ! D82   D(19,20,21,17)         -0.1878         estimate D2E/DX2                !
 ! D83   D(12,22,23,24)       -179.729          estimate D2E/DX2                !
 ! D84   D(27,22,23,24)          0.5528         estimate D2E/DX2                !
 ! D85   D(12,22,27,10)          0.6699         estimate D2E/DX2                !
 ! D86   D(12,22,27,26)       -179.345          estimate D2E/DX2                !
 ! D87   D(23,22,27,10)       -179.5776         estimate D2E/DX2                !
 ! D88   D(23,22,27,26)          0.4075         estimate D2E/DX2                !
 ! D89   D(22,23,24,25)         -0.395          estimate D2E/DX2                !
 ! D90   D(22,23,24,35)        179.7551         estimate D2E/DX2                !
 ! D91   D(23,24,25,26)         -0.7622         estimate D2E/DX2                !
 ! D92   D(23,24,25,36)        179.2353         estimate D2E/DX2                !
 ! D93   D(35,24,25,26)        179.0809         estimate D2E/DX2                !
 ! D94   D(35,24,25,36)         -0.9216         estimate D2E/DX2                !
 ! D95   D(24,25,26,27)          1.6825         estimate D2E/DX2                !
 ! D96   D(36,25,26,27)       -178.3152         estimate D2E/DX2                !
 ! D97   D(25,26,27,10)        178.4913         estimate D2E/DX2                !
 ! D98   D(25,26,27,22)         -1.492          estimate D2E/DX2                !
 --------------------------------------------------------------------------------
 Trust Radius=3.00D-01 FncErr=1.00D-07 GrdErr=1.00D-06
 Number of steps in this run=    214 maximum allowed number of steps=    216.
 GradGradGradGradGradGradGradGradGradGradGradGradGradGradGradGradGradGrad

                          Input orientation:                          
 ---------------------------------------------------------------------
 Center     Atomic      Atomic             Coordinates (Angstroms)
 Number     Number       Type             X           Y           Z
 ---------------------------------------------------------------------
      1          6           0       -1.457530    1.577910    0.129330
      2         16           0       -2.751810    0.478640    0.025580
      3          6           0       -1.657990   -0.816950    0.202680
      4          6           0       -0.335020   -0.484820    0.061600
      5          6           0        0.800250   -1.326300    0.011980
      6          6           0        2.012470   -0.557870   -0.089090
      7          6           0        2.081840    0.859670   -0.106090
      8          6           0        0.947170    1.677250   -0.024600
      9          6           0       -0.238960    0.951390    0.039060
     10          6           0        0.790970   -2.783600    0.013220
     11         16           0        2.293130   -3.566740   -0.260260
     12          6           0        1.640330   -5.131710   -0.139030
     13          6           0        2.561170   -6.231010   -0.287160
     14          7           0        3.891170   -5.954020   -0.503700
     15          6           0        4.800840   -6.951300   -0.652460
     16          6           0        4.532560   -8.312710   -0.607590
     17          6           0        3.181370   -8.633570   -0.386710
     18          7           0        2.674440   -9.875380   -0.304910
     19         16           0        1.048000   -9.718950   -0.040240
     20          7           0        0.945080   -8.094060   -0.019640
     21          6           0        2.160960   -7.576370   -0.219930
     22          6           0        0.292970   -5.077780    0.083200
     23          7           0       -0.539590   -6.152040    0.212590
     24          6           0       -1.827100   -5.849860    0.420930
     25          6           0       -2.294690   -4.564880    0.509520
     26          7           0       -1.491530   -3.496410    0.408600
     27          6           0       -0.192730   -3.747350    0.178730
     28          1           0       -1.691810    2.620700    0.221590
     29          1           0       -2.182620   -1.716990    0.395410
     30          1           0        2.983550   -1.056640   -0.160950
     31          1           0        3.067180    1.318800   -0.186360
     32          1           0        1.004240    2.753130   -0.023520
     33          1           0        5.816690   -6.595400   -0.820680
     34          1           0        5.285940   -9.070300   -0.730950
     35          1           0       -2.501990   -6.692970    0.521710
     36          1           0       -3.341820   -4.341770    0.666340
 ---------------------------------------------------------------------
                    Distance matrix (angstroms):
                    1          2          3          4          5
     1  C    0.000000
     2  S    1.701270   0.000000
     3  C    2.404354   1.704805   0.000000
     4  C    2.349355   2.602004   1.371300   0.000000
     5  C    3.680459   3.984360   2.517687   1.413997   0.000000
     6  C    4.080461   4.877076   3.691142   2.353456   1.438811
     7  C    3.619175   4.850432   4.110076   2.770737   2.536706
     8  C    2.411669   3.888655   3.613800   2.515152   3.007364
     9  C    1.373167   2.556969   2.273201   1.439595   2.503710
    10  C    4.908361   4.815979   3.146587   2.560192   1.457330
    11  S    6.378609   6.472884   4.836012   4.063127   2.705989
    12  C    7.395117   7.126992   5.441768   5.053301   3.899959
    13  C    8.792192   8.564168   6.881373   6.444242   5.219818
    14  N    9.259551   9.262205   7.594843   6.934868   5.588873
    15  C   10.607819  10.616321   8.948631   8.288685   6.934467
    16  C   11.586570  11.434631   9.755299   9.242132   7.945057
    17  C   11.227645  10.881405   9.212293   8.886400   7.695770
    18  N   12.183579  11.694406  10.053992   9.867816   8.757841
    19  S   11.572618  10.882726   9.307362   9.337680   8.396468
    20  N    9.967032   9.335964   7.731865   7.716592   6.769383
    21  C    9.849685   9.438155   7.775136   7.523248   6.400679
    22  C    6.882194   6.336230   4.687771   4.635744   3.786292
    23  N    7.784708   6.992482   5.451064   5.672921   5.012303
    24  C    7.442673   6.407909   5.040478   5.580240   5.247171
    25  C    6.211220   5.087264   3.813990   4.548387   4.507172
    26  N    5.082113   4.187605   2.692511   3.244626   3.181028
    27  C    5.473623   4.942807   3.276401   3.267731   2.622079
    28  H    1.072758   2.398008   3.437868   3.392747   4.672591
    29  H    3.384216   2.298161   1.059459   2.245729   3.032684
    30  H    5.171877   5.940222   4.661928   3.374821   2.206676
    31  H    4.543105   5.883148   5.200001   3.858691   3.489250
    32  H    2.732182   4.391313   4.459160   3.505023   4.084681
    33  H   10.982704  11.143491   9.503083   8.715569   7.322664
    34  H   12.633244  12.504400  10.826247  10.292414   8.980139
    35  H    8.345796   7.193090   5.944891   6.591554   6.321848
    36  H    6.235506   4.898473   3.933779   4.927740   5.165074
                    6          7          8          9         10
     6  C    0.000000
     7  C    1.419338   0.000000
     8  C    2.476850   1.400912   0.000000
     9  C    2.713526   2.327143   1.392060   0.000000
    10  C    2.540945   3.867040   4.463744   3.874477   0.000000
    11  S    3.026775   4.434131   5.419094   5.187925   1.715979
    12  C    4.589226   6.007716   6.845108   6.369266   2.501642
    13  C    5.703054   7.109169   8.075550   7.715829   3.886962
    14  N    5.728861   7.061030   8.193470   8.064568   4.464304
    15  C    6.997738   8.288711   9.470842   9.398420   5.821676
    16  C    8.170510   9.507370  10.629873  10.440743   6.704920
    17  C    8.165282   9.560822  10.556315  10.185843   6.332149
    18  N    9.343488  10.753232  11.684404  11.217182   7.344522
    19  S    9.211839  10.629222  11.396657  10.747963   6.940317
    20  N    7.611722   9.026017   9.771311   9.122805   5.312797
    21  C    7.021290   8.437179   9.334930   8.862809   4.990178
    22  C    4.839003   6.203966   6.787491   6.052751   2.348651
    23  N    6.156197   7.492498   7.972735   7.111906   3.627193
    24  C    6.558016   7.783017   8.034454   6.994642   4.052464
    25  C    5.913213   6.997052   7.054015   5.905641   3.597300
    26  N    4.600079   5.657677   5.735998   4.635560   2.423681
    27  C    3.886826   5.145816   5.546801   4.701043   1.387038
    28  H    4.890963   4.177204   2.813347   2.220515   5.950972
    29  H    4.379164   5.007624   4.636039   3.320399   3.182132
    30  H    1.094044   2.118569   3.411684   3.802205   2.796450
    31  H    2.154940   1.090018   2.156176   3.334121   4.695812
    32  H    3.461726   2.180190   1.077393   2.189915   5.540958
    33  H    7.173499   8.368860   9.632378   9.714118   6.362631
    34  H    9.142705  10.452799  11.611791  11.469599   7.764093
    35  H    7.641523   8.857088   9.069495   7.986895   5.136664
    36  H    6.599772   7.554318   7.423034   6.167557   4.464797
                   11         12         13         14         15
    11  S    0.000000
    12  C    1.699993   0.000000
    13  C    2.677854   1.441648   0.000000
    14  N    2.883071   2.423935   1.375686   0.000000
    15  C    4.230565   3.682844   2.380837   1.358012   0.000000
    16  C    5.259270   4.324732   2.884879   2.446547   1.388317
    17  C    5.145651   3.833950   2.483315   2.774435   2.350178
    18  N    6.320311   4.857912   3.646173   4.110598   3.632164
    19  S    6.280800   4.626379   3.810037   4.740581   4.703032
    20  N    4.729880   3.045184   2.480780   3.673354   4.071025
    21  C    4.012010   2.500792   1.405234   2.388759   2.747137
    22  C    2.530187   1.366629   2.571349   3.749572   4.936817
    23  N    3.864151   2.432439   3.141767   4.492651   5.468759
    24  C    4.759512   3.585020   4.461343   5.793479   6.804037
    25  C    4.757829   4.028188   5.195196   6.420373   7.575734
    26  N    3.843953   3.575283   4.938269   5.987119   7.256448
    27  C    2.530777   2.318951   3.737591   4.691838   5.990986
    28  H    7.375387   8.445890   9.833587  10.257755  11.599209
    29  H    4.887107   5.153725   6.583754   7.460010   8.790037
    30  H    2.605215   4.290794   5.193115   4.992553   6.187984
    31  H    4.947031   6.606604   7.567419   7.326225   8.462705
    32  H    6.454304   7.911299   9.121859   9.185826  10.439622
    33  H    4.679992   4.477613   3.319011   2.054135   1.089456
    34  H    6.282327   5.399383   3.960163   3.421729   2.175234
    35  H    5.777367   4.475816   5.148132   6.516902   7.401131
    36  H    5.762978   5.108272   6.270860   7.502299   8.651693
                   16         17         18         19         20
    16  C    0.000000
    17  C    1.406220   0.000000
    18  N    2.446664   1.343786   0.000000
    19  S    3.800205   2.418545   1.655242   0.000000
    20  N    3.641910   2.329550   2.499033   1.628277   0.000000
    21  C    2.513357   1.478758   2.357187   2.421078   1.336594
    22  C    5.377368   4.605140   5.370195   4.703803   3.087680
    23  N    5.573858   4.512504   4.945812   3.912443   2.455528
    24  C    6.897011   5.786717   6.082394   4.842389   3.593817
    25  C    7.868005   6.880748   7.318262   6.167678   4.819879
    26  N    7.779399   6.989916   7.652167   6.735776   5.221000
    27  C    6.617339   5.964849   6.782870   6.103062   4.497538
    28  H   12.608322  12.279108  13.247391  12.642867  11.037095
    29  H    9.465895   8.787672   9.520547   8.640490   7.114900
    30  H    7.432999   7.582873   8.825330   8.876741   7.328070
    31  H    9.751449   9.955041  11.201695  11.221870   9.650546
    32  H   11.629402  11.598652  12.741586  12.472168  10.847352
    33  H    2.154890   3.359669   4.571436   5.753786   5.159480
    34  H    1.075519   2.176798   2.765790   4.342576   4.505782
    35  H    7.306420   6.073857   6.132411   4.698380   3.760107
    36  H    8.910506   7.879116   8.231619   6.977381   5.738272
                   21         22         23         24         25
    21  C    0.000000
    22  C    3.134362   0.000000
    23  N    3.083628   1.365259   0.000000
    24  C    4.392740   2.281418   1.338806   0.000000
    25  C    5.427153   2.672227   2.384873   1.370278   0.000000
    26  N    5.511969   2.406461   2.827893   2.377285   1.340477
    27  C    4.512226   1.419533   2.429813   2.674018   2.279477
    28  H   10.909584   7.951421   8.848088   8.473985   7.216573
    29  H    7.319677   4.185801   4.733143   4.148212   2.852378
    30  H    6.571683   4.844419   6.206057   6.815856   6.373154
    31  H    8.941276   6.977474   8.305504   8.701291   7.990719
    32  H   10.395920   7.863870   9.041085   9.067825   8.044895
    33  H    3.832436   5.799280   6.454960   7.779778   8.466813
    34  H    3.501210   6.444595   6.583564   7.892617   8.905253
    35  H    4.803491   3.257749   2.058925   1.084651   2.138198
    36  H    6.444276   3.754126   3.366817   2.151497   1.082059
                   26         27         28         29         30
    26  N    0.000000
    27  C    1.342644   0.000000
    28  H    6.123244   6.542258   0.000000
    29  H    1.908956   2.851136   4.368828   0.000000
    30  H    5.128665   4.176608   5.960550   5.237835   0.000000
    31  H    6.657482   6.035410   4.950692   6.092198   2.377048
    32  H    6.743319   6.612857   2.710406   5.505774   4.295451
    33  H    8.032742   6.724830  11.933164   9.448107   6.256180
    34  H    8.848781   7.692668  13.648290  10.541311   8.357311
    35  H    3.354373   3.758589   9.353658   4.987818   7.894643
    36  H    2.050521   3.241584   7.169123   2.882120   7.175430
                   31         32         33         34         35
    31  H    0.000000
    32  H    2.517844   0.000000
    33  H    8.402186  10.544674   0.000000
    34  H   10.637334  12.594718   2.532761   0.000000
    35  H    9.782918  10.090576   8.426860   8.238489   0.000000
    36  H    8.593278   8.348757   9.548214   9.937286   2.500875
                   36
    36  H    0.000000
 Stoichiometry    C19H9N5S3
 Framework group  C1[X(C19H9N5S3)]
 Deg. of freedom   102
 Full point group                 C1      NOp   1
 Largest Abelian subgroup         C1      NOp   1
 Largest concise Abelian subgroup C1      NOp   1
                         Standard orientation:                         
 ---------------------------------------------------------------------
 Center     Atomic      Atomic             Coordinates (Angstroms)
 Number     Number       Type             X           Y           Z
 ---------------------------------------------------------------------
      1          6           0        6.088252   -0.197717    0.049761
      2         16           0        5.488384   -1.765816    0.324610
      3          6           0        3.906178   -1.207061    0.023315
      4          6           0        3.766454    0.156799   -0.005447
      5          6           0        2.589547    0.935870   -0.091034
      6          6           0        2.898975    2.339799   -0.149473
      7          6           0        4.208133    2.888077   -0.153851
      8          6           0        5.363453    2.097596   -0.099746
      9          6           0        5.083958    0.736984   -0.007839
     10          6           0        1.222140    0.432039   -0.078198
     11         16           0       -0.031612    1.600195    0.011810
     12          6           0       -1.278613    0.445051   -0.012801
     13          6           0       -2.628888    0.948441    0.028496
     14          7           0       -2.825436    2.309247    0.074203
     15          6           0       -4.076007    2.836949    0.116622
     16          6           0       -5.264173    2.118838    0.117779
     17          6           0       -5.101572    0.722841    0.070810
     18          7           0       -6.095308   -0.181706    0.064177
     19         16           0       -5.389262   -1.677604    0.004032
     20          7           0       -3.825558   -1.224138   -0.017894
     21          6           0       -3.756591    0.110023    0.023861
     22          6           0       -0.764771   -0.820226   -0.064907
     23          7           0       -1.489210   -1.977339   -0.079431
     24          6           0       -0.762600   -3.100785   -0.127455
     25          6           0        0.607035   -3.111141   -0.168125
     26          7           0        1.336945   -1.986859   -0.178110
     27          6           0        0.653970   -0.832874   -0.110595
     28          1           0        7.151360   -0.073167   -0.021643
     29          1           0        3.243665   -2.025428   -0.094177
     30          1           0        2.099130    3.084825   -0.195455
     31          1           0        4.304080    3.972807   -0.201757
     32          1           0        6.356058    2.516159   -0.117495
     33          1           0       -4.090479    3.925700    0.153060
     34          1           0       -6.235608    2.579112    0.152462
     35          1           0       -1.323928   -4.028856   -0.135400
     36          1           0        1.176248   -4.031008   -0.194460
 ---------------------------------------------------------------------
 Rotational constants (GHZ):      0.4046490      0.0845013      0.0700250
 Standard basis: 6-31++G(d,p) (6D, 7F)
 There are   579 symmetry adapted basis functions of A   symmetry.
 Integral buffers will be    131072 words long.
 Raffenetti 2 integral format.
 Two-electron integral symmetry is turned on.
   579 basis functions,  1008 primitive gaussians,   579 cartesian basis functions
   103 alpha electrons      103 beta electrons
       nuclear repulsion energy      2682.4506971315 Hartrees.
 NAtoms=   36 NActive=   36 NUniq=   36 SFac= 1.00D+00 NAtFMM=   60 NAOKFM=F Big=F
 One-electron integrals computed using PRISM.
 NBasis=   579 RedAO= T  NBF=   579
 NBsUse=   570 1.00D-06 NBFU=   570
 Harris functional with IExCor=  402 diagonalized for initial guess.
 ExpMin= 3.60D-02 ExpMax= 2.19D+04 ExpMxC= 3.30D+03 IAcc=3 IRadAn=         5 AccDes= 0.00D+00
 HarFok:  IExCor=  402 AccDes= 0.00D+00 IRadAn=         5 IDoV= 1
 ScaDFX=  1.000000  1.000000  1.000000  1.000000
 FoFCou: FMM=F IPFlag=           0 FMFlag=      100000 FMFlg1=           0
         NFxFlg=           0 DoJE=T BraDBF=F KetDBF=T FulRan=T
         Omega=  0.000000  0.000000  1.000000  0.000000  0.000000 ICntrl=     500 IOpCl=  0
         NMat0=    1 NMatS0=    1 NMatT0=    0 NMatD0=    1 NMtDS0=    0 NMtDT0=    0
         I1Cent=           4 NGrid=           0.
 Petite list used in FoFCou.
 Initial guess orbital symmetries:
       Occupied  (A) (A) (A) (A) (A) (A) (A) (A) (A) (A) (A) (A)
                 (A) (A) (A) (A) (A) (A) (A) (A) (A) (A) (A) (A)
                 (A) (A) (A) (A) (A) (A) (A) (A) (A) (A) (A) (A)
                 (A) (A) (A) (A) (A) (A) (A) (A) (A) (A) (A) (A)
                 (A) (A) (A) (A) (A) (A) (A) (A) (A) (A) (A) (A)
                 (A) (A) (A) (A) (A) (A) (A) (A) (A) (A) (A) (A)
                 (A) (A) (A) (A) (A) (A) (A) (A) (A) (A) (A) (A)
                 (A) (A) (A) (A) (A) (A) (A) (A) (A) (A) (A) (A)
                 (A) (A) (A) (A) (A) (A) (A)
       Virtual   (A) (A) (A) (A) (A) (A) (A) (A) (A) (A) (A) (A)
                 (A) (A) (A) (A) (A) (A) (A) (A) (A) (A) (A) (A)
                 (A) (A) (A) (A) (A) (A) (A) (A) (A) (A) (A) (A)
                 (A) (A) (A) (A) (A) (A) (A) (A) (A) (A) (A) (A)
                 (A) (A) (A) (A) (A) (A) (A) (A) (A) (A) (A) (A)
                 (A) (A) (A) (A) (A) (A) (A) (A) (A) (A) (A) (A)
                 (A) (A) (A) (A) (A) (A) (A) (A) (A) (A) (A) (A)
                 (A) (A) (A) (A) (A) (A) (A) (A) (A) (A) (A) (A)
                 (A) (A) (A) (A) (A) (A) (A) (A) (A) (A) (A) (A)
                 (A) (A) (A) (A) (A) (A) (A) (A) (A) (A) (A) (A)
                 (A) (A) (A) (A) (A) (A) (A) (A) (A) (A) (A) (A)
                 (A) (A) (A) (A) (A) (A) (A) (A) (A) (A) (A) (A)
                 (A) (A) (A) (A) (A) (A) (A) (A) (A) (A) (A) (A)
                 (A) (A) (A) (A) (A) (A) (A) (A) (A) (A) (A) (A)
                 (A) (A) (A) (A) (A) (A) (A) (A) (A) (A) (A) (A)
                 (A) (A) (A) (A) (A) (A) (A) (A) (A) (A) (A) (A)
                 (A) (A) (A) (A) (A) (A) (A) (A) (A) (A) (A) (A)
                 (A) (A) (A) (A) (A) (A) (A) (A) (A) (A) (A) (A)
                 (A) (A) (A) (A) (A) (A) (A) (A) (A) (A) (A) (A)
                 (A) (A) (A) (A) (A) (A) (A) (A) (A) (A) (A) (A)
                 (A) (A) (A) (A) (A) (A) (A) (A) (A) (A) (A) (A)
                 (A) (A) (A) (A) (A) (A) (A) (A) (A) (A) (A) (A)
                 (A) (A) (A) (A) (A) (A) (A) (A) (A) (A) (A) (A)
                 (A) (A) (A) (A) (A) (A) (A) (A) (A) (A) (A) (A)
                 (A) (A) (A) (A) (A) (A) (A) (A) (A) (A) (A) (A)
                 (A) (A) (A) (A) (A) (A) (A) (A) (A) (A) (A) (A)
                 (A) (A) (A) (A) (A) (A) (A) (A) (A) (A) (A) (A)
                 (A) (A) (A) (A) (A) (A) (A) (A) (A) (A) (A) (A)
                 (A) (A) (A) (A) (A) (A) (A) (A) (A) (A) (A) (A)
                 (A) (A) (A) (A) (A) (A) (A) (A) (A) (A) (A) (A)
                 (A) (A) (A) (A) (A) (A) (A) (A) (A) (A) (A) (A)
                 (A) (A) (A) (A) (A) (A) (A) (A) (A) (A) (A) (A)
                 (A) (A) (A) (A) (A) (A) (A) (A) (A) (A) (A) (A)
                 (A) (A) (A) (A) (A) (A) (A) (A) (A) (A) (A) (A)
                 (A) (A) (A) (A) (A) (A) (A) (A) (A) (A) (A) (A)
                 (A) (A) (A) (A) (A) (A) (A) (A) (A) (A) (A) (A)
                 (A) (A) (A) (A) (A) (A) (A) (A) (A) (A) (A) (A)
                 (A) (A) (A) (A) (A) (A) (A) (A) (A) (A) (A) (A)
                 (A) (A) (A) (A) (A) (A) (A) (A) (A) (A) (A)
 The electronic state of the initial guess is 1-A.
 Requested convergence on RMS density matrix=1.00D-08 within 128 cycles.
 Requested convergence on MAX density matrix=1.00D-06.
 Requested convergence on             energy=1.00D-06.
 No special actions if energy rises.
 EnCoef did     2 forward-backward iterations
 EnCoef did     3 forward-backward iterations
 EnCoef did     7 forward-backward iterations
 Restarting incremental Fock formation.
 SCF Done:  E(RB3LYP) =  -2197.70072394     A.U. after   23 cycles
             Convg  =    0.8134D-08             -V/T =  2.0058

 **********************************************************************

            Population analysis using the SCF density.

 **********************************************************************

 Orbital symmetries:
       Occupied  (A) (A) (A) (A) (A) (A) (A) (A) (A) (A) (A) (A)
                 (A) (A) (A) (A) (A) (A) (A) (A) (A) (A) (A) (A)
                 (A) (A) (A) (A) (A) (A) (A) (A) (A) (A) (A) (A)
                 (A) (A) (A) (A) (A) (A) (A) (A) (A) (A) (A) (A)
                 (A) (A) (A) (A) (A) (A) (A) (A) (A) (A) (A) (A)
                 (A) (A) (A) (A) (A) (A) (A) (A) (A) (A) (A) (A)
                 (A) (A) (A) (A) (A) (A) (A) (A) (A) (A) (A) (A)
                 (A) (A) (A) (A) (A) (A) (A) (A) (A) (A) (A) (A)
                 (A) (A) (A) (A) (A) (A) (A)
       Virtual   (A) (A) (A) (A) (A) (A) (A) (A) (A) (A) (A) (A)
                 (A) (A) (A) (A) (A) (A) (A) (A) (A) (A) (A) (A)
                 (A) (A) (A) (A) (A) (A) (A) (A) (A) (A) (A) (A)
                 (A) (A) (A) (A) (A) (A) (A) (A) (A) (A) (A) (A)
                 (A) (A) (A) (A) (A) (A) (A) (A) (A) (A) (A) (A)
                 (A) (A) (A) (A) (A) (A) (A) (A) (A) (A) (A) (A)
                 (A) (A) (A) (A) (A) (A) (A) (A) (A) (A) (A) (A)
                 (A) (A) (A) (A) (A) (A) (A) (A) (A) (A) (A) (A)
                 (A) (A) (A) (A) (A) (A) (A) (A) (A) (A) (A) (A)
                 (A) (A) (A) (A) (A) (A) (A) (A) (A) (A) (A) (A)
                 (A) (A) (A) (A) (A) (A) (A) (A) (A) (A) (A) (A)
                 (A) (A) (A) (A) (A) (A) (A) (A) (A) (A) (A) (A)
                 (A) (A) (A) (A) (A) (A) (A) (A) (A) (A) (A) (A)
                 (A) (A) (A) (A) (A) (A) (A) (A) (A) (A) (A) (A)
                 (A) (A) (A) (A) (A) (A) (A) (A) (A) (A) (A) (A)
                 (A) (A) (A) (A) (A) (A) (A) (A) (A) (A) (A) (A)
                 (A) (A) (A) (A) (A) (A) (A) (A) (A) (A) (A) (A)
                 (A) (A) (A) (A) (A) (A) (A) (A) (A) (A) (A) (A)
                 (A) (A) (A) (A) (A) (A) (A) (A) (A) (A) (A) (A)
                 (A) (A) (A) (A) (A) (A) (A) (A) (A) (A) (A) (A)
                 (A) (A) (A) (A) (A) (A) (A) (A) (A) (A) (A) (A)
                 (A) (A) (A) (A) (A) (A) (A) (A) (A) (A) (A) (A)
                 (A) (A) (A) (A) (A) (A) (A) (A) (A) (A) (A) (A)
                 (A) (A) (A) (A) (A) (A) (A) (A) (A) (A) (A) (A)
                 (A) (A) (A) (A) (A) (A) (A) (A) (A) (A) (A) (A)
                 (A) (A) (A) (A) (A) (A) (A) (A) (A) (A) (A) (A)
                 (A) (A) (A) (A) (A) (A) (A) (A) (A) (A) (A) (A)
                 (A) (A) (A) (A) (A) (A) (A) (A) (A) (A) (A) (A)
                 (A) (A) (A) (A) (A) (A) (A) (A) (A) (A) (A) (A)
                 (A) (A) (A) (A) (A) (A) (A) (A) (A) (A) (A) (A)
                 (A) (A) (A) (A) (A) (A) (A) (A) (A) (A) (A) (A)
                 (A) (A) (A) (A) (A) (A) (A) (A) (A) (A) (A) (A)
                 (A) (A) (A) (A) (A) (A) (A) (A) (A) (A) (A) (A)
                 (A) (A) (A) (A) (A) (A) (A) (A) (A) (A) (A) (A)
                 (A) (A) (A) (A) (A) (A) (A) (A) (A) (A) (A) (A)
                 (A) (A) (A) (A) (A) (A) (A) (A) (A) (A) (A) (A)
                 (A) (A) (A) (A) (A) (A) (A) (A) (A) (A) (A) (A)
                 (A) (A) (A) (A) (A) (A) (A) (A) (A) (A) (A) (A)
                 (A) (A) (A) (A) (A) (A) (A) (A) (A) (A) (A)
 The electronic state is 1-A.
 Alpha  occ. eigenvalues --  -88.98373 -88.93752 -88.92318 -14.37438 -14.37318
 Alpha  occ. eigenvalues --  -14.36535 -14.35675 -14.35185 -10.26641 -10.25451
 Alpha  occ. eigenvalues --  -10.25397 -10.25116 -10.24837 -10.24657 -10.24579
 Alpha  occ. eigenvalues --  -10.24441 -10.24038 -10.23806 -10.23397 -10.21575
 Alpha  occ. eigenvalues --  -10.21549 -10.21155 -10.21144 -10.21100 -10.20856
 Alpha  occ. eigenvalues --  -10.20851 -10.20207  -8.03666  -7.99690  -7.98344
 Alpha  occ. eigenvalues --   -6.00226  -5.99626  -5.99447  -5.96082  -5.95687
 Alpha  occ. eigenvalues --   -5.95473  -5.94690  -5.94346  -5.94169  -1.02450
 Alpha  occ. eigenvalues --   -1.00140  -0.95120  -0.92418  -0.91562  -0.90638
 Alpha  occ. eigenvalues --   -0.89619  -0.84615  -0.81023  -0.80565  -0.79111
 Alpha  occ. eigenvalues --   -0.77903  -0.74814  -0.74397  -0.70687  -0.69236
 Alpha  occ. eigenvalues --   -0.68346  -0.65639  -0.63922  -0.63425  -0.60912
 Alpha  occ. eigenvalues --   -0.59153  -0.58464  -0.56679  -0.55022  -0.53504
 Alpha  occ. eigenvalues --   -0.52999  -0.52163  -0.50135  -0.49673  -0.47791
 Alpha  occ. eigenvalues --   -0.47342  -0.47197  -0.46878  -0.45995  -0.45524
 Alpha  occ. eigenvalues --   -0.44312  -0.42973  -0.42048  -0.41639  -0.40645
 Alpha  occ. eigenvalues --   -0.40406  -0.40239  -0.39055  -0.38309  -0.38074
 Alpha  occ. eigenvalues --   -0.37528  -0.36259  -0.35918  -0.35414  -0.34290
 Alpha  occ. eigenvalues --   -0.33979  -0.33751  -0.32007  -0.30663  -0.28858
 Alpha  occ. eigenvalues --   -0.28723  -0.28134  -0.27601  -0.27027  -0.25788
 Alpha  occ. eigenvalues --   -0.24302  -0.22885  -0.19291
 Alpha virt. eigenvalues --   -0.12496  -0.09183  -0.06907  -0.03701  -0.01456
 Alpha virt. eigenvalues --   -0.01345  -0.01182  -0.00717  -0.00581   0.00070
 Alpha virt. eigenvalues --    0.00130   0.00919   0.01136   0.01426   0.01792
 Alpha virt. eigenvalues --    0.02220   0.02732   0.02801   0.03003   0.03210
 Alpha virt. eigenvalues --    0.03574   0.04132   0.04416   0.04820   0.04872
 Alpha virt. eigenvalues --    0.05096   0.05839   0.05998   0.06300   0.06430
 Alpha virt. eigenvalues --    0.07018   0.07371   0.08239   0.08623   0.08869
 Alpha virt. eigenvalues --    0.08938   0.08985   0.09469   0.09698   0.10424
 Alpha virt. eigenvalues --    0.10581   0.10680   0.10876   0.11182   0.11412
 Alpha virt. eigenvalues --    0.11593   0.11729   0.11829   0.12079   0.12252
 Alpha virt. eigenvalues --    0.12523   0.13086   0.13263   0.13479   0.13570
 Alpha virt. eigenvalues --    0.13742   0.13891   0.14245   0.14406   0.14617
 Alpha virt. eigenvalues --    0.14877   0.15446   0.15763   0.16144   0.16245
 Alpha virt. eigenvalues --    0.16295   0.16758   0.16898   0.17149   0.17757
 Alpha virt. eigenvalues --    0.18101   0.18236   0.18590   0.18697   0.19002
 Alpha virt. eigenvalues --    0.19258   0.19423   0.19891   0.20173   0.20914
 Alpha virt. eigenvalues --    0.21072   0.21273   0.21386   0.21943   0.22139
 Alpha virt. eigenvalues --    0.22255   0.22732   0.22815   0.23352   0.23823
 Alpha virt. eigenvalues --    0.23871   0.24141   0.24422   0.24645   0.24728
 Alpha virt. eigenvalues --    0.25044   0.25246   0.25538   0.25798   0.26095
 Alpha virt. eigenvalues --    0.26384   0.26632   0.26669   0.26966   0.27457
 Alpha virt. eigenvalues --    0.27526   0.27674   0.28213   0.28377   0.28415
 Alpha virt. eigenvalues --    0.29119   0.29293   0.29621   0.29798   0.29890
 Alpha virt. eigenvalues --    0.30337   0.30431   0.30945   0.31641   0.31790
 Alpha virt. eigenvalues --    0.32175   0.32416   0.32480   0.32823   0.32889
 Alpha virt. eigenvalues --    0.33512   0.34173   0.34495   0.34958   0.35540
 Alpha virt. eigenvalues --    0.35853   0.35962   0.36295   0.37068   0.37482
 Alpha virt. eigenvalues --    0.37862   0.38407   0.39011   0.39484   0.40140
 Alpha virt. eigenvalues --    0.40419   0.41019   0.42700   0.42867   0.43730
 Alpha virt. eigenvalues --    0.44214   0.44577   0.45012   0.45484   0.46163
 Alpha virt. eigenvalues --    0.47334   0.47894   0.49601   0.49826   0.50366
 Alpha virt. eigenvalues --    0.50592   0.51611   0.52134   0.52316   0.53720
 Alpha virt. eigenvalues --    0.54965   0.55365   0.58082   0.58880   0.59666
 Alpha virt. eigenvalues --    0.61062   0.62271   0.62355   0.63210   0.64774
 Alpha virt. eigenvalues --    0.65561   0.65654   0.65935   0.66446   0.66902
 Alpha virt. eigenvalues --    0.67066   0.67291   0.67862   0.68266   0.68571
 Alpha virt. eigenvalues --    0.69071   0.69696   0.70146   0.71049   0.71434
 Alpha virt. eigenvalues --    0.72003   0.72191   0.73639   0.73858   0.74244
 Alpha virt. eigenvalues --    0.74613   0.74759   0.75834   0.76157   0.76850
 Alpha virt. eigenvalues --    0.77872   0.78417   0.78554   0.78784   0.79245
 Alpha virt. eigenvalues --    0.80084   0.80425   0.81481   0.81999   0.82817
 Alpha virt. eigenvalues --    0.83968   0.84634   0.85432   0.85658   0.87732
 Alpha virt. eigenvalues --    0.89173   0.89724   0.90433   0.91444   0.91514
 Alpha virt. eigenvalues --    0.93351   0.93550   0.94638   0.95467   0.95957
 Alpha virt. eigenvalues --    0.96026   0.96866   0.97399   0.98437   0.98693
 Alpha virt. eigenvalues --    0.99728   0.99901   1.00617   1.01316   1.01777
 Alpha virt. eigenvalues --    1.02185   1.02576   1.03221   1.05191   1.05508
 Alpha virt. eigenvalues --    1.05818   1.06192   1.06497   1.08070   1.09544
 Alpha virt. eigenvalues --    1.10368   1.10832   1.11084   1.11479   1.12543
 Alpha virt. eigenvalues --    1.13256   1.13810   1.14253   1.15452   1.16246
 Alpha virt. eigenvalues --    1.17615   1.18087   1.19617   1.19890   1.20102
 Alpha virt. eigenvalues --    1.21178   1.21399   1.21895   1.22187   1.22620
 Alpha virt. eigenvalues --    1.23198   1.23609   1.23927   1.24432   1.25015
 Alpha virt. eigenvalues --    1.26854   1.27697   1.28718   1.28842   1.29785
 Alpha virt. eigenvalues --    1.30518   1.30840   1.31376   1.32813   1.33246
 Alpha virt. eigenvalues --    1.34046   1.34583   1.35040   1.36323   1.36903
 Alpha virt. eigenvalues --    1.38324   1.38396   1.38981   1.39631   1.39752
 Alpha virt. eigenvalues --    1.41284   1.41641   1.42638   1.45023   1.45156
 Alpha virt. eigenvalues --    1.45644   1.47146   1.47390   1.49143   1.51852
 Alpha virt. eigenvalues --    1.53514   1.53740   1.54887   1.55359   1.55520
 Alpha virt. eigenvalues --    1.58151   1.59327   1.63863   1.66653   1.68283
 Alpha virt. eigenvalues --    1.70757   1.72802   1.73288   1.74589   1.74979
 Alpha virt. eigenvalues --    1.76314   1.76426   1.77411   1.79292   1.80117
 Alpha virt. eigenvalues --    1.81334   1.81749   1.82247   1.82748   1.83276
 Alpha virt. eigenvalues --    1.85689   1.85879   1.86650   1.87534   1.88308
 Alpha virt. eigenvalues --    1.88609   1.90118   1.92230   1.92462   1.93419
 Alpha virt. eigenvalues --    1.94650   1.95560   1.96996   1.97148   1.97648
 Alpha virt. eigenvalues --    1.97891   1.99069   1.99496   2.00546   2.01815
 Alpha virt. eigenvalues --    2.02403   2.03821   2.05289   2.05659   2.08753
 Alpha virt. eigenvalues --    2.09685   2.11316   2.14949   2.15967   2.16131
 Alpha virt. eigenvalues --    2.17961   2.19639   2.19816   2.21546   2.23018
 Alpha virt. eigenvalues --    2.23822   2.25739   2.27171   2.28003   2.28481
 Alpha virt. eigenvalues --    2.29074   2.30105   2.31881   2.32345   2.32565
 Alpha virt. eigenvalues --    2.33572   2.35127   2.35731   2.37174   2.37807
 Alpha virt. eigenvalues --    2.39355   2.40386   2.42595   2.42764   2.43622
 Alpha virt. eigenvalues --    2.43767   2.44835   2.46009   2.46559   2.46758
 Alpha virt. eigenvalues --    2.47765   2.49142   2.50338   2.51283   2.52108
 Alpha virt. eigenvalues --    2.55311   2.55755   2.56746   2.56846   2.57984
 Alpha virt. eigenvalues --    2.58637   2.60478   2.61014   2.62111   2.63470
 Alpha virt. eigenvalues --    2.63707   2.65747   2.66250   2.66655   2.68276
 Alpha virt. eigenvalues --    2.68751   2.69510   2.70754   2.72798   2.73056
 Alpha virt. eigenvalues --    2.75780   2.76161   2.77544   2.78240   2.82941
 Alpha virt. eigenvalues --    2.83795   2.85144   2.88885   2.89585   2.90874
 Alpha virt. eigenvalues --    2.94283   2.96874   2.98084   3.00957   3.04116
 Alpha virt. eigenvalues --    3.05783   3.06866   3.10754   3.14081   3.16755
 Alpha virt. eigenvalues --    3.21962   3.24587   3.26001   3.30073   3.32515
 Alpha virt. eigenvalues --    3.33336   3.34881   3.39681   3.41870   3.43888
 Alpha virt. eigenvalues --    3.51658   3.66552   3.72582   3.75337   3.78572
 Alpha virt. eigenvalues --    3.98057   3.99410   4.00083   4.17323   4.23181
 Alpha virt. eigenvalues --    4.29250   4.30320   4.31002   4.31787   4.33332
 Alpha virt. eigenvalues --    4.34475   4.35837   4.38848   4.41968   4.44246
 Alpha virt. eigenvalues --    4.47467   4.49109   4.53963   4.55409   4.58052
 Alpha virt. eigenvalues --    4.58446   4.63036   4.63291   4.77476   4.78226
 Alpha virt. eigenvalues --    4.87828   4.93055
          Condensed to atoms (all electrons):
              1          2          3          4          5          6
     1  C   12.360788  -0.963769  -0.757179  -2.356419  -1.381108   0.574938
     2  S   -0.963769  16.801414  -0.088339   0.079587   0.225502  -0.118635
     3  C   -0.757179  -0.088339  14.166192  -4.048912  -0.465154  -1.987358
     4  C   -2.356419   0.079587  -4.048912  10.585394   0.495511  -0.283748
     5  C   -1.381108   0.225502  -0.465154   0.495511   8.298333   0.162567
     6  C    0.574938  -0.118635  -1.987358  -0.283748   0.162567  12.643210
     7  C   -0.294825  -0.069731   2.239240   0.553685  -2.376318  -5.218222
     8  C    0.085098   0.351838  -2.296862   0.066033   1.500353  -0.305484
     9  C   -1.851546   0.039582  -1.283646   1.764442  -1.159175   1.411939
    10  C    0.041730   0.136991  -0.202503  -0.135999   0.199679  -0.105621
    11  S   -0.064530   0.019605   0.048781  -0.416233   0.422287  -0.272384
    12  C    0.012151   0.005150   0.070936  -0.418248   0.778451  -0.471320
    13  C   -0.001538   0.000751  -0.002211   0.039750  -0.054688  -0.058542
    14  N    0.000019  -0.000034   0.001125   0.000557   0.008665   0.013085
    15  C   -0.000165   0.000016   0.003981  -0.008925  -0.029276   0.014081
    16  C    0.000058   0.000009  -0.001207   0.002896   0.018411  -0.009449
    17  C   -0.000099  -0.000004  -0.002702  -0.001254  -0.035616  -0.010488
    18  N    0.000000  -0.000000   0.000023  -0.000096   0.000608   0.000151
    19  S    0.000008   0.000042   0.001234  -0.001273   0.000899  -0.000157
    20  N    0.000027  -0.000077  -0.001389   0.001044   0.008767  -0.000085
    21  C   -0.000119  -0.000012  -0.000590  -0.052612  -0.068538  -0.076238
    22  C    0.035309   0.002505   0.249899  -0.086992  -0.098564  -0.048177
    23  N   -0.002026  -0.006405  -0.062637   0.024614  -0.015148   0.016290
    24  C    0.014275   0.073954   0.514606  -0.303401  -0.090212  -0.023636
    25  C   -0.037688  -0.009691  -0.259771   0.038214   0.047277  -0.011617
    26  N    0.017864   0.046040   0.417621  -0.307223  -0.054373  -0.062467
    27  C   -0.160472  -0.065495  -0.165084   0.462304  -0.133784  -0.091274
    28  H    0.293138  -0.064678   0.077301   0.000036  -0.002662  -0.023126
    29  H    0.340592  -0.436821   0.279356   0.071663  -0.099943   0.056091
    30  H    0.044434  -0.005426  -0.005310  -0.006871  -0.193862   0.368614
    31  H   -0.057605   0.003136   0.022848   0.068738  -0.006350  -0.201393
    32  H   -0.258698   0.008045  -0.026592   0.084605   0.121649   0.067451
    33  H   -0.000019  -0.000003   0.000095  -0.000418  -0.001767  -0.000169
    34  H    0.000001   0.000000  -0.000008   0.000043   0.000276  -0.000111
    35  H    0.000610  -0.000863  -0.000824   0.003601  -0.001348   0.000487
    36  H   -0.007902   0.001030  -0.011797   0.008564   0.001441  -0.001641
              7          8          9         10         11         12
     1  C   -0.294825   0.085098  -1.851546   0.041730  -0.064530   0.012151
     2  S   -0.069731   0.351838   0.039582   0.136991   0.019605   0.005150
     3  C    2.239240  -2.296862  -1.283646  -0.202503   0.048781   0.070936
     4  C    0.553685   0.066033   1.764442  -0.135999  -0.416233  -0.418248
     5  C   -2.376318   1.500353  -1.159175   0.199679   0.422287   0.778451
     6  C   -5.218222  -0.305484   1.411939  -0.105621  -0.272384  -0.471320
     7  C   13.752482  -1.136247  -0.915367  -1.023488  -0.533028  -0.094482
     8  C   -1.136247  11.250288  -3.316347   0.198594   0.225038   0.048249
     9  C   -0.915367  -3.316347  11.276242   0.076140  -0.186149   0.058452
    10  C   -1.023488   0.198594   0.076140  12.630158   0.124250  -0.957797
    11  S   -0.533028   0.225038  -0.186149   0.124250  18.202355   0.728654
    12  C   -0.094482   0.048249   0.058452  -0.957797   0.728654  15.218771
    13  C   -0.044122  -0.001707  -0.011042   0.991298  -0.050701   3.516594
    14  N    0.004157  -0.000869   0.000638   0.017590   0.325975  -0.551847
    15  C    0.010579   0.000639  -0.003161  -0.173472  -0.255411  -0.273238
    16  C   -0.004201  -0.000381   0.001451   0.010459   0.275874  -0.263496
    17  C    0.001018   0.000173  -0.000782  -0.390911  -0.648886  -4.304291
    18  N    0.000011  -0.000000   0.000006  -0.002486  -0.000542   0.108606
    19  S    0.000085  -0.000020  -0.000010  -0.023672  -0.017951  -0.126696
    20  N   -0.000294   0.000023   0.000238   0.095778  -0.019968   0.000522
    21  C    0.004256  -0.000137   0.002142  -1.795811  -0.757328  -3.898229
    22  C    0.080536  -0.110095   0.035430  -1.230773  -0.677317  -0.810139
    23  N    0.001402   0.002795  -0.002008   0.027558   0.023420  -0.581305
    24  C    0.037160  -0.035826  -0.048454  -0.822597   0.086354  -0.077733
    25  C   -0.018086   0.036293   0.009916   0.729212   0.014349  -0.079219
    26  N   -0.009030  -0.006426  -0.047045  -0.241862   0.106791   0.051337
    27  C    0.452451  -0.060353  -0.273489  -1.393180  -0.818829  -0.990473
    28  H    0.026229  -0.101617   0.074112  -0.007840  -0.000451  -0.000095
    29  H   -0.028088  -0.022964   0.024139  -0.025000  -0.023338  -0.014878
    30  H    0.115283  -0.069353   0.100033  -0.084591  -0.010593  -0.013201
    31  H    0.499673  -0.057189   0.006455   0.004889  -0.001660  -0.000818
    32  H   -0.137451   0.531291  -0.105807  -0.000156   0.000642  -0.001209
    33  H    0.000958   0.000164  -0.000295  -0.012627  -0.027021  -0.005404
    34  H   -0.000059  -0.000008   0.000019   0.000596   0.002702   0.001517
    35  H    0.000307  -0.000238   0.000082  -0.023502   0.001783  -0.013571
    36  H   -0.000594   0.002028   0.003966   0.000225  -0.001408  -0.016117
             13         14         15         16         17         18
     1  C   -0.001538   0.000019  -0.000165   0.000058  -0.000099   0.000000
     2  S    0.000751  -0.000034   0.000016   0.000009  -0.000004  -0.000000
     3  C   -0.002211   0.001125   0.003981  -0.001207  -0.002702   0.000023
     4  C    0.039750   0.000557  -0.008925   0.002896  -0.001254  -0.000096
     5  C   -0.054688   0.008665  -0.029276   0.018411  -0.035616   0.000608
     6  C   -0.058542   0.013085   0.014081  -0.009449  -0.010488   0.000151
     7  C   -0.044122   0.004157   0.010579  -0.004201   0.001018   0.000011
     8  C   -0.001707  -0.000869   0.000639  -0.000381   0.000173  -0.000000
     9  C   -0.011042   0.000638  -0.003161   0.001451  -0.000782   0.000006
    10  C    0.991298   0.017590  -0.173472   0.010459  -0.390911  -0.002486
    11  S   -0.050701   0.325975  -0.255411   0.275874  -0.648886  -0.000542
    12  C    3.516594  -0.551847  -0.273238  -0.263496  -4.304291   0.108606
    13  C   13.641796   0.496796  -2.652072   2.668541  -9.540814   0.227164
    14  N    0.496796   7.145514  -0.450490   0.504090  -0.147820  -0.005351
    15  C   -2.652072  -0.450490   8.622757  -4.667023   3.818908   0.066046
    16  C    2.668541   0.504090  -4.667023  18.489967  -6.633393  -0.682090
    17  C   -9.540814  -0.147820   3.818908  -6.633393  22.925090  -0.248485
    18  N    0.227164  -0.005351   0.066046  -0.682090  -0.248485   7.469544
    19  S    0.011908   0.001405  -0.044301  -0.053719  -0.198022   0.046221
    20  N   -0.616783   0.012964   0.101337  -0.095291   1.153846  -0.165909
    21  C   -1.538356  -0.097899   1.089894  -3.264237  -0.851759   0.614291
    22  C   -0.149779  -0.001997   0.036616   0.003474   0.313492   0.013086
    23  N   -0.130286   0.010726   0.018700   0.020037   0.200847  -0.009790
    24  C   -0.110478   0.015062  -0.003506   0.020825   0.185374  -0.006200
    25  C   -0.037296  -0.007497   0.008027  -0.014642  -0.037335   0.004832
    26  N   -0.006910   0.002866  -0.002643   0.002480  -0.007393  -0.000178
    27  C   -0.253657  -0.071881   0.165052  -0.176653   0.276480   0.010699
    28  H    0.000014  -0.000000   0.000000   0.000000  -0.000001  -0.000000
    29  H    0.000551   0.000025  -0.000105  -0.000312  -0.001732   0.000024
    30  H   -0.007262   0.005311   0.000532   0.000164  -0.000191  -0.000004
    31  H   -0.000108   0.000046  -0.000055   0.000052  -0.000013  -0.000000
    32  H    0.000105  -0.000010   0.000003  -0.000005   0.000004  -0.000000
    33  H   -0.141373  -0.152646   0.688956  -0.478379   0.231545   0.000106
    34  H    0.104571   0.024098  -0.281766   0.726558  -0.247853  -0.027277
    35  H   -0.008105   0.000304   0.000220   0.000090   0.013302  -0.000733
    36  H   -0.005550  -0.000076   0.000233   0.000063   0.004026  -0.000015
             19         20         21         22         23         24
     1  C    0.000008   0.000027  -0.000119   0.035309  -0.002026   0.014275
     2  S    0.000042  -0.000077  -0.000012   0.002505  -0.006405   0.073954
     3  C    0.001234  -0.001389  -0.000590   0.249899  -0.062637   0.514606
     4  C   -0.001273   0.001044  -0.052612  -0.086992   0.024614  -0.303401
     5  C    0.000899   0.008767  -0.068538  -0.098564  -0.015148  -0.090212
     6  C   -0.000157  -0.000085  -0.076238  -0.048177   0.016290  -0.023636
     7  C    0.000085  -0.000294   0.004256   0.080536   0.001402   0.037160
     8  C   -0.000020   0.000023  -0.000137  -0.110095   0.002795  -0.035826
     9  C   -0.000010   0.000238   0.002142   0.035430  -0.002008  -0.048454
    10  C   -0.023672   0.095778  -1.795811  -1.230773   0.027558  -0.822597
    11  S   -0.017951  -0.019968  -0.757328  -0.677317   0.023420   0.086354
    12  C   -0.126696   0.000522  -3.898229  -0.810139  -0.581305  -0.077733
    13  C    0.011908  -0.616783  -1.538356  -0.149779  -0.130286  -0.110478
    14  N    0.001405   0.012964  -0.097899  -0.001997   0.010726   0.015062
    15  C   -0.044301   0.101337   1.089894   0.036616   0.018700  -0.003506
    16  C   -0.053719  -0.095291  -3.264237   0.003474   0.020037   0.020825
    17  C   -0.198022   1.153846  -0.851759   0.313492   0.200847   0.185374
    18  N    0.046221  -0.165909   0.614291   0.013086  -0.009790  -0.006200
    19  S   15.681716  -0.154601  -0.054552   0.075252   0.013005  -0.023948
    20  N   -0.154601   8.016324  -0.709732   0.027037  -0.047609  -0.130845
    21  C   -0.054552  -0.709732  15.143374   0.673809   0.160029   0.294902
    22  C    0.075252   0.027037   0.673809   7.097745   0.216569   0.471513
    23  N    0.013005  -0.047609   0.160029   0.216569   7.204751  -0.474705
    24  C   -0.023948  -0.130845   0.294902   0.471513  -0.474705   9.583985
    25  C   -0.014100   0.116184  -0.067172  -0.689607   0.561911  -3.515655
    26  N    0.001398  -0.008803  -0.040886   0.088907  -0.136019   0.601723
    27  C    0.029846  -0.009188   1.093124   0.500154   0.143774  -0.650717
    28  H    0.000000   0.000000  -0.000024   0.000331  -0.000029   0.000489
    29  H   -0.000279   0.001721  -0.011200  -0.012578   0.010263  -0.129781
    30  H    0.000025  -0.000093  -0.000185   0.004770  -0.000599   0.003537
    31  H   -0.000000  -0.000003   0.000047   0.001980  -0.000035   0.000262
    32  H   -0.000000  -0.000001  -0.000014  -0.000857   0.000025  -0.000211
    33  H    0.000452   0.002537   0.074722   0.005094   0.000513  -0.000126
    34  H   -0.002585  -0.008238  -0.028298  -0.002553   0.000513   0.000239
    35  H   -0.003711  -0.014059   0.024168  -0.030022  -0.145783   0.627814
    36  H    0.000539  -0.001874   0.017534  -0.026660   0.018357  -0.191597
             25         26         27         28         29         30
     1  C   -0.037688   0.017864  -0.160472   0.293138   0.340592   0.044434
     2  S   -0.009691   0.046040  -0.065495  -0.064678  -0.436821  -0.005426
     3  C   -0.259771   0.417621  -0.165084   0.077301   0.279356  -0.005310
     4  C    0.038214  -0.307223   0.462304   0.000036   0.071663  -0.006871
     5  C    0.047277  -0.054373  -0.133784  -0.002662  -0.099943  -0.193862
     6  C   -0.011617  -0.062467  -0.091274  -0.023126   0.056091   0.368614
     7  C   -0.018086  -0.009030   0.452451   0.026229  -0.028088   0.115283
     8  C    0.036293  -0.006426  -0.060353  -0.101617  -0.022964  -0.069353
     9  C    0.009916  -0.047045  -0.273489   0.074112   0.024139   0.100033
    10  C    0.729212  -0.241862  -1.393180  -0.007840  -0.025000  -0.084591
    11  S    0.014349   0.106791  -0.818829  -0.000451  -0.023338  -0.010593
    12  C   -0.079219   0.051337  -0.990473  -0.000095  -0.014878  -0.013201
    13  C   -0.037296  -0.006910  -0.253657   0.000014   0.000551  -0.007262
    14  N   -0.007497   0.002866  -0.071881  -0.000000   0.000025   0.005311
    15  C    0.008027  -0.002643   0.165052   0.000000  -0.000105   0.000532
    16  C   -0.014642   0.002480  -0.176653   0.000000  -0.000312   0.000164
    17  C   -0.037335  -0.007393   0.276480  -0.000001  -0.001732  -0.000191
    18  N    0.004832  -0.000178   0.010699  -0.000000   0.000024  -0.000004
    19  S   -0.014100   0.001398   0.029846   0.000000  -0.000279   0.000025
    20  N    0.116184  -0.008803  -0.009188   0.000000   0.001721  -0.000093
    21  C   -0.067172  -0.040886   1.093124  -0.000024  -0.011200  -0.000185
    22  C   -0.689607   0.088907   0.500154   0.000331  -0.012578   0.004770
    23  N    0.561911  -0.136019   0.143774  -0.000029   0.010263  -0.000599
    24  C   -3.515655   0.601723  -0.650717   0.000489  -0.129781   0.003537
    25  C    8.859506  -0.284201   0.358277  -0.000684   0.047529  -0.004250
    26  N   -0.284201   7.154902   0.057815   0.000329  -0.097393  -0.000802
    27  C    0.358277   0.057815   7.348149   0.002777   0.008426  -0.009053
    28  H   -0.000684   0.000329   0.002777   0.552323  -0.002633   0.000593
    29  H    0.047529  -0.097393   0.008426  -0.002633   0.737113   0.002551
    30  H   -0.004250  -0.000802  -0.009053   0.000593   0.002551   0.717577
    31  H   -0.000177  -0.000038   0.002472  -0.000372  -0.001516  -0.024696
    32  H    0.000156   0.000006   0.002935  -0.009276   0.001137  -0.006750
    33  H    0.000312  -0.000130   0.006962  -0.000000   0.000009  -0.000602
    34  H   -0.000300   0.000018  -0.001944  -0.000000  -0.000002   0.000021
    35  H   -0.267291   0.018254  -0.003341   0.000007   0.002469   0.000086
    36  H    0.519903  -0.096675   0.042953  -0.000078  -0.013155  -0.000171
             31         32         33         34         35         36
     1  C   -0.057605  -0.258698  -0.000019   0.000001   0.000610  -0.007902
     2  S    0.003136   0.008045  -0.000003   0.000000  -0.000863   0.001030
     3  C    0.022848  -0.026592   0.000095  -0.000008  -0.000824  -0.011797
     4  C    0.068738   0.084605  -0.000418   0.000043   0.003601   0.008564
     5  C   -0.006350   0.121649  -0.001767   0.000276  -0.001348   0.001441
     6  C   -0.201393   0.067451  -0.000169  -0.000111   0.000487  -0.001641
     7  C    0.499673  -0.137451   0.000958  -0.000059   0.000307  -0.000594
     8  C   -0.057189   0.531291   0.000164  -0.000008  -0.000238   0.002028
     9  C    0.006455  -0.105807  -0.000295   0.000019   0.000082   0.003966
    10  C    0.004889  -0.000156  -0.012627   0.000596  -0.023502   0.000225
    11  S   -0.001660   0.000642  -0.027021   0.002702   0.001783  -0.001408
    12  C   -0.000818  -0.001209  -0.005404   0.001517  -0.013571  -0.016117
    13  C   -0.000108   0.000105  -0.141373   0.104571  -0.008105  -0.005550
    14  N    0.000046  -0.000010  -0.152646   0.024098   0.000304  -0.000076
    15  C   -0.000055   0.000003   0.688956  -0.281766   0.000220   0.000233
    16  C    0.000052  -0.000005  -0.478379   0.726558   0.000090   0.000063
    17  C   -0.000013   0.000004   0.231545  -0.247853   0.013302   0.004026
    18  N   -0.000000  -0.000000   0.000106  -0.027277  -0.000733  -0.000015
    19  S   -0.000000  -0.000000   0.000452  -0.002585  -0.003711   0.000539
    20  N   -0.000003  -0.000001   0.002537  -0.008238  -0.014059  -0.001874
    21  C    0.000047  -0.000014   0.074722  -0.028298   0.024168   0.017534
    22  C    0.001980  -0.000857   0.005094  -0.002553  -0.030022  -0.026660
    23  N   -0.000035   0.000025   0.000513   0.000513  -0.145783   0.018357
    24  C    0.000262  -0.000211  -0.000126   0.000239   0.627814  -0.191597
    25  C   -0.000177   0.000156   0.000312  -0.000300  -0.267291   0.519903
    26  N   -0.000038   0.000006  -0.000130   0.000018   0.018254  -0.096675
    27  C    0.002472   0.002935   0.006962  -0.001944  -0.003341   0.042953
    28  H   -0.000372  -0.009276  -0.000000  -0.000000   0.000007  -0.000078
    29  H   -0.001516   0.001137   0.000009  -0.000002   0.002469  -0.013155
    30  H   -0.024696  -0.006750  -0.000602   0.000021   0.000086  -0.000171
    31  H    0.623380  -0.004044  -0.000001   0.000001   0.000002   0.000011
    32  H   -0.004044   0.646981   0.000002  -0.000000  -0.000001  -0.000012
    33  H   -0.000001   0.000002   0.679768  -0.026697   0.000001   0.000004
    34  H    0.000001  -0.000000  -0.026697   0.593951  -0.000001  -0.000001
    35  H    0.000002  -0.000001   0.000001  -0.000001   0.675743  -0.011056
    36  H    0.000011  -0.000012   0.000004  -0.000001  -0.011056   0.643950
 Mulliken atomic charges:
              1
     1  C    0.374667
     2  S    0.034788
     3  C   -0.423165
     4  C    0.077342
     5  C   -0.022790
     6  C    0.052438
     7  C    0.124120
     8  C   -0.776774
     9  C    0.318901
    10  C   -0.631257
    11  S    0.174868
    12  C   -0.635585
    13  C   -0.276455
    14  N   -0.102602
    15  C    0.199031
    16  C   -0.401019
    17  C    0.185739
    18  N   -0.412262
    19  S    0.855560
    20  N   -0.553506
    21  C    0.121635
    22  C    0.042603
    23  N   -0.061714
    24  C    0.107554
    25  C    0.004381
    26  N   -0.157855
    27  C    0.364220
    28  H    0.185886
    29  H    0.338061
    30  H    0.080330
    31  H    0.122078
    32  H    0.086058
    33  H    0.155477
    34  H    0.172576
    35  H    0.155118
    36  H    0.121552
 Sum of Mulliken atomic charges =  -0.00000
 Mulliken charges with hydrogens summed into heavy atoms:
              1
     1  C    0.560553
     2  S    0.034788
     3  C   -0.085104
     4  C    0.077342
     5  C   -0.022790
     6  C    0.132768
     7  C    0.246198
     8  C   -0.690716
     9  C    0.318901
    10  C   -0.631257
    11  S    0.174868
    12  C   -0.635585
    13  C   -0.276455
    14  N   -0.102602
    15  C    0.354509
    16  C   -0.228443
    17  C    0.185739
    18  N   -0.412262
    19  S    0.855560
    20  N   -0.553506
    21  C    0.121635
    22  C    0.042603
    23  N   -0.061714
    24  C    0.262672
    25  C    0.125933
    26  N   -0.157855
    27  C    0.364220
 Sum of Mulliken charges with hydrogens summed into heavy atoms =  -0.00000
 Electronic spatial extent (au):  <R**2>=          13761.3187
 Charge=             -0.0000 electrons
 Dipole moment (field-independent basis, Debye):
    X=              2.1427    Y=             -0.7959    Z=             -0.0463  Tot=              2.2862
 Quadrupole moment (field-independent basis, Debye-Ang):
   XX=           -168.1649   YY=           -155.7891   ZZ=           -179.2257
   XY=              3.4207   XZ=              0.0462   YZ=             -0.2620
 Traceless Quadrupole moment (field-independent basis, Debye-Ang):
   XX=             -0.4383   YY=             11.9375   ZZ=            -11.4991
   XY=              3.4207   XZ=              0.0462   YZ=             -0.2620
 Octapole moment (field-independent basis, Debye-Ang**2):
  XXX=            164.9670  YYY=            -37.1912  ZZZ=              1.0114  XYY=            -16.2552
  XXY=             41.1770  XXZ=              0.0287  XZZ=            -21.4716  YZZ=            -10.3981
  YYZ=             -1.2555  XYZ=             -5.2271
 Hexadecapole moment (field-independent basis, Debye-Ang**3):
 XXXX=         -15159.9652 YYYY=          -3116.6633 ZZZZ=           -229.2125 XXXY=            137.3543
 XXXZ=              4.6206 YYYX=             30.9874 YYYZ=              2.4051 ZZZX=              7.5149
 ZZZY=              0.2254 XXYY=          -2853.2606 XXZZ=          -2766.3370 YYZZ=           -658.4084
 XXYZ=            -13.1872 YYXZ=             -5.9854 ZZXY=             -0.1657
 N-N= 2.682450697131D+03 E-N=-1.052974073718D+04  KE= 2.185108807961D+03
 Calling FoFJK, ICntrl=      2127 FMM=F ISym2X=0 I1Cent= 0 IOpClX= 0 NMat=1 NMatS=1 NMatT=0.
 ***** Axes restored to original set *****
 -------------------------------------------------------------------
 Center     Atomic                   Forces (Hartrees/Bohr)
 Number     Number              X              Y              Z
 -------------------------------------------------------------------
      1        6          -0.024417822    0.015758885   -0.010360097
      2       16           0.005887458    0.007736036    0.018101501
      3        6          -0.035213428   -0.005229193   -0.011500157
      4        6          -0.022806755   -0.003064336    0.010001945
      5        6           0.038502976    0.021984323   -0.002377955
      6        6          -0.007801031   -0.018950968    0.001071202
      7        6          -0.004245183    0.014483987    0.000777373
      8        6           0.042042217   -0.032718256   -0.002335928
      9        6          -0.011630130    0.024723498    0.005426039
     10        6           0.021466565    0.030499074   -0.003082260
     11       16           0.014953437    0.009425547   -0.002346637
     12        6           0.039068069   -0.016279916   -0.006699470
     13        6           0.032398662    0.013553609   -0.005449470
     14        7          -0.031494161   -0.001621138    0.004999700
     15        6           0.000311142   -0.001563215   -0.000112723
     16        6          -0.002744866    0.018121106    0.000383100
     17        6          -0.015737581   -0.006043497    0.002536783
     18        7           0.002017358   -0.004262246   -0.000437399
     19       16           0.015324380    0.007011865   -0.002190104
     20        7           0.000361324   -0.008980933   -0.000194074
     21        6           0.005279149   -0.044019920   -0.000725572
     22        6          -0.029483280   -0.023276400    0.005171302
     23        7          -0.027884212    0.024982454    0.004760204
     24        6           0.031568773   -0.038948116   -0.006340816
     25        6           0.000792083    0.051446820    0.001389297
     26        7          -0.020707771   -0.028436478    0.004335438
     27        6          -0.018485485    0.008130739    0.003070598
[...]
 .00000273,-0.00000286,0.00000429,0.00001195,0.00000600,-0.00000571,-0.
 00000754,-0.00000459,0.00001452,-0.00000010,0.00000359,0.00003309,-0.0
 0001784,-0.00002258,-0.00001429,-0.00002708,0.00000500,0.00003464,-0.0
 0002951,-0.00000645,0.00004180,0.00008703,-0.00001807,-0.00008330,-0.0
 0002432,0.00003622,0.00016057,0.00006966,-0.00012510,-0.00012207,0.000
 00941,0.00020408,-0.00001685,0.00000476,0.00000568,0.00124032,-0.00014
 718,-0.00167355,0.10541376,0.05582972,0.07667589,0.00083410,0.00012160
 ,0.00150301,0.00003911,-0.00008560,0.00019888,0.00007226,-0.00135487,0
 .00010060,-0.00270513,-0.00056342,-0.00341267,-0.00084450,-0.00012341,
 -0.00008502,-0.00194925,0.00155224,-0.00523104,0.00497257,0.02574763,0
 .00022572,-0.05443984,-0.00268526,-0.00917551,0.00402299,-0.02510934,0
 .00035102,-0.00009221,0.00008295,0.00056824,0.00004467,0.00001257,0.00
 002827,0.00002526,0.00005065,-0.00000831,0.00002811,-0.00003972,-0.000
 03574,-0.00003245,0.00001357,0.00000789,0.00001960,-0.00000671,0.00000
 151,-0.00000795,0.00000603,-0.00000176,-0.00000107,0.00000350,0.000005
 82,-0.00000936,0.00000341,-0.00000177,0.00001297,0.00000666,0.00000404
 ,-0.00000700,-0.00000751,-0.00000067,0.00000438,0.00000988,-0.00000053
 ,-0.00005302,0.00005726,0.00002473,0.00000484,-0.00000793,-0.00000882,
 -0.00000199,0.00000682,-0.00000279,0.00001772,-0.00000677,0.00000279,0
 .00002746,-0.00001268,0.00003112,-0.00007362,-0.00008145,-0.00003231,-
 0.00023635,0.00037791,-0.00029846,-0.00026851,-0.00011395,-0.00035162,
 0.00010465,0.00121829,-0.00000312,-0.00020629,-0.00032599,0.00249196,0
 .05069827,0.00092498,0.00097606,0.00049486,-0.00039372,-0.00025840,-0.
 00020439,0.00022472,-0.00058892,0.00014218,-0.00190033,0.00125565,-0.0
 0096815,-0.00023628,0.00040189,-0.00014654,0.00283127,0.00097802,0.001
 33414,-0.00260756,-0.01185741,-0.00124559,-0.00099437,-0.33961286,-0.0
 0081414,0.00171476,-0.01132054,0.00080845,0.00003031,0.00003022,-0.000
 00440,-0.00001121,0.00004829,0.00006269,0.00002479,-0.00004055,-0.0000
 3268,-0.00006442,0.00007061,0.00001486,0.00004766,-0.00001314,-0.00000
 101,-0.00002715,0.00000462,-0.00000666,0.00001417,-0.00000581,0.000001
 26,-0.00000490,-0.00000756,-0.00000224,0.00002030,-0.00000977,0.000001
 92,-0.00002018,-0.00000057,-0.00000415,0.00001198,0.00000620,0.0000014
 0,-0.00000528,-0.00002237,-0.00000568,-0.00002021,-0.00001674,0.000015
 38,0.00001404,-0.00001237,0.00000661,-0.00001999,0.00003082,-0.0000024
 4,0.00001154,-0.00002650,-0.00000343,0.00002542,-0.00001651,0.00002302
 ,-0.00003928,-0.00003113,-0.00001612,-0.00061563,0.00005340,-0.0003263
 5,-0.00020595,0.00002589,-0.00012040,-0.00015834,-0.00068235,-0.000087
 92,0.00017991,0.00093400,0.00007346,0.00125317,0.35971686,0.00148621,0
 .00005132,-0.00143530,0.00024987,-0.00004166,-0.00025071,-0.00005193,-
 0.00076548,-0.00007958,-0.00318015,-0.00043891,0.00271466,-0.00028753,
 0.00016510,-0.00084506,-0.00511625,0.00081025,0.00642185,0.00008834,0.
 01227490,0.00469527,-0.00934835,-0.00163063,-0.04018332,0.00051627,-0.
 01199014,0.00363315,0.00058158,-0.00010396,-0.00099653,0.00002296,-0.0
 0017096,-0.00010542,-0.00004637,-0.00007190,0.00005732,0.00000515,-0.0
 0001367,0.00001018,0.00000904,-0.00000439,-0.00001306,-0.00000160,0.00
 000973,0.00000718,-0.00000571,-0.00000478,0.00000114,0.00000303,0.0000
 0043,-0.00000424,-0.00000217,0.00000167,0.00000025,0.00000050,-0.00000
 121,0.00000001,-0.00000106,0.00000078,0.00000061,-0.00000136,0.0000047
 0,0.00000437,0.00012380,-0.00002425,-0.00005280,-0.00003186,0.00000603
 ,0.00001845,0.00003309,-0.00004876,-0.00002324,0.00000089,0.00007927,-
 0.00004616,-0.00005202,-0.00003336,0.00002064,0.00005725,0.00025113,0.
 00010625,-0.00029484,0.00017101,0.00020566,-0.00035472,0.00001020,0.00
 019156,-0.00006684,0.00062483,0.00008603,0.00254450,-0.00013048,-0.004
 12367,0.01310964,0.00100872,0.02997441,0.00001161,0.00002173,0.0000024
 9,-0.00001361,-0.00001677,-0.00000651,-0.00000506,-0.00001410,-0.00000
 354,0.00003723,0.00003865,0.00001072,0.00001350,-0.00002527,0.00003512
 ,-0.00003312,0.00000613,-0.00000060,-0.00002388,0.00001197,-0.00002704
 ,0.00002637,0.00002891,0.00001553,-0.00001459,0.00000006,-0.00000655,-
 0.00015869,-0.00001433,0.00000726,-0.00003015,-0.00020717,0.00002162,-
 0.00061860,-0.00019777,0.00001181,0.00039749,0.00201462,0.00000216,-0.
 02423505,0.00556527,-0.00087784,-0.30829731,-0.06958253,-0.04838544,-0
 .00375473,-0.00005391,-0.00121633,0.00149786,-0.00058561,-0.00089646,-
 0.00031614,-0.00006390,-0.00016120,0.00003723,-0.00030151,0.00004443,-
 0.00000439,-0.00001314,0.00002677,0.00023376,0.00021532,0.00014327,0.0
 0012643,0.00019446,-0.00009979,-0.00002347,-0.00002905,0.00002625,-0.0
 0000116,-0.00001744,0.00000027,0.00002467,-0.00000799,-0.00002471,-0.0
 0007490,0.00003835,0.00004558,0.00006301,0.00016207,0.00001302,-0.0000
 0158,0.00000113,0.00000205,0.00000690,-0.00000339,0.00000745,-0.000008
 95,-0.00000809,-0.00000228,0.00000538,0.00001159,0.00000183,-0.0000028
 4,0.00000476,-0.00000032,0.33473138,-0.00000173,-0.00000295,-0.0000002
 2,-0.00000070,0.00000277,-0.00000105,0.00000073,0.00000178,0.00000345,
 -0.00000828,-0.00001002,-0.00000410,0.00000546,0.00002429,0.00000178,0
 .00000784,-0.00001430,0.00000445,-0.00000128,0.00000041,0.00000639,-0.
 00000249,-0.00000760,-0.00000015,0.00000209,-0.00000033,0.00000127,0.0
 0004933,-0.00004861,-0.00001464,-0.00001797,0.00005826,-0.00001479,0.0
 0061653,0.00056729,-0.00003512,0.00474676,-0.00147841,-0.00197792,0.03
 102384,0.00270125,0.00449109,-0.07075587,-0.07289033,-0.01631732,-0.02
 792065,-0.00161096,-0.00549128,0.00017679,-0.00435917,-0.00366743,-0.0
 0141007,0.00018675,-0.00047197,-0.00046743,-0.00041549,0.00015037,0.00
 002562,0.00038851,0.00025933,0.00035715,-0.00088013,-0.00021126,0.0000
 1041,-0.00028246,0.00003662,0.00000266,0.00001380,0.00002845,-0.000003
 43,0.00001754,-0.00000486,-0.00001471,-0.00000918,0.00001518,0.0000385
 8,-0.00003739,-0.00002064,-0.00000363,-0.00000548,-0.00005575,0.000000
 93,-0.00000020,-0.00000071,-0.00000156,0.00000054,-0.00000245,0.000005
 40,0.00000242,-0.00000451,-0.00000005,-0.00000517,-0.00000241,0.000000
 41,-0.00000015,-0.00000084,0.06323233,0.07774282,0.00000153,0.00000116
 ,-0.00000250,-0.00000041,-0.00000186,0.00000030,-0.00000454,-0.0000016
 0,-0.00000475,0.00000827,-0.00000141,0.00000410,0.00001023,0.00005026,
 0.00000007,-0.00000843,-0.00002254,-0.00000198,-0.00000795,0.00001428,
 -0.00000496,0.00001015,-0.00000250,0.00000037,-0.00000151,0.00000024,0
 .00000032,0.00006560,-0.00009719,-0.00004032,-0.00003322,0.00012200,0.
 00001699,-0.00010455,0.00012620,0.00052012,0.00065737,-0.00259984,0.00
 556038,0.00741188,0.00051953,-0.00007443,-0.04920724,-0.01524258,-0.05
 168789,-0.00939703,-0.00287563,0.00479636,-0.00080195,-0.00376642,0.00
 747046,-0.00049111,-0.00031449,0.00075731,0.00019486,0.00050891,-0.001
 24314,-0.00011269,0.00008389,-0.00034680,0.00022808,0.00024820,-0.0000
 4919,0.00011253,0.00000179,-0.00008736,-0.00007827,-0.00002593,0.00003
 390,0.00007039,-0.00001799,-0.00002474,-0.00000213,0.00003777,0.000008
 42,-0.00001513,-0.00000968,-0.00000561,-0.00001231,0.00001141,-0.00002
 070,-0.00000053,-0.00000010,0.00000127,-0.00000064,-0.00000104,0.00000
 229,-0.00000342,-0.00000135,0.00000451,-0.00000049,-0.00000069,0.00000
 163,-0.00000118,0.00000074,0.00000172,0.05089718,0.02193131,0.03819560
 ,-0.00000173,-0.00000178,0.00000005,0.00000297,0.00000124,0.00000195,0
 .00000312,0.00000189,0.00000172,-0.00000925,-0.00000072,0.00000092,-0.
 00001708,-0.00001203,-0.00002336,0.00001096,0.00000082,-0.00000009,0.0
 0000470,-0.00000318,0.00000534,-0.00000602,-0.00000411,-0.00000387,0.0
 0000100,0.00000129,-0.00000015,0.00007701,0.00003516,-0.00001485,0.000
 01072,0.00007606,0.00002773,0.00034529,-0.00011616,0.00018083,-0.00126
 923,-0.00075561,-0.00043475,0.00127093,-0.00227394,-0.00160474,0.01053
 470,-0.00772021,-0.00120841,-0.19158819,0.14344927,0.02389243,-0.01503
 751,0.02348431,0.00506009,0.00289454,0.00019335,0.00089063,-0.00059145
 ,0.00036371,0.00007703,-0.00167095,0.00065763,-0.00018940,-0.00220606,
 -0.00296717,-0.00190295,-0.00014618,-0.00001870,0.00002289,0.00003622,
 0.00004854,0.00002844,0.00000002,0.00002537,-0.00000505,0.,-0.00002190
 ,-0.00001088,0.00000837,0.00001614,-0.00000744,-0.00002616,-0.00009993
 ,0.00002220,0.00000056,0.00000007,-0.00000064,-0.00000110,-0.00000082,
 -0.00000173,0.00000045,0.00000068,0.00000043,-0.00000033,-0.00000135,-
 0.00000002,0.00000043,-0.00000030,0.00000012,0.00042708,0.00030066,0.0
 0061772,0.19694090,-0.00000264,-0.00000853,-0.00000012,0.00000486,0.00
 000361,0.00000203,-0.00000018,0.00000344,0.00000184,-0.00000900,-0.000
 01254,-0.00000472,0.00000744,0.00001421,0.00000044,0.00000126,-0.00000
 068,-0.00000452,0.00000832,-0.00000033,0.00000606,-0.00000497,-0.00000
 816,-0.00000243,0.00000546,0.00000012,0.00000421,0.00002471,0.00005644
 ,0.00003702,-0.00009291,0.00006719,-0.00008310,0.00032307,-0.00017187,
 0.00042054,-0.00162798,0.00003495,-0.00019075,-0.00205461,-0.00358111,
 -0.00374784,0.02213340,-0.01273180,-0.00175626,0.14331416,-0.20754128,
 -0.03521588,-0.00562491,0.00811200,0.00101802,0.00076850,0.00044236,0.
 00099490,0.00015296,0.00037979,0.00035724,-0.00093402,0.00027398,-0.00
 035571,-0.00133018,0.00026086,-0.00155752,-0.00006288,-0.00000739,0.00
 007652,0.00002207,0.00002478,0.00000036,-0.00000071,-0.00000529,0.0000
 0317,0.00001051,0.00001345,-0.00000592,-0.00001877,-0.00000621,-0.0000
 2381,0.00003938,-0.00006885,-0.00002763,0.00000055,-0.00000051,-0.0000
 0074,-0.00000240,0.00000115,-0.00000353,0.00000423,0.00000442,0.000004
 64,-0.00000152,-0.00000284,-0.00000155,0.00000113,-0.00000217,0.000000
 23,-0.00040175,0.00035112,0.00132542,-0.15466062,0.21410222,-0.0000016
 6,0.00000167,-0.00000278,0.00000117,0.00000176,0.,-0.00000156,-0.00000
 066,-0.00000136,-0.00000039,-0.00000391,-0.00000242,0.00000667,-0.0000
 0681,0.00000289,0.00000340,0.00001740,0.00000488,0.00000610,-0.0000127
 2,0.00000808,-0.00000961,0.00000103,-0.00000412,0.00000169,0.00000112,
 0.00000094,-0.00018264,0.00001216,0.00006311,-0.00004280,0.00019778,0.
 00001209,0.00007008,0.00068831,-0.00147725,-0.00029910,-0.00037520,0.0
 0003740,-0.00111498,-0.00398215,0.00753203,0.00721338,-0.00510968,0.00
 062874,0.02393928,-0.03532686,-0.04078213,-0.00380165,0.00457576,0.003
 87685,0.00097936,0.00092748,-0.00181644,0.00013572,0.00039576,-0.00044
 148,-0.00070489,-0.00009190,0.00047275,-0.00150364,-0.00191579,0.00412
 253,0.00024552,-0.00020792,-0.00006670,-0.00007952,-0.00003611,0.00000
 578,0.00006370,-0.00006299,-0.00004973,-0.00001751,0.00007037,-0.00000
 542,0.00000900,-0.00004000,0.00004720,0.00011350,0.00017683,-0.0000676
 2,-0.00000073,0.00000009,0.00000138,0.00000039,0.00000114,0.00000209,0
 .00000311,-0.00000043,-0.00000653,-0.00000126,-0.00000067,0.00000192,0
 .00000039,-0.00000023,-0.00000082,0.00038227,0.00137525,-0.00377972,-0
 .02542165,0.03872976,0.03168055,-0.00000056,-0.00000465,-0.00000127,0.
 00001484,0.00000163,0.00000956,0.00002194,0.00000219,0.00000560,-0.000
 03164,-0.00004393,-0.00001243,-0.00003923,-0.00003712,0.00001417,0.000
 01375,-0.00000783,-0.00000205,0.00004840,-0.00002381,0.00000448,-0.000
 03025,-0.00002388,-0.00001546,0.00001021,0.00000388,0.00000729,-0.0000
 1735,-0.00005080,-0.00053836,-0.00046515,-0.00018053,-0.00025107,0.000
 05519,-0.00087636,0.00034396,0.00026139,-0.00024090,0.00017381,-0.0001
 4468,0.00003529,0.00001013,0.00007105,-0.00002233,-0.00002563,-0.00002
 445,0.00002398,0.00000052,-0.00000180,0.00002686,0.00006034,-0.0000514
 1,0.00005012,-0.00004080,0.00003965,0.00006758,0.00009596,0.00002431,-
 0.00004012,-0.00006938,0.00001321,-0.00000579,-0.00008115,-0.00023417,
 0.00128087,0.00659661,-0.02797216,-0.02029975,0.01292273,-0.12335340,-
 0.10820006,0.05542741,0.01020942,0.00882742,-0.00357401,0.00044907,0.0
 0309893,0.00100338,-0.00111933,0.00037902,0.00079996,0.00000207,-0.000
 00051,-0.00000026,-0.00000813,-0.00000006,0.00001636,0.00001144,-0.000
 00114,0.00002710,-0.00000467,-0.00000657,0.00000024,0.00000155,-0.0000
 0353,0.00000533,-0.00001015,0.00000416,-0.00000033,0.00000205,0.000003
 32,0.00000600,0.14251499,-0.00000626,-0.00006895,-0.00001015,-0.000016
 64,0.00002538,0.00000797,-0.00003244,0.00000360,0.00004783,0.00000947,
 -0.00001623,0.00001919,0.00003702,0.00003977,-0.00000113,0.00001329,0.
 00001097,0.00000481,0.00001630,-0.00000912,0.00000991,-0.00001314,-0.0
 0001323,-0.00000871,0.00001805,0.00001875,0.00001656,-0.00013264,-0.00
 002055,-0.00006605,0.00005266,0.00026789,-0.00013532,-0.00023780,0.000
 34664,0.00009826,0.00006533,-0.00003543,0.00009991,-0.00007806,0.00000
 196,-0.00001408,0.00003054,-0.00002779,-0.00000856,0.00000539,0.000008
 16,0.00000569,0.00001353,0.00001658,0.00001139,-0.00003681,0.00002361,
 -0.00000885,0.00001600,-0.00003877,-0.00003067,-0.00003953,-0.00000787
 ,0.00010028,0.00004413,0.00002335,-0.00003737,0.00398012,0.00189465,-0
 .00045255,0.00242786,0.01396773,-0.00409706,-0.10952072,-0.22578223,0.
 07793423,-0.01853242,-0.01307506,0.01151770,0.00247015,-0.00657092,-0.
 00024056,0.00183608,0.00071391,-0.00078963,0.00000007,-0.00000171,-0.0
 0000587,-0.00001000,-0.00001361,-0.00007729,-0.00000105,-0.00000027,-0
 .00000112,-0.00000587,-0.00000673,-0.00000178,-0.00000077,-0.00000598,
 0.00000106,-0.00000475,-0.00000125,-0.00000139,-0.00000072,0.00000232,
 -0.00000092,0.11706769,0.22824180,0.00001873,0.00001952,0.00000688,-0.
 00001879,-0.00000529,-0.00000453,0.00003140,-0.00001789,0.00002436,0.0
 0000437,-0.00001963,0.00001202,0.00010018,-0.00008648,0.00002840,-0.00
 002899,0.00005414,0.00000860,0.00003715,-0.00003336,0.00000119,-0.0000
 0784,0.00000965,-0.00001113,-0.00002002,0.00000533,0.00000606,-0.00046
 843,0.00018615,-0.00094365,-0.00014211,-0.00002533,-0.00076142,0.00030
 825,0.00041799,0.00027738,0.00015317,0.00017889,0.00053206,0.00002227,
 -0.00007443,-0.00002639,0.00000771,-0.00004484,-0.00006651,0.00007084,
 -0.00000791,0.00002050,-0.00008317,0.00002211,0.00000355,0.00008684,-0
 .00008796,0.00000037,0.00010430,0.00002010,-0.00002049,0.00006937,-0.0
 0005771,-0.00015277,-0.00014336,-0.00006639,-0.00015663,0.00569824,0.0
 0055129,0.01057265,0.01050959,0.00734885,-0.01319313,0.05536735,0.0780
 7615,-0.07566334,0.00009185,-0.00292423,0.00547427,0.00092983,0.000018
 63,0.00244730,0.00035451,-0.00025865,0.00048245,0.00000154,0.00000070,
 -0.00000296,0.00001339,-0.00001010,0.00002538,0.00000597,-0.00001609,0
 .00001880,0.00000057,0.00000618,-0.00000158,-0.00000186,0.00000076,0.0
 0000477,0.00000605,-0.00000399,-0.00000073,-0.00000020,-0.00000088,0.0
 0000221,-0.07247680,-0.08339176,0.07211905,-0.00001059,-0.00004707,-0.
 00002054,0.00001635,0.00002171,0.00002628,-0.00000432,-0.00002009,0.00
 002047,-0.00001714,-0.00003451,-0.00004550,0.00008634,0.00010696,0.000
 20422,-0.00001968,0.00000527,-0.00000877,0.00003774,0.00000760,-0.0000
 0863,-0.00002383,-0.00002234,-0.00000947,0.00003216,0.00000164,0.00004
 124,-0.00034939,0.00022860,0.00040745,-0.00023034,-0.00025664,-0.00035
 254,-0.00019982,0.00020580,-0.00037599,0.00009677,-0.00014379,-0.00005
 953,-0.00009815,0.00001980,0.00002075,0.00004513,0.00004857,0.00002159
 ,-0.00004896,-0.00000148,-0.00000953,0.00004035,0.00001221,0.00000428,
 -0.00006434,0.00004902,-0.00000658,0.00001785,-0.00002728,-0.00000081,
 -0.00003438,0.00001161,0.00005055,0.00003826,0.00005032,0.00002683,0.0
 0081308,-0.00023216,0.00002455,0.00011120,0.00278865,0.00095712,-0.004
 23661,-0.00246291,0.00470336,-0.27033554,0.05448091,0.10483523,-0.0190
 6847,-0.00890902,0.00620722,0.00387521,-0.00063369,0.00461473,0.000004
 62,-0.00000094,-0.00000165,-0.00003261,-0.00002235,0.00001319,0.000003
 29,0.00000540,0.00001686,-0.00000535,-0.00000676,-0.00000066,0.0000004
 4,-0.00000517,0.00000550,-0.00001150,0.00000216,-0.00000072,-0.0000007
 6,0.00000472,0.00000286,-0.00025600,0.00056594,-0.00060190,0.28982901,
 0.00000090,-0.00001538,-0.00001578,0.00003609,-0.00002261,0.00003718,0
 .00003306,0.00004202,-0.00004336,-0.00005057,-0.00003488,-0.00003040,0
 .00001313,0.00006682,0.00001252,0.00003093,-0.00000306,0.00000025,0.00
 002358,-0.00001162,0.00000628,-0.00002853,-0.00002762,-0.00002031,0.00
 000767,0.00001038,0.00001879,-0.00045721,0.00078935,0.00027271,-0.0004
 1043,0.00002080,0.00007239,-0.00000679,0.00017861,-0.00017672,-0.00005
 670,-0.00005673,0.00002380,-0.00002986,0.00005494,-0.00000166,0.000013
 87,-0.00000409,-0.00000215,-0.00000439,0.00001363,0.00000192,-0.000034
 91,-0.00000136,0.00000011,0.00005984,-0.00005729,0.00001664,0.00002460
 ,0.00007410,0.00001648,0.00000711,-0.00001347,-0.00008570,-0.00006200,
 0.00001145,-0.00000807,-0.00162507,-0.00134564,0.00108471,0.00314767,-
 0.00632563,-0.00031552,0.02558742,0.00268298,-0.01216868,0.05548273,-0
 .06889671,-0.02305630,-0.03192668,0.00321643,0.01420192,-0.00315535,-0
 .00240327,0.00291153,0.00000219,-0.00000133,0.00000353,-0.00003310,0.0
 0003665,0.00001101,0.00000196,0.00000495,0.00000973,-0.00000102,-0.000
 00557,0.00000234,-0.00000031,-0.00000073,0.00000403,0.00000112,0.00000
 006,0.00000108,0.00000305,0.00000114,0.00000129,-0.00080330,0.00008863
 ,0.00021646,-0.04579068,0.07193406,0.00000772,0.00006533,0.00002027,0.
 00000248,0.00003968,-0.00003744,0.00002103,-0.00000404,-0.00001114,-0.
 00003341,-0.00003369,-0.00007646,0.00024272,0.00000279,0.00041885,-0.0
 0005153,0.00006212,-0.00005010,-0.00000373,0.00002523,-0.00002334,0.00
 001972,0.00003851,0.00001841,0.00000040,-0.00005754,-0.00000845,0.0005
 1850,-0.00027640,0.00024323,-0.00012382,0.00004809,-0.00079839,-0.0003
 4080,-0.00021917,-0.00092813,-0.00004917,0.00015806,-0.00003323,0.0000
 8534,-0.00004024,0.00003750,-0.00003215,0.00007423,0.00002909,-0.00000
 853,-0.00002116,-0.00001314,0.00001259,-0.00002150,-0.00001054,0.00004
 142,-0.00002933,0.00001261,-0.00002006,-0.00000018,-0.00001110,-0.0000
 0097,0.00005003,-0.00000352,-0.00002884,0.00000498,0.00002912,0.000113
 44,0.00029063,0.00078316,0.00093693,-0.00011875,0.00258008,0.00152286,
 0.00116636,0.00394125,0.10508859,-0.02215866,-0.08550315,0.00832635,0.
 00246985,-0.01205330,0.00481555,0.00198680,0.01104669,0.00000247,0.000
 00095,-0.00000053,0.00008517,-0.00001133,0.00011961,-0.00001086,-0.000
 00643,0.00000896,0.00000130,0.00000974,-0.00000154,-0.00000246,0.00000
 208,0.00000444,0.00000548,-0.00000153,-0.00000133,-0.00000032,0.000000
 49,0.00000106,-0.00044194,-0.00049395,-0.00106297,-0.12070146,0.016997
 98,0.08133346\\0.00003353,0.00000254,-0.00001860,-0.00001610,-0.000012
 40,0.00001503,0.00000880,-0.00000331,-0.00000752,0.00001706,0.00001492
 ,0.00001356,-0.00001661,-0.00001057,-0.00000147,0.00001127,0.00000584,
 0.00000136,-0.00000151,-0.00001682,0.00000526,-0.00000771,-0.00000076,
 -0.00000852,-0.00002081,-0.00000214,0.00000755,-0.00000506,0.00000896,
 0.00001905,0.00000616,-0.00000538,-0.00002487,-0.00002472,-0.00001939,
 0.00002581,-0.00000844,0.00001424,-0.00000080,0.00000667,0.00001622,0.
 00001138,0.00000714,-0.00001681,-0.00001448,0.00001204,0.00001034,-0.0
 0000156,-0.00000184,-0.00000811,-0.00001667,0.00000560,-0.00000562,0.0
 0001276,0.00001380,-0.00001772,-0.00001106,0.00001609,0.00004005,0.000
 01477,-0.00003054,-0.00000757,-0.00000281,0.00000789,0.00002626,-0.000
 00287,-0.00000280,0.00000393,-0.00000362,0.00000797,-0.00001501,0.0000
 0216,0.00000252,0.00001643,-0.00000398,-0.00001362,-0.00000857,0.00000
 913,0.00001187,-0.00001732,-0.00001927,-0.00000878,-0.00000575,0.00000
 345,-0.00000750,0.00001109,-0.00000950,0.00000101,-0.00000171,0.000002
 26,-0.00000099,0.00000623,-0.00000356,0.00000216,0.00000168,0.00000309
 ,0.00000023,-0.00000113,0.00000059,-0.00000256,-0.00000287,0.00000329,
 -0.00000260,0.00000226,-0.00000059,0.00000041,-0.00000199,0.00000126\\
 \@


 Experience is what you get when you don't get what you want.
 -- Dan Stanford
 Job cpu time:  0 days 15 hours 22 minutes 32.6 seconds.
 File lengths (MBytes):  RWF=   1319 Int=      0 D2E=      0 Chk=     25 Scr=      1
 Normal termination of Gaussian 09 at Sun Dec 29 15:08:40 2013.
