 Entering Gaussian System, Link 0=g09
 Initial command:
 /opt/gaussian/g09/l1.exe /panfs/panfs.cluster/home/shuo/Gau-31924.inp -scrdir=/panfs/panfs.cluster/home/shuo/
 Default is to use a total of  12 processors:
                               12 via shared-memory
                                1 via Linda
 Entering Link 1 = /opt/gaussian/g09/l1.exe PID=     31925.
  
 Copyright (c) 1988,1990,1992,1993,1995,1998,2003,2009,2011,
            Gaussian, Inc.  All Rights Reserved.
  
 This is part of the Gaussian(R) 09 program.  It is based on
 the Gaussian(R) 03 system (copyright 2003, Gaussian, Inc.),
 the Gaussian(R) 98 system (copyright 1998, Gaussian, Inc.),
 the Gaussian(R) 94 system (copyright 1995, Gaussian, Inc.),
 the Gaussian 92(TM) system (copyright 1992, Gaussian, Inc.),
 the Gaussian 90(TM) system (copyright 1990, Gaussian, Inc.),
 the Gaussian 88(TM) system (copyright 1988, Gaussian, Inc.),
 the Gaussian 86(TM) system (copyright 1986, Carnegie Mellon
 University), and the Gaussian 82(TM) system (copyright 1983,
 Carnegie Mellon University). Gaussian is a federally registered
 trademark of Gaussian, Inc.
  
 This software contains proprietary and confidential information,
 including trade secrets, belonging to Gaussian, Inc.
  
 This software is provided under written license and may be
 used, copied, transmitted, or stored only in accord with that
 written license.
  
 The following legend is applicable only to US Government
 contracts under FAR:
  
                    RESTRICTED RIGHTS LEGEND
  
 Use, reproduction and disclosure by the US Government is
 subject to restrictions as set forth in subparagraphs (a)
 and (c) of the Commercial Computer Software - Restricted
 Rights clause in FAR 52.227-19.
  
 Gaussian, Inc.
 340 Quinnipiac St., Bldg. 40, Wallingford CT 06492
  
  
 ---------------------------------------------------------------
 Warning -- This program may not be used in any manner that
 competes with the business of Gaussian, Inc. or will provide
 assistance to any competitor of Gaussian, Inc.  The licensee
 of this program is prohibited from giving any competitor of
 Gaussian, Inc. access to this program.  By using this program,
 the user acknowledges that Gaussian, Inc. is engaged in the
 business of creating and licensing software in the field of
 computational chemistry and represents and warrants to the
 licensee that it is not a competitor of Gaussian, Inc. and that
 it will not use this program in any manner prohibited above.
 ---------------------------------------------------------------
  

 Cite this work as:
 Gaussian 09, Revision C.01,
 M. J. Frisch, G. W. Trucks, H. B. Schlegel, G. E. Scuseria, 
 M. A. Robb, J. R. Cheeseman, G. Scalmani, V. Barone, B. Mennucci, 
 G. A. Petersson, H. Nakatsuji, M. Caricato, X. Li, H. P. Hratchian, 
 A. F. Izmaylov, J. Bloino, G. Zheng, J. L. Sonnenberg, M. Hada, 
 M. Ehara, K. Toyota, R. Fukuda, J. Hasegawa, M. Ishida, T. Nakajima, 
 Y. Honda, O. Kitao, H. Nakai, T. Vreven, J. A. Montgomery, Jr., 
 J. E. Peralta, F. Ogliaro, M. Bearpark, J. J. Heyd, E. Brothers, 
 K. N. Kudin, V. N. Staroverov, T. Keith, R. Kobayashi, J. Normand, 
 K. Raghavachari, A. Rendell, J. C. Burant, S. S. Iyengar, J. Tomasi, 
 M. Cossi, N. Rega, J. M. Millam, M. Klene, J. E. Knox, J. B. Cross, 
 V. Bakken, C. Adamo, J. Jaramillo, R. Gomperts, R. E. Stratmann, 
 O. Yazyev, A. J. Austin, R. Cammi, C. Pomelli, J. W. Ochterski, 
 R. L. Martin, K. Morokuma, V. G. Zakrzewski, G. A. Voth, 
 P. Salvador, J. J. Dannenberg, S. Dapprich, A. D. Daniels, 
 O. Farkas, J. B. Foresman, J. V. Ortiz, J. Cioslowski, 
 and D. J. Fox, Gaussian, Inc., Wallingford CT, 2010.
 
 ******************************************
 Gaussian 09:  EM64L-G09RevC.01 23-Sep-2011
                28-Dec-2013 
 ******************************************
 %chk=13_C20H9N5OS2.chk
 %NProcShared=12
 Will use up to   12 processors via shared memory.
 %Mem=8000MB
 Default route:  MaxDisk=100GB
 --------------------------------------------
 #B3LYP/6-31++G(d,p) opt scf=direct freq test
 --------------------------------------------
 1/14=-1,18=20,19=15,26=3,38=1/1,3;
 2/9=110,12=2,17=6,18=5,40=1/2;
 3/5=1,6=6,7=1111,11=2,16=1,25=1,30=1,71=1,74=-5/1,2,3;
 4//1;
 5/5=2,38=5/2;
 6/7=2,8=2,9=2,10=2,28=1/1;
 7//1,2,3,16;
 1/14=-1,18=20,19=15/3(2);
 2/9=110/2;
 99//99;
 2/9=110/2;
 3/5=1,6=6,7=1111,11=2,16=1,25=1,30=1,71=1,74=-5/1,2,3;
 4/5=5,16=3/1;
 5/5=2,38=5/2;
 7//1,2,3,16;
 1/14=-1,18=20,19=15/3(-5);
 2/9=110/2;
 6/7=2,8=2,9=2,10=2,19=2,28=1/1;
 99/9=1/99;
 ----------------------------------------------------------------------
 Geom opt of No.13 candidate from the CEPDB database with SMILE code of
  [SiH2]1C=c2ccc3c4ccccc4c4cc(cnc4c3c2=C1)-c1cncc2nsnc12, HPC, 20131227
 , Shuo Dai, Gaussian09
 ----------------------------------------------------------------------
 Charge =  0 Multiplicity = 1
 Symbolic Z-Matrix:
 Si                    0.75064   0.51094  -0.68889 
 H                    -0.11368   1.10558   0.39551 
 H                     0.15592  -0.23527  -1.80446 
 C                     2.77134  -0.37695  -0.73996 
 C                     3.61418   0.66515  -0.70812 
 C                     5.04957   0.80483  -0.51166 
 C                     5.62033   1.96996  -0.79005 
 C                     4.87672   3.21027  -1.19167 
 C                     5.65614   4.35628  -1.73625 
 C                     7.10257   4.48174  -1.82215 
 C                     7.80834   5.62105  -2.28102 
 C                     7.11799   6.71315  -2.7206 
 C                     5.72979   6.62911  -2.69294 
 C                     4.96756   5.47098  -2.20151 
 C                     3.53511   5.4055   -2.15893 
 C                     2.86993   6.52481  -2.67294 
 C                     1.49609   6.63698  -2.71992 
 C                     0.8307    5.51016  -2.26015 
 N                     1.39689   4.37403  -1.72559 
 C                     2.75222   4.29309  -1.60948 
 C                     3.43153   3.19213  -1.01111 
 C                     2.86974   1.85713  -0.35144 
 C                     1.92205   1.39223   0.53729 
 C                     0.8759    7.86805  -3.21749 
 C                     1.35839   9.1786   -2.99814 
 N                     0.83383   10.37172  -3.43973 
 C                    -0.3016    10.38898  -4.19317 
 C                    -0.89928   9.15531  -4.51274 
 N                    -2.01216   8.97195  -5.24113 
 S                    -2.26044   7.33387  -5.31924 
 N                    -0.97113   6.78856  -4.43807 
 C                    -0.29029   7.86959  -4.02035 
 H                     2.99208  -1.23757  -0.09273 
 H                     5.62658  -0.0323   -0.12878 
 H                     6.7062    2.0514   -0.76354 
 H                     7.73903   3.67277  -1.48677 
 H                     8.89789   5.64956  -2.27894 
 H                     7.62112   7.61432  -3.0748 
 H                     5.25941   7.53639  -3.06191 
 H                     3.41322   7.37799  -3.06487 
 H                    -0.25703   5.49898  -2.27336 
 H                     1.78631   0.35256   1.05609 
 H                     2.25955   9.33589  -2.39912 
 H                    -0.68906   11.34784  -4.51044 
 

 GradGradGradGradGradGradGradGradGradGradGradGradGradGradGradGradGradGrad
 Berny optimization.
 Initialization pass.
                           ----------------------------
                           !    Initial Parameters    !
                           ! (Angstroms and Degrees)  !
 --------------------------                            --------------------------
 ! Name  Definition              Value          Derivative Info.                !
 --------------------------------------------------------------------------------
 ! R1    R(1,2)                  1.5088         estimate D2E/DX2                !
 ! R2    R(1,3)                  1.468          estimate D2E/DX2                !
 ! R3    R(1,4)                  2.2078         estimate D2E/DX2                !
 ! R4    R(1,23)                 1.9111         estimate D2E/DX2                !
 ! R5    R(4,5)                  1.3407         estimate D2E/DX2                !
 ! R6    R(4,33)                 1.0992         estimate D2E/DX2                !
 ! R7    R(5,6)                  1.4555         estimate D2E/DX2                !
 ! R8    R(5,22)                 1.4499         estimate D2E/DX2                !
 ! R9    R(6,7)                  1.3269         estimate D2E/DX2                !
 ! R10   R(6,34)                 1.0864         estimate D2E/DX2                !
 ! R11   R(7,8)                  1.5009         estimate D2E/DX2                !
 ! R12   R(7,35)                 1.0892         estimate D2E/DX2                !
 ! R13   R(8,9)                  1.4891         estimate D2E/DX2                !
 ! R14   R(8,21)                 1.4565         estimate D2E/DX2                !
 ! R15   R(9,10)                 1.4544         estimate D2E/DX2                !
 ! R16   R(9,14)                 1.3904         estimate D2E/DX2                !
 ! R17   R(10,11)                1.4166         estimate D2E/DX2                !
 ! R18   R(10,36)                1.0826         estimate D2E/DX2                !
 ! R19   R(11,12)                1.3647         estimate D2E/DX2                !
 ! R20   R(11,37)                1.0899         estimate D2E/DX2                !
 ! R21   R(12,13)                1.391          estimate D2E/DX2                !
 ! R22   R(12,38)                1.0912         estimate D2E/DX2                !
 ! R23   R(13,14)                1.471          estimate D2E/DX2                !
 ! R24   R(13,39)                1.0865         estimate D2E/DX2                !
 ! R25   R(14,15)                1.4346         estimate D2E/DX2                !
 ! R26   R(15,16)                1.3998         estimate D2E/DX2                !
 ! R27   R(15,20)                1.4671         estimate D2E/DX2                !
 ! R28   R(16,17)                1.3792         estimate D2E/DX2                !
 ! R29   R(16,40)                1.0848         estimate D2E/DX2                !
 ! R30   R(17,18)                1.387          estimate D2E/DX2                !
 ! R31   R(17,24)                1.4655         estimate D2E/DX2                !
 ! R32   R(18,19)                1.3774         estimate D2E/DX2                !
 ! R33   R(18,41)                1.0879         estimate D2E/DX2                !
 ! R34   R(19,20)                1.3627         estimate D2E/DX2                !
 ! R35   R(20,21)                1.4253         estimate D2E/DX2                !
 ! R36   R(21,22)                1.5915         estimate D2E/DX2                !
 ! R37   R(22,23)                1.3799         estimate D2E/DX2                !
 ! R38   R(23,42)                1.1698         estimate D2E/DX2                !
 ! R39   R(24,25)                1.4137         estimate D2E/DX2                !
 ! R40   R(24,32)                1.4158         estimate D2E/DX2                !
 ! R41   R(25,26)                1.3761         estimate D2E/DX2                !
 ! R42   R(25,43)                1.0935         estimate D2E/DX2                !
 ! R43   R(26,27)                1.3628         estimate D2E/DX2                !
 ! R44   R(27,28)                1.4076         estimate D2E/DX2                !
 ! R45   R(27,44)                1.0818         estimate D2E/DX2                !
 ! R46   R(28,29)                1.3426         estimate D2E/DX2                !
 ! R47   R(28,32)                1.5055         estimate D2E/DX2                !
 ! R48   R(29,30)                1.6586         estimate D2E/DX2                !
 ! R49   R(30,31)                1.6541         estimate D2E/DX2                !
 ! R50   R(31,32)                1.3441         estimate D2E/DX2                !
 ! A1    A(2,1,3)              120.9588         estimate D2E/DX2                !
 ! A2    A(2,1,4)              134.3812         estimate D2E/DX2                !
 ! A3    A(2,1,23)              73.0379         estimate D2E/DX2                !
 ! A4    A(3,1,4)               98.5568         estimate D2E/DX2                !
 ! A5    A(4,1,23)              68.8559         estimate D2E/DX2                !
 ! A6    A(1,4,5)              105.2038         estimate D2E/DX2                !
 ! A7    A(1,4,33)             119.0157         estimate D2E/DX2                !
 ! A8    A(5,4,33)             117.927          estimate D2E/DX2                !
 ! A9    A(4,5,6)              134.2504         estimate D2E/DX2                !
 ! A10   A(4,5,22)             108.789          estimate D2E/DX2                !
 ! A11   A(6,5,22)             113.2191         estimate D2E/DX2                !
 ! A12   A(5,6,7)              118.6943         estimate D2E/DX2                !
 ! A13   A(5,6,34)             119.8279         estimate D2E/DX2                !
 ! A14   A(7,6,34)             121.4706         estimate D2E/DX2                !
 ! A15   A(6,7,8)              124.6559         estimate D2E/DX2                !
 ! A16   A(6,7,35)             119.2973         estimate D2E/DX2                !
 ! A17   A(8,7,35)             116.0173         estimate D2E/DX2                !
 ! A18   A(7,8,9)              118.3285         estimate D2E/DX2                !
 ! A19   A(7,8,21)             116.6236         estimate D2E/DX2                !
 ! A20   A(9,8,21)             125.0479         estimate D2E/DX2                !
 ! A21   A(8,9,10)             127.4839         estimate D2E/DX2                !
 ! A22   A(8,9,14)             118.6961         estimate D2E/DX2                !
 ! A23   A(10,9,14)            113.804          estimate D2E/DX2                !
 ! A24   A(9,10,11)            125.7324         estimate D2E/DX2                !
 ! A25   A(9,10,36)            120.1276         estimate D2E/DX2                !
 ! A26   A(11,10,36)           114.1068         estimate D2E/DX2                !
 ! A27   A(10,11,12)           119.7298         estimate D2E/DX2                !
 ! A28   A(10,11,37)           121.2296         estimate D2E/DX2                !
 ! A29   A(12,11,37)           119.036          estimate D2E/DX2                !
 ! A30   A(11,12,13)           116.7484         estimate D2E/DX2                !
 ! A31   A(11,12,38)           122.1535         estimate D2E/DX2                !
 ! A32   A(13,12,38)           121.0976         estimate D2E/DX2                !
 ! A33   A(12,13,14)           124.8438         estimate D2E/DX2                !
 ! A34   A(12,13,39)           112.0144         estimate D2E/DX2                !
 ! A35   A(14,13,39)           123.1308         estimate D2E/DX2                !
 ! A36   A(9,14,13)            119.103          estimate D2E/DX2                !
 ! A37   A(9,14,15)            116.6144         estimate D2E/DX2                !
 ! A38   A(13,14,15)           124.2819         estimate D2E/DX2                !
 ! A39   A(14,15,16)           115.2827         estimate D2E/DX2                !
 ! A40   A(14,15,20)           125.3507         estimate D2E/DX2                !
 ! A41   A(16,15,20)           119.3569         estimate D2E/DX2                !
 ! A42   A(15,16,17)           123.427          estimate D2E/DX2                !
 ! A43   A(15,16,40)           121.5728         estimate D2E/DX2                !
 ! A44   A(17,16,40)           114.9999         estimate D2E/DX2                !
 ! A45   A(16,17,18)           113.6089         estimate D2E/DX2                !
 ! A46   A(16,17,24)           120.0942         estimate D2E/DX2                !
 ! A47   A(18,17,24)           126.2964         estimate D2E/DX2                !
 ! A48   A(17,18,19)           126.982          estimate D2E/DX2                !
 ! A49   A(17,18,41)           118.946          estimate D2E/DX2                !
 ! A50   A(19,18,41)           114.0324         estimate D2E/DX2                !
 ! A51   A(18,19,20)           119.4003         estimate D2E/DX2                !
 ! A52   A(15,20,19)           116.9883         estimate D2E/DX2                !
 ! A53   A(15,20,21)           119.2476         estimate D2E/DX2                !
 ! A54   A(19,20,21)           123.7564         estimate D2E/DX2                !
 ! A55   A(8,21,20)            114.2813         estimate D2E/DX2                !
 ! A56   A(8,21,22)            114.3345         estimate D2E/DX2                !
 ! A57   A(20,21,22)           130.8198         estimate D2E/DX2                !
 ! A58   A(5,22,21)            113.9784         estimate D2E/DX2                !
 ! A59   A(5,22,23)            103.5378         estimate D2E/DX2                !
 ! A60   A(21,22,23)           142.3713         estimate D2E/DX2                !
 ! A61   A(1,23,22)             99.3866         estimate D2E/DX2                !
 ! A62   A(1,23,42)             78.6727         estimate D2E/DX2                !
 ! A63   A(22,23,42)           131.663          estimate D2E/DX2                !
 ! A64   A(17,24,25)           125.5655         estimate D2E/DX2                !
 ! A65   A(17,24,32)           122.8206         estimate D2E/DX2                !
 ! A66   A(25,24,32)           111.5987         estimate D2E/DX2                !
 ! A67   A(24,25,26)           128.6003         estimate D2E/DX2                !
 ! A68   A(24,25,43)           119.976          estimate D2E/DX2                !
 ! A69   A(26,25,43)           111.4216         estimate D2E/DX2                !
 ! A70   A(25,26,27)           120.3971         estimate D2E/DX2                !
 ! A71   A(26,27,28)           117.9173         estimate D2E/DX2                !
 ! A72   A(26,27,44)           118.1513         estimate D2E/DX2                !
 ! A73   A(28,27,44)           123.9314         estimate D2E/DX2                !
 ! A74   A(27,28,29)           126.4994         estimate D2E/DX2                !
 ! A75   A(27,28,32)           120.1654         estimate D2E/DX2                !
 ! A76   A(29,28,32)           113.3348         estimate D2E/DX2                !
 ! A77   A(28,29,30)           106.5288         estimate D2E/DX2                !
 ! A78   A(29,30,31)           100.5923         estimate D2E/DX2                !
 ! A79   A(30,31,32)           107.1713         estimate D2E/DX2                !
 ! A80   A(24,32,28)           121.3049         estimate D2E/DX2                !
 ! A81   A(24,32,31)           126.3397         estimate D2E/DX2                !
 ! A82   A(28,32,31)           112.3539         estimate D2E/DX2                !
 ! A83   L(3,1,23,2,-1)        193.9967         estimate D2E/DX2                !
 ! A84   L(3,1,23,2,-2)        180.3764         estimate D2E/DX2                !
 ! D1    D(2,1,4,5)            -77.7186         estimate D2E/DX2                !
 ! D2    D(2,1,4,33)            57.1701         estimate D2E/DX2                !
 ! D3    D(3,1,4,5)            131.2221         estimate D2E/DX2                !
 ! D4    D(3,1,4,33)           -93.8892         estimate D2E/DX2                !
 ! D5    D(23,1,4,5)           -42.4196         estimate D2E/DX2                !
 ! D6    D(23,1,4,33)           92.4692         estimate D2E/DX2                !
 ! D7    D(2,1,23,22)         -144.7976         estimate D2E/DX2                !
 ! D8    D(2,1,23,42)           84.3554         estimate D2E/DX2                !
 ! D9    D(4,1,23,22)           60.7823         estimate D2E/DX2                !
 ! D10   D(4,1,23,42)          -70.0647         estimate D2E/DX2                !
 ! D11   D(1,4,5,6)            168.7384         estimate D2E/DX2                !
 ! D12   D(1,4,5,22)            12.8424         estimate D2E/DX2                !
 ! D13   D(33,4,5,6)            33.263          estimate D2E/DX2                !
 ! D14   D(33,4,5,22)         -122.633          estimate D2E/DX2                !
 ! D15   D(4,5,6,7)            167.2781         estimate D2E/DX2                !
 ! D16   D(4,5,6,34)           -13.6876         estimate D2E/DX2                !
 ! D17   D(22,5,6,7)           -37.6012         estimate D2E/DX2                !
 ! D18   D(22,5,6,34)          141.4332         estimate D2E/DX2                !
 ! D19   D(4,5,22,21)         -147.9525         estimate D2E/DX2                !
 ! D20   D(4,5,22,23)           35.0222         estimate D2E/DX2                !
 ! D21   D(6,5,22,21)           50.6085         estimate D2E/DX2                !
 ! D22   D(6,5,22,23)         -126.4168         estimate D2E/DX2                !
 ! D23   D(5,6,7,8)              5.3267         estimate D2E/DX2                !
 ! D24   D(5,6,7,35)          -172.614          estimate D2E/DX2                !
 ! D25   D(34,6,7,8)          -173.6911         estimate D2E/DX2                !
 ! D26   D(34,6,7,35)            8.3681         estimate D2E/DX2                !
 ! D27   D(6,7,8,9)           -167.8215         estimate D2E/DX2                !
 ! D28   D(6,7,8,21)            12.2772         estimate D2E/DX2                !
 ! D29   D(35,7,8,9)            10.1802         estimate D2E/DX2                !
 ! D30   D(35,7,8,21)         -169.7211         estimate D2E/DX2                !
 ! D31   D(7,8,9,10)            -6.197          estimate D2E/DX2                !
 ! D32   D(7,8,9,14)           175.3599         estimate D2E/DX2                !
 ! D33   D(21,8,9,10)          173.6953         estimate D2E/DX2                !
 ! D34   D(21,8,9,14)           -4.7479         estimate D2E/DX2                !
 ! D35   D(7,8,21,20)         -169.9984         estimate D2E/DX2                !
 ! D36   D(7,8,21,22)            2.3362         estimate D2E/DX2                !
 ! D37   D(9,8,21,20)           10.1077         estimate D2E/DX2                !
 ! D38   D(9,8,21,22)         -177.5577         estimate D2E/DX2                !
 ! D39   D(8,9,10,11)         -176.3256         estimate D2E/DX2                !
 ! D40   D(8,9,10,36)            1.4512         estimate D2E/DX2                !
 ! D41   D(14,9,10,11)           2.1818         estimate D2E/DX2                !
 ! D42   D(14,9,10,36)         179.9586         estimate D2E/DX2                !
 ! D43   D(8,9,14,13)          177.648          estimate D2E/DX2                !
 ! D44   D(8,9,14,15)           -2.0542         estimate D2E/DX2                !
 ! D45   D(10,9,14,13)          -1.0018         estimate D2E/DX2                !
 ! D46   D(10,9,14,15)         179.2961         estimate D2E/DX2                !
 ! D47   D(9,10,11,12)          -1.5801         estimate D2E/DX2                !
 ! D48   D(9,10,11,37)         177.6341         estimate D2E/DX2                !
 ! D49   D(36,10,11,12)       -179.4736         estimate D2E/DX2                !
 ! D50   D(36,10,11,37)         -0.2594         estimate D2E/DX2                !
 ! D51   D(10,11,12,13)         -0.2763         estimate D2E/DX2                !
 ! D52   D(10,11,12,38)        179.4969         estimate D2E/DX2                !
 ! D53   D(37,11,12,13)       -179.5078         estimate D2E/DX2                !
 ! D54   D(37,11,12,38)          0.2654         estimate D2E/DX2                !
 ! D55   D(11,12,13,14)          1.3956         estimate D2E/DX2                !
 ! D56   D(11,12,13,39)       -179.777          estimate D2E/DX2                !
 ! D57   D(38,12,13,14)       -178.3801         estimate D2E/DX2                !
 ! D58   D(38,12,13,39)          0.4473         estimate D2E/DX2                !
 ! D59   D(12,13,14,9)          -0.7057         estimate D2E/DX2                !
 ! D60   D(12,13,14,15)        178.972          estimate D2E/DX2                !
 ! D61   D(39,13,14,9)        -179.4076         estimate D2E/DX2                !
 ! D62   D(39,13,14,15)          0.2702         estimate D2E/DX2                !
 ! D63   D(9,14,15,16)        -178.0594         estimate D2E/DX2                !
 ! D64   D(9,14,15,20)           3.0842         estimate D2E/DX2                !
 ! D65   D(13,14,15,16)          2.2555         estimate D2E/DX2                !
 ! D66   D(13,14,15,20)       -176.6009         estimate D2E/DX2                !
 ! D67   D(14,15,16,17)        179.7028         estimate D2E/DX2                !
 ! D68   D(14,15,16,40)         -0.4947         estimate D2E/DX2                !
 ! D69   D(20,15,16,17)         -1.3674         estimate D2E/DX2                !
 ! D70   D(20,15,16,40)        178.4351         estimate D2E/DX2                !
 ! D71   D(14,15,20,19)       -176.3281         estimate D2E/DX2                !
 ! D72   D(14,15,20,21)          2.7044         estimate D2E/DX2                !
 ! D73   D(16,15,20,19)          4.8584         estimate D2E/DX2                !
 ! D74   D(16,15,20,21)       -176.1091         estimate D2E/DX2                !
 ! D75   D(15,16,17,18)         -2.5518         estimate D2E/DX2                !
 ! D76   D(15,16,17,24)        177.2026         estimate D2E/DX2                !
 ! D77   D(40,16,17,18)        177.6338         estimate D2E/DX2                !
 ! D78   D(40,16,17,24)         -2.6117         estimate D2E/DX2                !
 ! D79   D(16,17,18,19)          3.374          estimate D2E/DX2                !
 ! D80   D(16,17,18,41)       -179.0605         estimate D2E/DX2                !
 ! D81   D(24,17,18,19)       -176.3624         estimate D2E/DX2                !
 ! D82   D(24,17,18,41)          1.2031         estimate D2E/DX2                !
 ! D83   D(16,17,24,25)        -37.0773         estimate D2E/DX2                !
 ! D84   D(16,17,24,32)        141.3823         estimate D2E/DX2                !
 ! D85   D(18,17,24,25)        142.6435         estimate D2E/DX2                !
 ! D86   D(18,17,24,32)        -38.8969         estimate D2E/DX2                !
 ! D87   D(17,18,19,20)          0.113          estimate D2E/DX2                !
 ! D88   D(41,18,19,20)       -177.5544         estimate D2E/DX2                !
 ! D89   D(18,19,20,15)         -4.2243         estimate D2E/DX2                !
 ! D90   D(18,19,20,21)        176.791          estimate D2E/DX2                !
 ! D91   D(15,20,21,8)          -8.6554         estimate D2E/DX2                !
 ! D92   D(15,20,21,22)       -179.4137         estimate D2E/DX2                !
 ! D93   D(19,20,21,8)         170.3076         estimate D2E/DX2                !
 ! D94   D(19,20,21,22)         -0.4507         estimate D2E/DX2                !
 ! D95   D(8,21,22,5)          -33.1331         estimate D2E/DX2                !
 ! D96   D(8,21,22,23)         142.1268         estimate D2E/DX2                !
 ! D97   D(20,21,22,5)         137.6213         estimate D2E/DX2                !
 ! D98   D(20,21,22,23)        -47.1187         estimate D2E/DX2                !
 ! D99   D(5,22,23,1)          -74.2473         estimate D2E/DX2                !
 ! D100  D(5,22,23,42)           8.896          estimate D2E/DX2                !
 ! D101  D(21,22,23,1)         110.2069         estimate D2E/DX2                !
 ! D102  D(21,22,23,42)       -166.6498         estimate D2E/DX2                !
 ! D103  D(17,24,25,26)        179.577          estimate D2E/DX2                !
 ! D104  D(17,24,25,43)         -1.0073         estimate D2E/DX2                !
 ! D105  D(32,24,25,26)          0.9693         estimate D2E/DX2                !
 ! D106  D(32,24,25,43)       -179.6151         estimate D2E/DX2                !
 ! D107  D(17,24,32,28)        179.9778         estimate D2E/DX2                !
 ! D108  D(17,24,32,31)         -0.4828         estimate D2E/DX2                !
 ! D109  D(25,24,32,28)         -1.3699         estimate D2E/DX2                !
 ! D110  D(25,24,32,31)        178.1695         estimate D2E/DX2                !
 ! D111  D(24,25,26,27)          0.1364         estimate D2E/DX2                !
 ! D112  D(43,25,26,27)       -179.3198         estimate D2E/DX2                !
 ! D113  D(25,26,27,28)         -0.8055         estimate D2E/DX2                !
 ! D114  D(25,26,27,44)        179.2491         estimate D2E/DX2                !
 ! D115  D(26,27,28,29)       -179.8971         estimate D2E/DX2                !
 ! D116  D(26,27,28,32)          0.3356         estimate D2E/DX2                !
 ! D117  D(44,27,28,29)          0.0449         estimate D2E/DX2                !
 ! D118  D(44,27,28,32)       -179.7224         estimate D2E/DX2                !
 ! D119  D(27,28,29,30)        179.5095         estimate D2E/DX2                !
 ! D120  D(32,28,29,30)         -0.7097         estimate D2E/DX2                !
 ! D121  D(27,28,32,24)          0.8383         estimate D2E/DX2                !
 ! D122  D(27,28,32,31)       -178.7605         estimate D2E/DX2                !
 ! D123  D(29,28,32,24)       -178.9579         estimate D2E/DX2                !
 ! D124  D(29,28,32,31)          1.4432         estimate D2E/DX2                !
 ! D125  D(28,29,30,31)         -0.0802         estimate D2E/DX2                !
 ! D126  D(29,30,31,32)          0.9045         estimate D2E/DX2                !
 ! D127  D(30,31,32,24)        179.0428         estimate D2E/DX2                !
 ! D128  D(30,31,32,28)         -1.3827         estimate D2E/DX2                !
 --------------------------------------------------------------------------------
 Trust Radius=3.00D-01 FncErr=1.00D-07 GrdErr=1.00D-06
 Number of steps in this run=    264 maximum allowed number of steps=    264.
 GradGradGradGradGradGradGradGradGradGradGradGradGradGradGradGradGradGrad

                          Input orientation:                          
 ---------------------------------------------------------------------
 Center     Atomic      Atomic             Coordinates (Angstroms)
 Number     Number       Type             X           Y           Z
 ---------------------------------------------------------------------
      1         14           0        0.750640    0.510940   -0.688890
      2          1           0       -0.113680    1.105580    0.395510
      3          1           0        0.155920   -0.235270   -1.804460
      4          6           0        2.771340   -0.376950   -0.739960
      5          6           0        3.614180    0.665150   -0.708120
      6          6           0        5.049570    0.804830   -0.511660
      7          6           0        5.620330    1.969960   -0.790050
      8          6           0        4.876720    3.210270   -1.191670
      9          6           0        5.656140    4.356280   -1.736250
     10          6           0        7.102570    4.481740   -1.822150
     11          6           0        7.808340    5.621050   -2.281020
     12          6           0        7.117990    6.713150   -2.720600
     13          6           0        5.729790    6.629110   -2.692940
     14          6           0        4.967560    5.470980   -2.201510
     15          6           0        3.535110    5.405500   -2.158930
     16          6           0        2.869930    6.524810   -2.672940
     17          6           0        1.496090    6.636980   -2.719920
     18          6           0        0.830700    5.510160   -2.260150
     19          7           0        1.396890    4.374030   -1.725590
     20          6           0        2.752220    4.293090   -1.609480
     21          6           0        3.431530    3.192130   -1.011110
     22          6           0        2.869740    1.857130   -0.351440
     23          6           0        1.922050    1.392230    0.537290
     24          6           0        0.875900    7.868050   -3.217490
     25          6           0        1.358390    9.178600   -2.998140
     26          7           0        0.833830   10.371720   -3.439730
     27          6           0       -0.301600   10.388980   -4.193170
     28          6           0       -0.899280    9.155310   -4.512740
     29          7           0       -2.012160    8.971950   -5.241130
     30         16           0       -2.260440    7.333870   -5.319240
     31          7           0       -0.971130    6.788560   -4.438070
     32          6           0       -0.290290    7.869590   -4.020350
     33          1           0        2.992080   -1.237570   -0.092730
     34          1           0        5.626580   -0.032300   -0.128780
     35          1           0        6.706200    2.051400   -0.763540
     36          1           0        7.739030    3.672770   -1.486770
     37          1           0        8.897890    5.649560   -2.278940
     38          1           0        7.621120    7.614320   -3.074800
     39          1           0        5.259410    7.536390   -3.061910
     40          1           0        3.413220    7.377990   -3.064870
     41          1           0       -0.257030    5.498980   -2.273360
     42          1           0        1.786310    0.352560    1.056090
     43          1           0        2.259550    9.335890   -2.399120
     44          1           0       -0.689060   11.347840   -4.510440
 ---------------------------------------------------------------------
                    Distance matrix (angstroms):
                    1          2          3          4          5
     1  Si   0.000000
     2  H    1.508830   0.000000
     3  H    1.467998   2.590450   0.000000
     4  C    2.207756   3.436645   2.827305   0.000000
     5  C    2.867754   3.912661   3.737951   1.340659   0.000000
     6  C    4.312607   5.250958   5.167296   2.576637   1.455490
     7  C    5.084570   5.918748   5.979285   3.691509   2.394552
     8  C    4.956179   5.643842   5.876496   4.183875   2.881920
     9  C    6.320406   6.957174   7.165152   5.631885   4.341784
    10  C    7.576183   8.269869   8.396811   6.598300   5.289261
    11  C    8.857722   9.503246   9.647960   7.982621   6.680265
    12  C    9.118026   9.667059   9.878779   8.549024   7.273587
    13  C    8.138806   8.613597   8.886908   7.851843   6.632054
    14  C    6.683744   7.184722   7.474678   6.415434   5.211320
    15  C    5.819880   6.190973   6.585048   6.002795   4.958026
    16  C    6.677910   6.905459   7.336129   7.168014   6.224953
    17  C    6.496857   6.549324   7.061299   7.398765   6.648037
    18  C    5.240942   5.229217   5.802840   6.382407   5.799196
    19  N    4.051648   4.178953   4.774084   5.043054   4.439303
    20  C    4.377039   4.732186   5.223489   4.750337   3.836323
    21  C    3.805230   4.347503   4.806880   3.639740   2.551625
    22  C    2.533118   3.166000   3.722126   2.269745   1.449906
    23  C    1.911123   2.060696   3.354365   2.341508   2.223285
    24  C    7.780525   7.730720   8.257047   8.815377   8.104128
    25  C    8.990569   8.880175   9.565132   9.919896   9.100089
    26  N   10.237628  10.073142  10.753693  11.250627  10.459902
    27  C   10.533891  10.357259  10.899080  11.716350  11.046799
    28  C    9.595270   9.460774   9.830118  10.889045  10.340661
    29  N    9.997232   9.861831  10.064004  11.425600  11.009396
    30  S    8.778332   8.721155   8.688173  10.283256  10.012263
    31  N    7.511948   7.509659   7.585534   8.889693   8.510802
    32  C    8.144439   8.079780   8.414156   9.388288   8.838535
    33  H    2.904608   3.921030   3.460987   1.099227   2.094291
    34  H    4.937978   5.875392   5.725139   2.940190   2.207221
    35  H    6.152015   6.982029   7.015593   4.623912   3.389004
    36  H    7.711769   8.473399   8.536818   6.452589   5.163958
    37  H    9.762754  10.440729  10.548858   8.730515   7.431649
    38  H   10.166320  10.688025  10.906834   9.634949   8.363475
    39  H    8.678547   9.065273   9.382190   8.614110   7.447217
    40  H    7.738927   7.984759   8.376178   8.121349   7.117364
    41  H    5.329774   5.142507   5.768190   6.785934   6.387657
    42  H    2.035351   2.147875   3.344617   2.174457   2.559543
    43  H    9.114902   9.010004   9.817636   9.866813   8.937351
    44  H   11.580820  11.371161  11.924964  12.793029  12.128288
                    6          7          8          9         10
     6  C    0.000000
     7  C    1.326950   0.000000
     8  C    2.505680   1.500874   0.000000
     9  C    3.805305   2.567314   1.489094   0.000000
    10  C    4.410426   3.093753   2.639801   1.454400   0.000000
    11  C    5.825583   4.510082   3.948790   2.555070   1.416580
    12  C    6.638224   5.335528   4.430698   2.942921   2.405544
    13  C    6.256430   5.033950   3.830145   2.467070   2.693325
    14  C    4.963393   3.830857   2.477668   1.390383   2.383438
    15  C    5.115980   4.245575   2.748553   2.403807   3.700476
    16  C    6.491543   5.644168   4.148197   3.652790   4.776319
    17  C    7.177577   6.520340   5.050401   4.845123   6.073193
    18  C    6.557150   6.134718   4.775083   4.989066   6.370702
    19  N    5.249275   4.948963   3.707914   4.259300   5.707513
    20  C    4.318678   3.780801   2.420860   2.907373   4.359629
    21  C    2.926893   2.516627   1.456539   2.613420   3.974596
    22  C    2.425833   2.787625   2.562214   3.990924   5.193112
    23  C    3.350629   3.971508   3.876164   5.281856   6.476868
    24  C    8.638872   7.949185   6.465711   6.113697   7.223952
    25  C    9.483007   8.660501   7.159814   6.581625   7.512593
    26  N   10.856862  10.026014   8.525556   7.895697   8.752459
    27  C   11.577757  10.841143   9.346544   8.827491   9.764167
    28  C   11.005815  10.391968   8.929456   8.585634   9.649411
    29  N   11.787187  11.273637   9.851485   9.612045  10.720528
    30  S   10.916842  10.554223   9.218458   9.185646  10.393760
    31  N    9.352569   8.942835   7.585554   7.558871   8.794833
    32  C    9.525536   8.954100   7.510572   7.274647   8.424013
    33  H    2.929192   4.205021   4.954071   6.410112   7.252415
    34  H    1.086427   2.108640   3.493749   4.673807   5.042083
    35  H    2.088493   1.089242   2.207549   2.713165   2.680358
    36  H    4.050817   2.806042   2.914414   2.206322   1.082587
    37  H    6.434614   5.147684   4.827225   3.532142   2.189894
    38  H    7.716975   6.409528   5.520287   4.033322   3.413368
    39  H    7.201507   6.023019   4.728590   3.468122   3.776921
    40  H    7.238989   6.268407   4.797979   3.990821   4.852208
    41  H    7.300591   7.014097   5.723953   6.046473   7.443257
    42  H    3.648459   4.552354   4.771747   6.229167   7.320998
    43  H    9.172006   8.254749   6.769840   6.064053   6.881171
    44  H   12.652161  11.899342  10.402509   9.840712  10.727522
                   11         12         13         14         15
    11  C    0.000000
    12  C    1.364733   0.000000
    13  C    2.346536   1.391017   0.000000
    14  C    2.845852   2.537083   1.470974   0.000000
    15  C    4.280404   3.855185   2.568854   1.434578   0.000000
    16  C    5.035700   4.252500   2.861831   2.394338   1.399831
    17  C    6.408529   5.622416   4.233793   3.698568   2.447214
    18  C    6.978552   6.417882   5.043852   4.137461   2.708327
    19  N    6.555170   6.260392   4.979475   3.765565   2.413234
    20  C    5.270559   5.113827   3.936597   2.577917   1.467061
    21  C    5.164183   5.376795   4.463562   2.994929   2.495441
    22  C    6.502318   6.873244   6.036083   4.569849   4.037408
    23  C    7.776516   8.119349   7.235895   5.780342   5.096852
    24  C    7.347429   6.367447   5.036901   4.849726   3.775725
    25  C    7.400830   6.271241   5.069732   5.235186   4.436064
    26  N    8.517938   7.307048   6.207677   6.529791   5.796611
    27  C    9.600031   8.410143   7.263951   7.477799   6.610110
    28  C    9.658893   8.570445   7.323792   7.303142   6.266204
    29  N   10.790413   9.737294   8.480564   8.379294   7.279542
    30  S   10.655743   9.751573   8.440256   8.089165   6.877105
    31  N    9.115648   8.269779   6.926271   6.481223   5.235793
    32  C    8.583065   7.609817   6.288257   6.058589   4.916331
    33  H    8.661734   9.335030   8.725870   7.304390   6.978140
    34  H    6.430597   7.378545   7.138624   5.917483   6.169718
    35  H    4.032352   5.072629   5.062745   4.096847   4.822127
    36  H    2.105097   3.339452   3.772511   3.380157   4.596422
    37  H    1.089925   2.119984   3.341822   3.935147   5.369672
    38  H    2.153663   1.091194   2.166468   3.521068   4.734256
    39  H    3.282584   2.061198   1.086533   2.256409   2.886048
    40  H    4.797743   3.779663   2.462854   2.607307   2.174006
    41  H    8.066297   7.487667   6.106984   5.225159   3.795018
    42  H    8.669379   9.118514   8.306705   6.850586   6.239139
    43  H    6.678552   5.530511   4.410845   4.723335   4.139168
    44  H   10.486765   9.253859   8.171374   8.477381   7.660588
                   16         17         18         19         20
    16  C    0.000000
    17  C    1.379212   0.000000
    18  C    2.314815   1.387031   0.000000
    19  N    2.773657   2.473757   1.377359   0.000000
    20  C    2.474950   2.881798   2.365770   1.362700   0.000000
    21  C    3.766143   4.304991   3.701038   2.459091   1.425350
    22  C    5.213118   5.508501   4.598422   3.223718   2.744153
    23  C    6.127596   6.188559   5.096476   3.779888   3.703079
    24  C    2.465154   1.465519   2.545229   3.834758   4.345873
    25  C    3.071337   2.560508   3.778960   4.970388   5.266816
    26  N    4.419546   3.860699   5.002618   6.263194   6.631725
    27  C    5.225085   4.413577   5.368571   6.719631   7.291169
    28  C    4.950893   3.910753   4.621051   5.991764   6.738216
    29  N    6.034807   4.910845   5.380714   6.717255   7.601311
    30  S    5.829080   4.621000   4.715835   5.920392   6.937970
    31  N    4.235444   3.010347   3.102295   4.335323   5.300154
    32  C    3.689300   2.530138   3.149894   4.509040   5.278306
    33  H    8.180889   8.434966   7.409530   6.058128   5.739884
    34  H    7.554307   8.261613   7.632959   6.313147   5.400316
    35  H    6.194689   7.211117   6.980284   5.874430   4.623283
    36  H    5.766218   7.020078   7.190212   6.385260   5.026741
    37  H    6.103900   7.480381   8.068416   7.628773   6.329095
    38  H    4.891046   6.212659   7.155484   7.145690   6.073213
    39  H    2.623777   3.884388   4.935777   5.167720   4.349086
    40  H    1.084753   2.084100   3.287214   3.857853   3.474434
    41  H    3.315097   2.137262   1.087868   2.073889   3.309153
    42  H    7.292226   7.337330   6.205762   4.905264   4.854485
    43  H    2.889587   2.823101   4.086213   5.081130   5.127971
    44  H    6.269325   5.493000   6.438321   7.793626   8.368242
                   21         22         23         24         25
    21  C    0.000000
    22  C    1.591539   0.000000
    23  C    2.813488   1.379887   0.000000
    24  C    5.767459   6.951316   7.558376   0.000000
    25  C    6.639580   7.930518   8.569979   1.413666   0.000000
    26  N    8.012038   9.283356   9.880898   2.513866   1.376118
    27  C    8.709559   9.879714  10.404969   2.948482   2.376696
    28  C    8.159463   9.207897   9.681328   2.546758   2.718755
    29  N    8.996285   9.917796  10.311174   3.695214   4.053926
    30  S    8.253031   8.999581   9.332484   3.813047   4.678297
    31  N    6.637905   7.468054   7.889555   2.463054   3.634880
    32  C    6.692242   7.719868   8.223304   1.415834   2.340206
    33  H    4.545193   3.107904   2.908219   9.856706  10.936496
    34  H    3.999212   3.349581   4.024485   9.722377  10.549472
    35  H    3.476495   3.863417   5.001475   8.593468   9.186375
    36  H    4.360255   5.319352   6.567719   8.227899   8.562183
    37  H    6.125965   7.378101   8.643978   8.375852   8.355563
    38  H    6.431737   7.945913   9.178289   6.751499   6.455589
    39  H    5.139992   6.731357   7.864027   4.398791   4.233069
    40  H    4.662584   6.175595   7.143421   2.588715   2.732943
    41  H    4.529935   5.170449   5.432636   2.790592   4.083441
    42  H    3.878559   2.327808   1.169826   8.693384   9.722082
    43  H    6.406707   7.777993   8.475739   2.176872   1.093460
    44  H    9.784691  10.956090  11.463492   4.028617   3.344354
                   26         27         28         29         30
    26  N    0.000000
    27  C    1.362781   0.000000
    28  C    2.373747   1.407582   0.000000
    29  N    3.647473   2.456056   1.342637   0.000000
    30  S    4.726055   3.799840   2.412642   1.658629   0.000000
    31  N    4.134441   3.670323   2.369017   2.548694   1.654129
    32  C    2.803822   2.525336   1.505454   2.381247   2.419835
    33  H   12.273389  12.760823  11.945339  12.481296  11.330267
    34  H   11.923778  12.659607  12.092069  12.867128  11.975242
    35  H   10.529694  11.418707  11.061888  11.998026  11.360437
    36  H    9.816912  10.820527  10.669355  11.715897  11.317282
    37  H    9.416756  10.524115  10.642588  11.783125  11.687115
    38  H    7.335103   8.468706   8.777217   9.966756  10.137129
    39  H    5.269497   6.351524   6.531100   7.725643   7.853961
    40  H    3.969407   4.913147   4.883938   6.059007   6.105289
    41  H    5.127767   5.253547   4.335442   4.893839   4.081404
    42  H   11.022848  11.517110  10.756982  11.330368  10.283954
    43  H    2.046580   3.299561   3.805024   5.143635   5.741559
    44  H    2.102005   1.081757   2.202586   2.815911   4.385812
                   31         32         33         34         35
    31  N    0.000000
    32  C    1.344120   0.000000
    33  H    9.950265  10.447034   0.000000
    34  H   10.422278  10.611010   2.897338   0.000000
    35  H    9.740855   9.664834   5.006196   2.431112   0.000000
    36  H    9.710057   9.407566   6.970532   4.475950   2.053933
    37  H   10.166451   9.611644   9.332238   6.899869   4.477354
    38  H    8.738830   7.971803  10.424812   8.433743   6.093035
    39  H    6.424383   5.641702   9.536204   8.125462   6.120525
    40  H    4.632022   3.856242   9.123533   8.272363   6.671761
    41  H    2.618955   2.944974   7.790569   8.355307   7.915298
    42  H    8.900077   9.305281   2.302647   4.037290   5.513840
    43  H    4.591677   3.358587  10.846847  10.210500   8.689742
    44  H    4.568570   3.535170  13.836889  13.732947  12.456040
                   36         37         38         39         40
    36  H    0.000000
    37  H    2.424498   0.000000
    38  H    4.251066   2.474635   0.000000
    39  H    4.853570   4.172734   2.363031   0.000000
    40  H    5.910303   5.804030   4.214543   1.852975   0.000000
    41  H    8.239584   9.156160   8.196476   5.933293   4.198559
    42  H    7.274944   9.473922  10.190310   8.979296   8.305770
    43  H    7.932718   7.594144   5.671576   3.560428   2.368027
    44  H   11.793302  11.373636   9.222761   7.211774   5.888810
                   41         42         43         44
    41  H    0.000000
    42  H    6.461123   0.000000
    43  H    4.590302   9.636527   0.000000
    44  H    6.276969  12.570199   4.147278   0.000000
 Stoichiometry    C24H14N4SSi
 Framework group  C1[X(C24H14N4SSi)]
 Deg. of freedom   126
 Full point group                 C1      NOp   1
 Largest Abelian subgroup         C1      NOp   1
 Largest concise Abelian subgroup C1      NOp   1
                         Standard orientation:                         
 ---------------------------------------------------------------------
 Center     Atomic      Atomic             Coordinates (Angstroms)
 Number     Number       Type             X           Y           Z
 ---------------------------------------------------------------------
      1         14           0        3.220336   -4.056840    0.073648
      2          1           0        2.732793   -4.530136    1.420817
      3          1           0        3.009687   -4.866299   -1.132760
      4          6           0        4.962388   -2.888327   -0.614840
      5          6           0        4.665072   -1.612599   -0.329382
      6          6           0        5.423916   -0.370620   -0.319542
      7          6           0        4.765161    0.777814   -0.230463
      8          6           0        3.283537    0.897990   -0.023167
      9          6           0        2.648715    2.230941   -0.217182
     10          6           0        3.313431    3.499031   -0.472878
     11          6           0        2.676876    4.760034   -0.579510
     12          6           0        1.319134    4.844175   -0.470188
     13          6           0        0.632801    3.652409   -0.261456
     14          6           0        1.265157    2.331503   -0.123264
     15          6           0        0.546740    1.112430    0.112855
     16          6           0       -0.846538    1.239150    0.160225
     17          6           0       -1.699408    0.175977    0.371177
     18          6           0       -1.049652   -1.044871    0.477024
     19          7           0        0.309976   -1.264299    0.457533
     20          6           0        1.156720   -0.204943    0.324329
     21          6           0        2.577222   -0.317207    0.358829
     22          6           0        3.515995   -1.587413    0.554482
     23          6           0        3.689874   -2.706869    1.342311
     24          6           0       -3.144299    0.401006    0.468107
     25          6           0       -3.763790    1.514377    1.080553
     26          7           0       -5.106357    1.791818    1.199883
     27          6           0       -6.035545    0.934084    0.691875
     28          6           0       -5.575216   -0.222015    0.033983
     29          7           0       -6.333855   -1.176058   -0.528996
     30         16           0       -5.288618   -2.293144   -1.169815
     31          7           0       -3.834597   -1.616605   -0.764520
     32          6           0       -4.098058   -0.486484   -0.086232
     33          1           0        5.973433   -3.247261   -0.375559
     34          1           0        6.508838   -0.399830   -0.368680
     35          1           0        5.309278    1.714583   -0.343823
     36          1           0        4.391422    3.538751   -0.564254
     37          1           0        3.252581    5.672275   -0.735445
     38          1           0        0.788915    5.795477   -0.537993
     39          1           0       -0.440231    3.807503   -0.190040
     40          1           0       -1.334082    2.199891    0.033861
     41          1           0       -1.641543   -1.944898    0.628915
     42          1           0        4.588022   -3.448249    1.452671
     43          1           0       -3.152390    2.291051    1.548124
     44          1           0       -7.081108    1.181780    0.816949
 ---------------------------------------------------------------------
 Rotational constants (GHZ):      0.2071557      0.0821971      0.0611783
 Standard basis: 6-31++G(d,p) (6D, 7F)
 There are   662 symmetry adapted basis functions of A   symmetry.
 Integral buffers will be    131072 words long.
 Raffenetti 2 integral format.
 Two-electron integral symmetry is turned on.
   662 basis functions,  1120 primitive gaussians,   662 cartesian basis functions
   108 alpha electrons      108 beta electrons
       nuclear repulsion energy      2799.5707715670 Hartrees.
 NAtoms=   44 NActive=   44 NUniq=   44 SFac= 1.00D+00 NAtFMM=   60 NAOKFM=F Big=F
 One-electron integrals computed using PRISM.
 NBasis=   662 RedAO= T  NBF=   662
 NBsUse=   651 1.00D-06 NBFU=   651
 Harris functional with IExCor=  402 diagonalized for initial guess.
 ExpMin= 3.31D-02 ExpMax= 2.19D+04 ExpMxC= 3.30D+03 IAcc=3 IRadAn=         5 AccDes= 0.00D+00
 HarFok:  IExCor=  402 AccDes= 0.00D+00 IRadAn=         5 IDoV= 1
 ScaDFX=  1.000000  1.000000  1.000000  1.000000
 FoFCou: FMM=F IPFlag=           0 FMFlag=      100000 FMFlg1=           0
         NFxFlg=           0 DoJE=T BraDBF=F KetDBF=T FulRan=T
         Omega=  0.000000  0.000000  1.000000  0.000000  0.000000 ICntrl=     500 IOpCl=  0
         NMat0=    1 NMatS0=    1 NMatT0=    0 NMatD0=    1 NMtDS0=    0 NMtDT0=    0
         I1Cent=           4 NGrid=           0.
 Petite list used in FoFCou.
 Initial guess orbital symmetries:
       Occupied  (A) (A) (A) (A) (A) (A) (A) (A) (A) (A) (A) (A)
                 (A) (A) (A) (A) (A) (A) (A) (A) (A) (A) (A) (A)
                 (A) (A) (A) (A) (A) (A) (A) (A) (A) (A) (A) (A)
                 (A) (A) (A) (A) (A) (A) (A) (A) (A) (A) (A) (A)
                 (A) (A) (A) (A) (A) (A) (A) (A) (A) (A) (A) (A)
                 (A) (A) (A) (A) (A) (A) (A) (A) (A) (A) (A) (A)
                 (A) (A) (A) (A) (A) (A) (A) (A) (A) (A) (A) (A)
                 (A) (A) (A) (A) (A) (A) (A) (A) (A) (A) (A) (A)
                 (A) (A) (A) (A) (A) (A) (A) (A) (A) (A) (A) (A)
       Virtual   (A) (A) (A) (A) (A) (A) (A) (A) (A) (A) (A) (A)
                 (A) (A) (A) (A) (A) (A) (A) (A) (A) (A) (A) (A)
                 (A) (A) (A) (A) (A) (A) (A) (A) (A) (A) (A) (A)
                 (A) (A) (A) (A) (A) (A) (A) (A) (A) (A) (A) (A)
                 (A) (A) (A) (A) (A) (A) (A) (A) (A) (A) (A) (A)
                 (A) (A) (A) (A) (A) (A) (A) (A) (A) (A) (A) (A)
                 (A) (A) (A) (A) (A) (A) (A) (A) (A) (A) (A) (A)
                 (A) (A) (A) (A) (A) (A) (A) (A) (A) (A) (A) (A)
                 (A) (A) (A) (A) (A) (A) (A) (A) (A) (A) (A) (A)
                 (A) (A) (A) (A) (A) (A) (A) (A) (A) (A) (A) (A)
                 (A) (A) (A) (A) (A) (A) (A) (A) (A) (A) (A) (A)
                 (A) (A) (A) (A) (A) (A) (A) (A) (A) (A) (A) (A)
                 (A) (A) (A) (A) (A) (A) (A) (A) (A) (A) (A) (A)
                 (A) (A) (A) (A) (A) (A) (A) (A) (A) (A) (A) (A)
                 (A) (A) (A) (A) (A) (A) (A) (A) (A) (A) (A) (A)
                 (A) (A) (A) (A) (A) (A) (A) (A) (A) (A) (A) (A)
                 (A) (A) (A) (A) (A) (A) (A) (A) (A) (A) (A) (A)
                 (A) (A) (A) (A) (A) (A) (A) (A) (A) (A) (A) (A)
                 (A) (A) (A) (A) (A) (A) (A) (A) (A) (A) (A) (A)
                 (A) (A) (A) (A) (A) (A) (A) (A) (A) (A) (A) (A)
                 (A) (A) (A) (A) (A) (A) (A) (A) (A) (A) (A) (A)
                 (A) (A) (A) (A) (A) (A) (A) (A) (A) (A) (A) (A)
                 (A) (A) (A) (A) (A) (A) (A) (A) (A) (A) (A) (A)
                 (A) (A) (A) (A) (A) (A) (A) (A) (A) (A) (A) (A)
                 (A) (A) (A) (A) (A) (A) (A) (A) (A) (A) (A) (A)
                 (A) (A) (A) (A) (A) (A) (A) (A) (A) (A) (A) (A)
                 (A) (A) (A) (A) (A) (A) (A) (A) (A) (A) (A) (A)
                 (A) (A) (A) (A) (A) (A) (A) (A) (A) (A) (A) (A)
                 (A) (A) (A) (A) (A) (A) (A) (A) (A) (A) (A) (A)
                 (A) (A) (A) (A) (A) (A) (A) (A) (A) (A) (A) (A)
                 (A) (A) (A) (A) (A) (A) (A) (A) (A) (A) (A) (A)
                 (A) (A) (A) (A) (A) (A) (A) (A) (A) (A) (A) (A)
                 (A) (A) (A) (A) (A) (A) (A) (A) (A) (A) (A) (A)
                 (A) (A) (A) (A) (A) (A) (A) (A) (A) (A) (A) (A)
                 (A) (A) (A) (A) (A) (A) (A) (A) (A) (A) (A) (A)
                 (A) (A) (A) (A) (A) (A) (A) (A) (A) (A) (A) (A)
                 (A) (A) (A) (A) (A) (A) (A) (A) (A) (A) (A) (A)
                 (A) (A) (A) (A) (A) (A) (A) (A) (A) (A) (A) (A)
                 (A) (A) (A) (A) (A) (A) (A) (A) (A) (A) (A) (A)
                 (A) (A) (A) (A) (A) (A) (A) (A) (A) (A) (A) (A)
                 (A) (A) (A) (A) (A) (A) (A) (A) (A) (A) (A) (A)
                 (A) (A) (A) (A) (A) (A) (A) (A) (A) (A) (A) (A)
                 (A) (A) (A) (A) (A) (A) (A) (A) (A) (A) (A) (A)
                 (A) (A) (A) (A) (A) (A) (A) (A) (A) (A) (A) (A)
                 (A) (A) (A) (A) (A) (A) (A) (A) (A) (A) (A) (A)
                 (A) (A) (A)
 The electronic state of the initial guess is 1-A.
 Requested convergence on RMS density matrix=1.00D-08 within 128 cycles.
 Requested convergence on MAX density matrix=1.00D-06.
 Requested convergence on             energy=1.00D-06.
 No special actions if energy rises.
 EnCoef did     2 forward-backward iterations
 Restarting incremental Fock formation.
 SCF Done:  E(RB3LYP) =  -1829.34623370     A.U. after   25 cycles
             Convg  =    0.7959D-08             -V/T =  2.0076

 **********************************************************************

            Population analysis using the SCF density.

 **********************************************************************

 Orbital symmetries:
       Occupied  (A) (A) (A) (A) (A) (A) (A) (A) (A) (A) (A) (A)
                 (A) (A) (A) (A) (A) (A) (A) (A) (A) (A) (A) (A)
                 (A) (A) (A) (A) (A) (A) (A) (A) (A) (A) (A) (A)
                 (A) (A) (A) (A) (A) (A) (A) (A) (A) (A) (A) (A)
                 (A) (A) (A) (A) (A) (A) (A) (A) (A) (A) (A) (A)
                 (A) (A) (A) (A) (A) (A) (A) (A) (A) (A) (A) (A)
                 (A) (A) (A) (A) (A) (A) (A) (A) (A) (A) (A) (A)
                 (A) (A) (A) (A) (A) (A) (A) (A) (A) (A) (A) (A)
                 (A) (A) (A) (A) (A) (A) (A) (A) (A) (A) (A) (A)
       Virtual   (A) (A) (A) (A) (A) (A) (A) (A) (A) (A) (A) (A)
                 (A) (A) (A) (A) (A) (A) (A) (A) (A) (A) (A) (A)
                 (A) (A) (A) (A) (A) (A) (A) (A) (A) (A) (A) (A)
                 (A) (A) (A) (A) (A) (A) (A) (A) (A) (A) (A) (A)
                 (A) (A) (A) (A) (A) (A) (A) (A) (A) (A) (A) (A)
                 (A) (A) (A) (A) (A) (A) (A) (A) (A) (A) (A) (A)
                 (A) (A) (A) (A) (A) (A) (A) (A) (A) (A) (A) (A)
                 (A) (A) (A) (A) (A) (A) (A) (A) (A) (A) (A) (A)
                 (A) (A) (A) (A) (A) (A) (A) (A) (A) (A) (A) (A)
                 (A) (A) (A) (A) (A) (A) (A) (A) (A) (A) (A) (A)
                 (A) (A) (A) (A) (A) (A) (A) (A) (A) (A) (A) (A)
                 (A) (A) (A) (A) (A) (A) (A) (A) (A) (A) (A) (A)
                 (A) (A) (A) (A) (A) (A) (A) (A) (A) (A) (A) (A)
                 (A) (A) (A) (A) (A) (A) (A) (A) (A) (A) (A) (A)
                 (A) (A) (A) (A) (A) (A) (A) (A) (A) (A) (A) (A)
                 (A) (A) (A) (A) (A) (A) (A) (A) (A) (A) (A) (A)
                 (A) (A) (A) (A) (A) (A) (A) (A) (A) (A) (A) (A)
                 (A) (A) (A) (A) (A) (A) (A) (A) (A) (A) (A) (A)
                 (A) (A) (A) (A) (A) (A) (A) (A) (A) (A) (A) (A)
                 (A) (A) (A) (A) (A) (A) (A) (A) (A) (A) (A) (A)
                 (A) (A) (A) (A) (A) (A) (A) (A) (A) (A) (A) (A)
                 (A) (A) (A) (A) (A) (A) (A) (A) (A) (A) (A) (A)
                 (A) (A) (A) (A) (A) (A) (A) (A) (A) (A) (A) (A)
                 (A) (A) (A) (A) (A) (A) (A) (A) (A) (A) (A) (A)
                 (A) (A) (A) (A) (A) (A) (A) (A) (A) (A) (A) (A)
                 (A) (A) (A) (A) (A) (A) (A) (A) (A) (A) (A) (A)
                 (A) (A) (A) (A) (A) (A) (A) (A) (A) (A) (A) (A)
                 (A) (A) (A) (A) (A) (A) (A) (A) (A) (A) (A) (A)
                 (A) (A) (A) (A) (A) (A) (A) (A) (A) (A) (A) (A)
                 (A) (A) (A) (A) (A) (A) (A) (A) (A) (A) (A) (A)
                 (A) (A) (A) (A) (A) (A) (A) (A) (A) (A) (A) (A)
                 (A) (A) (A) (A) (A) (A) (A) (A) (A) (A) (A) (A)
                 (A) (A) (A) (A) (A) (A) (A) (A) (A) (A) (A) (A)
                 (A) (A) (A) (A) (A) (A) (A) (A) (A) (A) (A) (A)
                 (A) (A) (A) (A) (A) (A) (A) (A) (A) (A) (A) (A)
                 (A) (A) (A) (A) (A) (A) (A) (A) (A) (A) (A) (A)
                 (A) (A) (A) (A) (A) (A) (A) (A) (A) (A) (A) (A)
                 (A) (A) (A) (A) (A) (A) (A) (A) (A) (A) (A) (A)
                 (A) (A) (A) (A) (A) (A) (A) (A) (A) (A) (A) (A)
                 (A) (A) (A) (A) (A) (A) (A) (A) (A) (A) (A) (A)
                 (A) (A) (A) (A) (A) (A) (A) (A) (A) (A) (A) (A)
                 (A) (A) (A) (A) (A) (A) (A) (A) (A) (A) (A) (A)
                 (A) (A) (A) (A) (A) (A) (A) (A) (A) (A) (A) (A)
                 (A) (A) (A) (A) (A) (A) (A) (A) (A) (A) (A) (A)
                 (A) (A) (A) (A) (A) (A) (A) (A) (A) (A) (A) (A)
                 (A) (A) (A)
 The electronic state is 1-A.
 Alpha  occ. eigenvalues --  -88.99948 -66.18940 -14.40011 -14.39556 -14.36861
 Alpha  occ. eigenvalues --  -14.34885 -10.27350 -10.27004 -10.26013 -10.25555
 Alpha  occ. eigenvalues --  -10.25314 -10.24747 -10.24389 -10.24086 -10.23895
 Alpha  occ. eigenvalues --  -10.23787 -10.22778 -10.22309 -10.22253 -10.22175
 Alpha  occ. eigenvalues --  -10.22170 -10.21836 -10.21635 -10.21492 -10.21319
 Alpha  occ. eigenvalues --  -10.21224 -10.21043 -10.20822 -10.20692 -10.20161
 Alpha  occ. eigenvalues --   -8.05215  -6.01772  -6.01185  -6.00982  -5.33146
 Alpha  occ. eigenvalues --   -3.69423  -3.68906  -3.68719  -1.03511  -0.95234
 Alpha  occ. eigenvalues --   -0.94735  -0.91648  -0.89624  -0.88131  -0.85082
 Alpha  occ. eigenvalues --   -0.83205  -0.81592  -0.80259  -0.78491  -0.76925
 Alpha  occ. eigenvalues --   -0.75907  -0.73482  -0.71292  -0.68910  -0.67735
 Alpha  occ. eigenvalues --   -0.66482  -0.65536  -0.64179  -0.62315  -0.61675
 Alpha  occ. eigenvalues --   -0.60065  -0.58180  -0.55497  -0.54836  -0.53675
 Alpha  occ. eigenvalues --   -0.53388  -0.52654  -0.51389  -0.50649  -0.50367
 Alpha  occ. eigenvalues --   -0.48931  -0.48356  -0.47529  -0.47120  -0.46094
 Alpha  occ. eigenvalues --   -0.45671  -0.44977  -0.43880  -0.43131  -0.42917
 Alpha  occ. eigenvalues --   -0.42588  -0.42317  -0.40865  -0.40324  -0.39902
 Alpha  occ. eigenvalues --   -0.39439  -0.38623  -0.38240  -0.37790  -0.37030
 Alpha  occ. eigenvalues --   -0.36607  -0.35833  -0.35075  -0.34117  -0.33751
 Alpha  occ. eigenvalues --   -0.32618  -0.31700  -0.30982  -0.29597  -0.28624
 Alpha  occ. eigenvalues --   -0.28529  -0.27469  -0.26981  -0.26328  -0.25278
 Alpha  occ. eigenvalues --   -0.24264  -0.22254  -0.18015
 Alpha virt. eigenvalues --   -0.12065  -0.10273  -0.09336  -0.06967  -0.06474
 Alpha virt. eigenvalues --   -0.04211  -0.03322  -0.02912  -0.02118  -0.02076
 Alpha virt. eigenvalues --   -0.01156  -0.00622  -0.00372  -0.00002   0.00339
 Alpha virt. eigenvalues --    0.00926   0.01339   0.01724   0.01997   0.02232
 Alpha virt. eigenvalues --    0.02367   0.03020   0.03155   0.03507   0.03675
 Alpha virt. eigenvalues --    0.04172   0.04458   0.04606   0.05218   0.05441
 Alpha virt. eigenvalues --    0.05634   0.05670   0.06233   0.06405   0.06630
 Alpha virt. eigenvalues --    0.07126   0.07267   0.07433   0.07927   0.08229
 Alpha virt. eigenvalues --    0.08712   0.08979   0.09158   0.09333   0.09742
 Alpha virt. eigenvalues --    0.09853   0.10051   0.10253   0.10392   0.10759
 Alpha virt. eigenvalues --    0.10835   0.11110   0.11266   0.11382   0.11828
 Alpha virt. eigenvalues --    0.11883   0.12147   0.12632   0.12717   0.12930
 Alpha virt. eigenvalues --    0.13022   0.13281   0.13388   0.13576   0.13676
 Alpha virt. eigenvalues --    0.14182   0.14235   0.14476   0.14543   0.14722
 Alpha virt. eigenvalues --    0.15096   0.15268   0.15667   0.16086   0.16546
 Alpha virt. eigenvalues --    0.16690   0.16844   0.16937   0.17082   0.17241
 Alpha virt. eigenvalues --    0.17647   0.18037   0.18212   0.18503   0.18665
 Alpha virt. eigenvalues --    0.19108   0.19326   0.19485   0.19918   0.20120
 Alpha virt. eigenvalues --    0.20206   0.20362   0.20529   0.20750   0.20878
 Alpha virt. eigenvalues --    0.21457   0.21670   0.21817   0.22225   0.22279
 Alpha virt. eigenvalues --    0.22773   0.22808   0.22951   0.23054   0.23254
 Alpha virt. eigenvalues --    0.23426   0.23609   0.23834   0.24140   0.24316
 Alpha virt. eigenvalues --    0.24477   0.24896   0.25022   0.25333   0.25563
 Alpha virt. eigenvalues --    0.25756   0.25961   0.25980   0.26353   0.26760
 Alpha virt. eigenvalues --    0.26977   0.27074   0.27300   0.27816   0.27878
 Alpha virt. eigenvalues --    0.28238   0.28615   0.28841   0.29113   0.29409
 Alpha virt. eigenvalues --    0.29623   0.29974   0.30130   0.30408   0.30614
 Alpha virt. eigenvalues --    0.30825   0.31113   0.31378   0.31533   0.31748
 Alpha virt. eigenvalues --    0.31948   0.32333   0.32892   0.33239   0.33330
 Alpha virt. eigenvalues --    0.33834   0.34174   0.34401   0.34674   0.34757
 Alpha virt. eigenvalues --    0.35024   0.35159   0.35801   0.36215   0.36374
 Alpha virt. eigenvalues --    0.36598   0.37234   0.37415   0.37835   0.38125
 Alpha virt. eigenvalues --    0.38338   0.38809   0.39042   0.39326   0.39969
 Alpha virt. eigenvalues --    0.40139   0.40569   0.41238   0.41438   0.41639
 Alpha virt. eigenvalues --    0.42482   0.42979   0.43460   0.44102   0.44818
 Alpha virt. eigenvalues --    0.45116   0.46064   0.46846   0.47333   0.49161
 Alpha virt. eigenvalues --    0.49481   0.50522   0.51071   0.51700   0.52664
 Alpha virt. eigenvalues --    0.53315   0.53696   0.55486   0.56748   0.57090
 Alpha virt. eigenvalues --    0.59707   0.60901   0.62064   0.63140   0.64229
 Alpha virt. eigenvalues --    0.65254   0.65740   0.66064   0.66401   0.66971
 Alpha virt. eigenvalues --    0.67285   0.67990   0.68560   0.69168   0.69223
 Alpha virt. eigenvalues --    0.69864   0.70631   0.71181   0.71309   0.72259
 Alpha virt. eigenvalues --    0.72607   0.72947   0.73241   0.73419   0.74352
 Alpha virt. eigenvalues --    0.74549   0.74864   0.75341   0.75609   0.75842
 Alpha virt. eigenvalues --    0.76467   0.76757   0.77240   0.77516   0.78081
 Alpha virt. eigenvalues --    0.78532   0.79656   0.80030   0.80605   0.80826
 Alpha virt. eigenvalues --    0.81269   0.81994   0.82743   0.83227   0.83884
 Alpha virt. eigenvalues --    0.84562   0.85209   0.85430   0.86278   0.86415
 Alpha virt. eigenvalues --    0.87121   0.87494   0.88693   0.89015   0.90066
 Alpha virt. eigenvalues --    0.91565   0.92234   0.92614   0.93076   0.94041
 Alpha virt. eigenvalues --    0.94860   0.95253   0.96204   0.96612   0.97537
 Alpha virt. eigenvalues --    0.97870   0.98323   0.99108   0.99335   0.99852
 Alpha virt. eigenvalues --    1.00236   1.00818   1.01870   1.02780   1.03788
 Alpha virt. eigenvalues --    1.03928   1.04329   1.04924   1.05615   1.05974
 Alpha virt. eigenvalues --    1.06782   1.07059   1.08674   1.08957   1.09632
 Alpha virt. eigenvalues --    1.09898   1.10194   1.11580   1.11958   1.12667
 Alpha virt. eigenvalues --    1.13093   1.13453   1.13989   1.14408   1.15427
 Alpha virt. eigenvalues --    1.15935   1.16253   1.16956   1.17498   1.18107
 Alpha virt. eigenvalues --    1.19157   1.19566   1.20117   1.20469   1.21383
 Alpha virt. eigenvalues --    1.22187   1.22453   1.23279   1.23713   1.23771
 Alpha virt. eigenvalues --    1.25278   1.25655   1.26266   1.26608   1.26743
 Alpha virt. eigenvalues --    1.27793   1.28571   1.29130   1.30638   1.31010
 Alpha virt. eigenvalues --    1.32110   1.32384   1.32795   1.33291   1.34318
 Alpha virt. eigenvalues --    1.34473   1.34780   1.36013   1.36348   1.37349
 Alpha virt. eigenvalues --    1.37680   1.38772   1.39193   1.39940   1.40767
 Alpha virt. eigenvalues --    1.41216   1.41815   1.42085   1.44071   1.45462
 Alpha virt. eigenvalues --    1.46288   1.46781   1.47183   1.47833   1.49755
 Alpha virt. eigenvalues --    1.51090   1.52772   1.54363   1.54643   1.56470
 Alpha virt. eigenvalues --    1.57230   1.58778   1.62812   1.63718   1.64459
 Alpha virt. eigenvalues --    1.65385   1.67768   1.68927   1.71181   1.72145
 Alpha virt. eigenvalues --    1.72371   1.73978   1.74384   1.74665   1.75724
 Alpha virt. eigenvalues --    1.76384   1.77258   1.77292   1.78083   1.79680
 Alpha virt. eigenvalues --    1.80091   1.82086   1.82321   1.82502   1.82860
 Alpha virt. eigenvalues --    1.83925   1.85173   1.85665   1.86462   1.87327
 Alpha virt. eigenvalues --    1.89044   1.90412   1.90745   1.91432   1.91716
 Alpha virt. eigenvalues --    1.92448   1.93545   1.93905   1.94196   1.95311
 Alpha virt. eigenvalues --    1.96724   1.97449   1.98417   1.99771   2.00537
 Alpha virt. eigenvalues --    2.01437   2.02094   2.02873   2.03953   2.04379
 Alpha virt. eigenvalues --    2.05959   2.06631   2.07249   2.07773   2.08874
 Alpha virt. eigenvalues --    2.10164   2.11658   2.11876   2.12547   2.13282
 Alpha virt. eigenvalues --    2.14496   2.16552   2.17507   2.19224   2.20375
 Alpha virt. eigenvalues --    2.21382   2.22154   2.22653   2.22739   2.23282
 Alpha virt. eigenvalues --    2.24361   2.25124   2.25375   2.26491   2.26940
 Alpha virt. eigenvalues --    2.27795   2.28748   2.30367   2.30766   2.31919
 Alpha virt. eigenvalues --    2.33030   2.34314   2.34972   2.36608   2.37345
 Alpha virt. eigenvalues --    2.38047   2.38547   2.39020   2.39558   2.41008
 Alpha virt. eigenvalues --    2.41620   2.41967   2.42736   2.43591   2.44419
 Alpha virt. eigenvalues --    2.44815   2.45431   2.47334   2.47838   2.48512
 Alpha virt. eigenvalues --    2.48906   2.50149   2.50981   2.51759   2.52760
 Alpha virt. eigenvalues --    2.52920   2.54149   2.54439   2.56057   2.57005
 Alpha virt. eigenvalues --    2.57465   2.58871   2.59414   2.60099   2.60314
 Alpha virt. eigenvalues --    2.61025   2.61776   2.62437   2.63186   2.63627
 Alpha virt. eigenvalues --    2.64307   2.64607   2.65746   2.66378   2.67912
 Alpha virt. eigenvalues --    2.68607   2.69902   2.70793   2.71576   2.71877
 Alpha virt. eigenvalues --    2.73209   2.74081   2.74702   2.76991   2.78410
 Alpha virt. eigenvalues --    2.80550   2.80835   2.81946   2.84102   2.84868
 Alpha virt. eigenvalues --    2.86724   2.88763   2.90641   2.91969   2.93558
 Alpha virt. eigenvalues --    2.94054   2.95868   3.00647   3.04947   3.07010
 Alpha virt. eigenvalues --    3.08536   3.08971   3.11370   3.14823   3.15663
 Alpha virt. eigenvalues --    3.18858   3.21449   3.21669   3.23642   3.26006
 Alpha virt. eigenvalues --    3.29323   3.31018   3.33936   3.35315   3.41091
 Alpha virt. eigenvalues --    3.42788   3.43697   3.44380   3.46622   3.50640
 Alpha virt. eigenvalues --    3.59548   3.67775   3.68992   3.82290   3.93952
 Alpha virt. eigenvalues --    4.09078   4.19433   4.24777   4.25708   4.30303
 Alpha virt. eigenvalues --    4.31593   4.32475   4.35315   4.35817   4.38353
 Alpha virt. eigenvalues --    4.40378   4.41474   4.41770   4.45004   4.47564
 Alpha virt. eigenvalues --    4.48038   4.50601   4.51721   4.53072   4.55194
 Alpha virt. eigenvalues --    4.57320   4.58365   4.60564   4.63985   4.70814
 Alpha virt. eigenvalues --    4.75392   4.80897   4.92836
          Condensed to atoms (all electrons):
              1          2          3          4          5          6
     1  Si  13.593961   0.427010   0.431120   0.119178   0.400777   0.322778
     2  H    0.427010   0.709337  -0.054853  -0.015736   0.121592   0.000334
     3  H    0.431120  -0.054853   0.903088  -0.085055  -0.018997   0.030024
     4  C    0.119178  -0.015736  -0.085055  17.384530 -11.308383  -0.241621
     5  C    0.400777   0.121592  -0.018997 -11.308383  23.594241  -3.206856
     6  C    0.322778   0.000334   0.030024  -0.241621  -3.206856  20.194533
     7  C   -0.146774   0.006228  -0.029122  -1.222391   1.777938  -3.657346
     8  C    0.070537  -0.048071   0.061690   0.338349  -2.796885  -1.049367
     9  C   -0.011597  -0.005212   0.008695   0.238828  -0.463464  -1.468533
    10  C    0.020377  -0.000947   0.003950   0.021677  -0.317185   0.835235
    11  C    0.003606  -0.000034   0.000254  -0.018837  -0.040520  -0.058677
    12  C   -0.002819   0.000177  -0.000443  -0.014918   0.008626  -0.202213
    13  C    0.008469  -0.000676   0.001564   0.019408  -0.047508   0.308865
    14  C   -0.056097   0.007056  -0.007786   0.032990  -0.203389  -0.273530
    15  C    0.007611   0.006404   0.011700   0.128638  -0.628140   0.453157
    16  C   -0.004071   0.001854  -0.000716  -0.013257   0.104392   0.038421
    17  C   -0.129184   0.038352  -0.033868   0.079630  -0.125857  -0.062039
    18  C    0.142237  -0.045578   0.033368  -0.074982   0.066776   0.122729
    19  N    0.019950   0.006383  -0.005465  -0.017512   0.016277   0.022524
    20  C   -0.255467   0.019895  -0.056967   0.187628   0.097806  -2.135052
    21  C    0.432199  -0.127013   0.150228  -0.225819  -2.067923   1.358010
    22  C    0.155656  -0.431627   0.511045   2.394887  -1.765452  -4.343789
    23  C   -1.851507   0.368997  -0.745665  -1.507031   2.875607  -1.457230
    24  C    0.002986  -0.000618   0.002491   0.006023  -0.043226   0.065662
    25  C    0.001096  -0.000521   0.000383  -0.000480   0.001809   0.002543
    26  N   -0.000001   0.000002   0.000000  -0.000001  -0.000016   0.000018
    27  C   -0.000242   0.000082  -0.000069   0.000038  -0.000014  -0.000065
    28  C    0.000159  -0.000073  -0.000154   0.000114  -0.000727  -0.000459
    29  N   -0.000007  -0.000003   0.000009   0.000000   0.000002   0.000001
    30  S    0.000052   0.000010   0.000127   0.000036  -0.000097   0.000177
    31  N    0.000436  -0.000154   0.000223  -0.000021   0.000423   0.000015
    32  C   -0.005660   0.002839  -0.000743   0.005647  -0.020803   0.009019
    33  H   -0.000627  -0.007379   0.019143   0.408314  -0.106623  -0.111582
    34  H    0.007400  -0.000151   0.001248  -0.008895  -0.260228   0.640270
    35  H    0.002157   0.000113  -0.000784  -0.096635   0.225461   0.064745
    36  H    0.000338  -0.000051   0.000178   0.009596  -0.027776   0.044390
    37  H    0.000054  -0.000002   0.000004  -0.000066   0.000664   0.002276
    38  H   -0.000087   0.000005  -0.000009  -0.000059   0.000111  -0.004084
    39  H    0.000410  -0.000033   0.000084   0.000520   0.000116   0.007773
    40  H    0.000690  -0.000079  -0.000033  -0.001693   0.000483  -0.003578
    41  H   -0.004567  -0.000554  -0.000324  -0.003543  -0.000449   0.002965
    42  H   -0.094175  -0.027395  -0.037445   0.220149  -0.355759  -0.003845
    43  H    0.000052  -0.000010   0.000008   0.000119  -0.000205   0.000613
    44  H   -0.000002   0.000001  -0.000000   0.000000  -0.000001   0.000000
              7          8          9         10         11         12
     1  Si  -0.146774   0.070537  -0.011597   0.020377   0.003606  -0.002819
     2  H    0.006228  -0.048071  -0.005212  -0.000947  -0.000034   0.000177
     3  H   -0.029122   0.061690   0.008695   0.003950   0.000254  -0.000443
     4  C   -1.222391   0.338349   0.238828   0.021677  -0.018837  -0.014918
     5  C    1.777938  -2.796885  -0.463464  -0.317185  -0.040520   0.008626
     6  C   -3.657346  -1.049367  -1.468533   0.835235  -0.058677  -0.202213
     7  C   12.629062  -0.861771  -1.053629   0.719976  -0.898855  -0.158861
     8  C   -0.861771  17.149767   2.341634   0.490740  -0.579819  -0.488482
     9  C   -1.053629   2.341634  10.517550  -0.713829  -1.816215   2.112909
    10  C    0.719976   0.490740  -0.713829  13.411141  -1.996086  -2.443338
    11  C   -0.898855  -0.579819  -1.816215  -1.996086   9.899941   0.725923
    12  C   -0.158861  -0.488482   2.112909  -2.443338   0.725923  10.819654
    13  C    0.941958   0.678847  -1.299115   4.018826  -1.045912  -2.750723
    14  C   -0.785381   0.029981   0.166644  -2.110559   1.127375  -1.416301
    15  C   -1.510480   0.968175  -0.455428  -0.418312   0.269351  -0.943274
    16  C    0.185060  -0.866992  -1.098186   0.159427   0.303865  -0.732023
    17  C   -0.263841  -0.902809  -0.465916  -0.197174  -0.072090   0.534713
    18  C    0.117834   1.237425   0.511948   0.094878   0.005118   0.119459
    19  N   -0.023979  -0.036516   0.008865   0.013351   0.002169  -0.008088
    20  C   -0.453489  -1.337061   0.690462  -0.586184   0.138030   0.409875
    21  C   -1.295311   1.395348   0.524057  -2.901351  -0.122234   0.549386
    22  C    0.888623  -4.094024  -1.309635  -1.092874  -0.070105  -0.165675
    23  C    1.143019  -5.825941  -0.614064  -0.582955  -0.089111  -0.012047
    24  C   -0.020163   0.295613  -0.325658   0.016888   0.019514  -0.115938
    25  C    0.001409   0.056636   0.079516   0.013738  -0.007352   0.078985
    26  N   -0.000055   0.000180  -0.001542  -0.000156  -0.000011  -0.001286
    27  C   -0.000083  -0.002577  -0.002367  -0.000586   0.000032   0.001593
    28  C   -0.000551  -0.006173   0.009210   0.001396   0.000340  -0.004632
    29  N   -0.000004  -0.000028  -0.000063   0.000003  -0.000004   0.000021
    30  S   -0.000147   0.000979  -0.000898   0.000075   0.000055  -0.000468
    31  N    0.000430   0.004251   0.002500   0.000212   0.000070   0.000217
    32  C   -0.030746  -0.065901  -0.225799   0.000357   0.008101  -0.098925
    33  H   -0.003084  -0.001273   0.000043   0.000656   0.000105  -0.000158
    34  H   -0.154443   0.026455  -0.002832   0.002028   0.009174  -0.002515
    35  H    0.536122  -0.313272  -0.076174  -0.162736  -0.084679   0.028062
    36  H   -0.064965  -0.038607  -0.243722   0.382910   0.269699  -0.049201
    37  H   -0.013752   0.009607  -0.042654  -0.122813   0.415565  -0.099074
    38  H   -0.002960  -0.001078   0.098577   0.044104  -0.136348   0.489337
    39  H    0.019414   0.009178  -0.000563   0.071927   0.054945   0.191137
    40  H    0.035358   0.015726   0.015343  -0.046869  -0.025845   0.063941
    41  H   -0.001349   0.008247   0.010062   0.001036  -0.000460  -0.003139
    42  H    0.006180  -0.091366  -0.006072  -0.012550  -0.001980   0.000700
    43  H   -0.003683  -0.000699  -0.005878   0.000468  -0.000267  -0.015554
    44  H    0.000002   0.000037   0.000027   0.000013   0.000004   0.000020
             13         14         15         16         17         18
     1  Si   0.008469  -0.056097   0.007611  -0.004071  -0.129184   0.142237
     2  H   -0.000676   0.007056   0.006404   0.001854   0.038352  -0.045578
     3  H    0.001564  -0.007786   0.011700  -0.000716  -0.033868   0.033368
     4  C    0.019408   0.032990   0.128638  -0.013257   0.079630  -0.074982
     5  C   -0.047508  -0.203389  -0.628140   0.104392  -0.125857   0.066776
     6  C    0.308865  -0.273530   0.453157   0.038421  -0.062039   0.122729
     7  C    0.941958  -0.785381  -1.510480   0.185060  -0.263841   0.117834
     8  C    0.678847   0.029981   0.968175  -0.866992  -0.902809   1.237425
     9  C   -1.299115   0.166644  -0.455428  -1.098186  -0.465916   0.511948
    10  C    4.018826  -2.110559  -0.418312   0.159427  -0.197174   0.094878
    11  C   -1.045912   1.127375   0.269351   0.303865  -0.072090   0.005118
    12  C   -2.750723  -1.416301  -0.943274  -0.732023   0.534713   0.119459
    13  C   13.102861  -2.235321  -1.832071   0.248469  -0.240151   0.620652
    14  C   -2.235321  11.170846   2.303119  -1.456927  -0.236052  -0.753154
    15  C   -1.832071   2.303119  12.693547   0.976179   0.674962  -3.127001
    16  C    0.248469  -1.456927   0.976179  13.548729   1.774077  -2.901644
    17  C   -0.240151  -0.236052   0.674962   1.774077  16.739510  -6.670325
    18  C    0.620652  -0.753154  -3.127001  -2.901644  -6.670325  19.655621
    19  N   -0.001558   0.017405   0.303804  -0.044142   0.546268  -0.504872
    20  C   -1.119197   0.951724  -1.957925  -1.548185  -0.073871   1.368545
    21  C   -2.067179   1.383806  -1.471007  -1.187280  -1.185914   1.635639
    22  C   -0.537156  -0.823659   0.290617   1.241213   0.685230  -1.235906
    23  C   -0.062807   0.341524  -0.931986  -0.056647   0.377623  -0.634907
    24  C    0.003798  -0.706376   0.638140   2.171997   2.822550   0.317063
    25  C    0.175268  -0.020775   0.216191  -0.821488  -1.296440   0.734965
    26  N   -0.006524   0.001637  -0.006832  -0.003885   0.040892   0.009710
    27  C   -0.001235  -0.002987  -0.020112  -0.077422  -0.341163  -0.311631
    28  C   -0.012775  -0.019287   0.084244   0.044134   0.099547  -0.301915
    29  N    0.000228  -0.000016  -0.001936   0.009682   0.009359   0.004460
    30  S   -0.001685  -0.006782  -0.011422  -0.067305  -0.159221   0.002340
    31  N    0.003964   0.012199  -0.037939  -0.008672  -0.317529   0.228941
    32  C   -0.299876  -0.916528  -1.063512  -4.032971  -5.383251  -5.211027
    33  H    0.000339  -0.002097   0.000245   0.001165  -0.001476   0.001374
    34  H   -0.000864  -0.001883   0.014105  -0.000190   0.000324   0.000230
    35  H   -0.030897  -0.047617  -0.040424  -0.003732  -0.000201  -0.000159
[...]
 000922,0.00001276,0.00000330,0.00003204,-0.00000293,0.00008173,-0.0000
 2748,-0.00000574,0.00003091,0.00031981,-0.00025823,0.00153344,-0.06258
 495,-0.10975835,0.08146310,-0.00003625,-0.00006796,-0.00005537,0.00002
 008,0.00002283,0.00001063,0.00000512,0.00001362,0.00002686,0.00002343,
 0.00003857,-0.00001095,0.00000608,0.00000927,-0.00000767,-0.00002442,0
 .00001671,-0.00000664,-0.00005352,-0.00001911,0.00001875,0.00008878,0.
 00020516,-0.00009959,0.00002205,0.00003098,-0.00002215,-0.00002965,0.0
 0000656,0.00000379,0.00002271,-0.00002092,0.00000341,-0.00000555,-0.00
 001816,0.00000777,-0.00003525,-0.00002207,0.00002699,-0.00001208,-0.00
 010122,-0.00000065,0.00018512,-0.00005646,0.00003378,0.00046812,-0.002
 30136,0.00107750,-0.00936585,0.00141368,0.00006357,-0.33343308,-0.0200
 7069,0.02778789,-0.01619673,0.01015621,-0.00378804,0.00194801,0.000996
 24,-0.00029381,-0.00043598,-0.00013506,0.00008749,-0.00001625,-0.00005
 535,0.00004602,-0.00002025,0.00008240,-0.00003507,-0.00002131,0.000497
 37,-0.00018616,0.00000254,-0.00026861,-0.00006076,0.00004720,0.0000246
 5,0.00000796,0.00002578,-0.00011043,0.00000881,0.00004205,-0.00011653,
 0.00003187,-0.00028169,0.00034188,-0.00002018,0.00016969,0.00034623,-0
 .00015420,-0.00117289,0.00054012,-0.00186204,0.00033030,-0.00015594,0.
 00001478,-0.00000199,0.00002428,-0.00001654,-0.00001157,0.00001572,-0.
 00000961,-0.00002711,0.00002527,-0.00000635,0.00000394,0.00000084,0.00
 000247,-0.00001167,0.00000469,0.00000206,-0.00000218,0.00000690,-0.000
 00438,0.00002072,0.00003004,-0.00001082,-0.00051367,0.00013310,-0.0000
 1892,0.35830033,0.00010578,-0.00006913,0.00003111,-0.00003397,-0.00000
 364,-0.00000948,-0.00002232,0.00000716,-0.00000716,-0.00008828,-0.0000
 4145,0.00001076,-0.00001127,0.00008300,-0.00002642,0.00001579,0.000001
 39,-0.00000013,0.00010124,-0.00001545,-0.00001487,-0.00000332,-0.00032
 707,0.00002148,-0.00006274,-0.00002196,0.00007585,-0.00000340,0.000038
 33,0.00000680,0.00000040,-0.00000314,-0.00001191,0.00001317,0.00006452
 ,-0.00003732,0.00002445,-0.00010886,0.00006907,-0.00006599,-0.00003079
 ,-0.00071071,0.00072218,-0.00077443,0.00010266,-0.00140995,-0.00322482
 ,0.00418799,-0.02404569,0.00316274,0.00313293,-0.02042111,-0.05472172,
 0.00679721,0.03422163,-0.00478213,-0.00190468,0.00345912,-0.00041624,0
 .00520511,0.00080216,0.00055727,-0.00006749,0.00006481,0.00000579,0.00
 002763,-0.00001516,-0.00003826,-0.00003310,-0.00080535,0.00123185,-0.0
 0136382,0.00010156,-0.00071552,-0.00013546,-0.00026401,0.00024212,-0.0
 0009022,0.00018362,0.00005124,0.00013464,-0.00009861,-0.00036321,-0.00
 002176,-0.00007921,0.00025950,-0.00000266,0.00027122,0.00011306,0.0001
 0149,0.00034606,-0.00011375,0.00029142,-0.00013112,-0.00077724,0.00036
 138,-0.00001594,0.00000058,-0.00000559,-0.00000359,0.00000462,-0.00000
 303,0.00001488,-0.00003680,0.00000676,-0.00000159,-0.00000331,0.000000
 92,-0.00000501,0.00001285,0.00000680,0.00001023,0.00000725,-0.00000022
 ,0.00003157,0.00009195,-0.00000502,-0.00140089,-0.00004378,-0.00004145
 ,0.00846551,0.06063399,0.00001229,0.00006350,0.00003137,-0.00000567,-0
 .00000596,-0.00001224,-0.00000680,-0.00001030,-0.00001016,-0.00000274,
 -0.00000154,0.00002762,0.00005798,0.00000085,-0.00001039,-0.00003330,0
 .00000457,0.00001671,-0.00002987,-0.00002365,-0.00001172,-0.00004984,-
 0.00004740,-0.00027225,0.00007068,0.00011308,0.00004771,-0.00003998,0.
 00000263,0.00007457,0.00002980,0.00001270,-0.00004003,0.00002077,-0.00
 005728,0.00001518,-0.00002683,0.00004404,0.00003536,-0.00001809,-0.000
 65235,-0.00125517,-0.00034409,0.00000927,-0.00039503,0.00085095,0.0044
 4381,0.00351468,0.01288010,0.00048274,0.00530962,0.02519502,0.00744008
 ,-0.04471958,-0.01433099,-0.00115044,-0.00316869,-0.00090891,0.0055154
 1,0.00873331,-0.00030079,0.00001742,0.00051621,-0.00002207,-0.00001542
 ,0.00001683,0.00003530,-0.00003938,0.00005519,-0.00020682,-0.00077565,
 -0.00165833,-0.00010468,-0.00033142,0.00004578,-0.00028493,0.00007851,
 -0.00011762,0.00017231,0.00015346,0.00011627,-0.00006186,-0.00012429,0
 .00015224,0.00029451,-0.00064561,-0.00000946,-0.00092791,0.00013655,-0
 .00035271,-0.00049048,0.00042858,-0.00034101,0.00056856,0.00140117,-0.
 00013470,0.00000377,0.00000952,-0.00001238,-0.00000793,0.00001081,-0.0
 0000616,-0.00001302,0.00000825,-0.00001917,0.00000724,-0.00000670,0.00
 000368,0.00000048,0.00000836,0.00002226,0.00001201,0.00001662,-0.00000
 342,-0.00001463,-0.00000830,0.00008853,0.00070954,-0.00020699,-0.00028
 524,-0.02265762,-0.01621343,0.03414903,0.00489817,-0.00462781,-0.00569
 328,-0.00025777,0.00094980,0.00039807,0.00046416,-0.00155778,0.0000054
 4,-0.00478419,-0.00041075,0.00348458,-0.00398909,-0.00129095,0.0014371
 4,-0.00142148,0.00020927,-0.00138288,0.00030817,0.00046340,-0.00001119
 ,-0.00016210,-0.00058951,-0.00048805,-0.00006293,0.00009569,-0.0000112
 4,-0.00000396,-0.00006084,-0.00000894,-0.00002049,0.00003739,-0.000007
 51,-0.00001724,-0.00001886,0.00000911,0.00002722,-0.00001010,-0.000023
 39,-0.00005047,-0.00000558,0.00005841,0.00014899,-0.00000365,0.0000605
 6,0.00005134,-0.00003115,-0.00003547,-0.00008630,0.00013623,0.00002843
 ,0.00033008,-0.00008503,0.00006260,-0.00005246,0.00017443,-0.00085157,
 -0.00033917,-0.00012183,0.00067799,0.00029205,0.00093268,-0.00062576,-
 0.01228474,0.01350118,0.00822723,-0.18589719,0.10744992,0.10970233,-0.
 00001652,-0.00000801,-0.00004427,0.00001618,-0.00000250,-0.00000686,-0
 .00000579,0.00000086,0.00001163,-0.00002615,0.00002070,-0.00001240,0.0
 0005521,0.00002707,0.00002592,-0.00002157,0.00003010,0.00000058,0.0000
 0870,-0.00004793,-0.00001480,-0.00000637,0.00003814,0.00001898,0.00000
 649,-0.00007273,0.00001892,0.00076103,0.00026564,0.00012011,-0.0004181
 6,0.00003347,-0.00005363,-0.00004058,0.00000815,0.00011682,0.00000653,
 0.00001166,-0.00000881,-0.00000483,-0.00000721,0.00000372,-0.00001055,
 -0.00002060,0.00001376,-0.00000362,-0.00000645,0.00000280,0.00000570,-
 0.00000896,0.00000767,-0.00003804,0.00001153,-0.00003821,0.20264655,0.
 00705400,-0.00586820,-0.00272408,-0.00061033,0.00064283,0.00017122,-0.
 00010688,0.00006176,0.00036179,0.00689621,-0.00520384,-0.01096347,-0.0
 0357151,-0.00242908,-0.00085617,0.00140799,0.00146558,-0.00032190,-0.0
 0025575,-0.00105094,0.00068434,-0.00073519,0.00026455,-0.00078918,-0.0
 0012176,-0.00006604,0.00000995,0.00000945,-0.00003192,0.00001505,-0.00
 000894,-0.00003875,0.00001474,-0.00001997,0.00001631,-0.00000506,0.000
 04748,0.00001212,0.00000988,-0.00011367,0.00006851,-0.00006266,0.00014
 874,-0.00034243,0.00011636,-0.00023842,0.00014833,-0.00005693,0.000283
 89,0.00009473,-0.00001789,0.00004151,-0.00053947,0.00008749,0.00021758
 ,-0.00005174,-0.00000833,-0.00061790,0.00053721,0.00004362,0.00002757,
 0.00012322,-0.00025912,-0.00689045,0.01020795,0.00844992,0.11310869,-0
 .12160828,-0.07363885,0.00002277,0.00004353,0.00002450,0.00000097,-0.0
 0000741,0.00001241,-0.00000656,0.00001078,-0.00001060,-0.00000164,-0.0
 0001413,-0.00000261,0.00001038,-0.00002210,0.00002334,-0.00001284,0.00
 001647,-0.00001124,0.00002255,0.00000303,0.00001905,-0.00000656,0.0000
 0296,-0.00001403,-0.00001069,-0.00000415,-0.00002301,-0.00041275,0.001
 29387,0.00036645,-0.00018966,0.00002991,0.00005123,0.00001849,0.000005
 69,-0.00009042,0.00001197,0.00000725,-0.00000067,0.00000194,-0.0000021
 1,0.00000408,-0.00000363,-0.00000532,0.00000224,-0.00000438,-0.0000059
 8,0.00000133,0.00000300,-0.00000455,0.00000046,0.00001758,-0.00000155,
 0.00000969,-0.11540758,0.12224038,0.00847118,-0.00439094,-0.00844305,-
 0.00036001,0.00082852,0.00107190,0.00049330,-0.00224843,0.00006333,-0.
 01270166,0.00408532,0.01090274,0.00268939,0.00124532,0.00047103,-0.003
 03409,-0.00128359,0.00030552,0.00063753,0.00144832,-0.00082065,0.00078
 590,-0.00077011,0.00065741,0.00001267,0.00007995,-0.00003904,-0.000042
 92,0.00001430,0.00001385,-0.00000754,0.00000892,-0.00000623,0.00002993
 ,-0.00000457,0.00000152,-0.00006377,0.00000293,0.00002104,0.00013220,-
 0.00010614,0.00003139,-0.00028360,0.00037541,-0.00018069,0.00025054,-0
 .00026618,0.00011647,-0.00036131,-0.00013821,0.00009904,-0.00021238,0.
 00063018,-0.00022936,-0.00055222,-0.00056306,0.00027704,0.00064622,-0.
 00100192,0.00031014,0.00037728,0.00026575,0.00030326,-0.00397509,-0.00
 324782,-0.00314219,0.12133970,-0.07369510,-0.10655621,0.00000090,-0.00
 009374,0.00003851,0.00000912,0.00003677,0.00000527,-0.00000539,-0.0000
 3264,-0.00001432,0.00000998,0.00002510,-0.00000162,-0.00002384,-0.0000
 1496,-0.00001865,0.00001120,-0.00002362,0.00000913,-0.00005096,0.00003
 712,-0.00003879,0.00000061,-0.00004896,0.00003007,0.00001736,0.0000535
 8,0.00000838,0.00098626,-0.00069673,0.00045566,0.00002083,0.00004362,-
 0.00008160,-0.00007158,-0.00002175,0.00010164,-0.00003365,-0.00000933,
 0.00000201,0.00000343,0.00000509,-0.00000169,0.00000097,0.00000907,-0.
 00000859,0.00000687,0.00001257,-0.00000489,-0.00000400,-0.00000414,0.0
 0000194,0.00002349,0.00007895,-0.00003820,-0.11517270,0.07937739,0.104
 32845,-0.00000245,-0.00000951,-0.00002162,-0.00000009,0.00000479,0.000
 00387,0.00000055,-0.00000006,0.00001460,0.00000729,-0.00000429,0.00001
 433,-0.00003110,0.00002983,-0.00000554,0.00001255,-0.00000186,0.000006
 74,0.00000610,-0.00000286,0.00001585,0.00004840,0.00003291,0.00001517,
 -0.00001263,-0.00003505,-0.00000184,-0.00001650,-0.00000622,0.00001620
 ,0.00000187,-0.00004170,0.00001427,-0.00002096,0.00000130,0.00000419,-
 0.00000599,0.00004943,-0.00002282,-0.00002253,0.00002348,-0.00000529,0
 .00024426,-0.00019351,0.00021135,-0.00008607,0.00097462,0.00060280,-0.
 00123679,0.00170684,0.00133152,0.00003939,-0.00085779,0.00031073,-0.00
 042026,0.00021712,-0.00006448,0.00033055,0.00005016,-0.00016406,-0.000
 02417,0.00002305,-0.00004376,-0.00001397,-0.00002507,-0.00001707,0.000
 00758,0.00000136,0.00000048,-0.00548942,-0.00142229,-0.00660065,-0.251
 95535,-0.04307243,-0.12622802,-0.01412500,0.00665525,-0.00760809,0.002
 53195,0.00181976,-0.00231937,0.00006159,-0.00017310,0.00017462,0.00004
 900,0.00009420,0.00013134,-0.00046836,-0.00028864,0.00060797,-0.000063
 50,0.00001888,-0.00057427,0.00220886,-0.00153008,-0.00323959,-0.000000
 37,0.00000412,-0.00000971,-0.00000221,0.00000041,-0.00000780,-0.000010
 13,0.00000223,-0.00000075,-0.00000047,-0.00000142,0.00000521,0.0000018
 2,0.00000162,0.00000202,-0.00000402,0.00000369,-0.00000702,0.00000893,
 0.00001616,0.00003228,-0.00024958,0.00102424,-0.00010052,0.00000977,0.
 00000266,0.00000254,-0.00000801,-0.00000528,0.00000308,0.26895472,-0.0
 0003295,-0.00004220,-0.00001843,0.00001769,0.00001364,0.00000624,0.000
 01035,0.00000834,0.00000150,0.00001984,0.00001985,-0.00001345,-0.00002
 036,-0.00003877,0.00000691,0.00000307,0.00000681,0.00000059,0.00000110
 ,0.00002867,-0.00001674,0.00003329,0.00002381,-0.00001555,-0.00003304,
 -0.00006794,0.00002136,0.00002208,0.00001505,0.00000438,-0.00004620,-0
 .00001853,0.00000301,-0.00001128,0.00006468,-0.00001003,0.00000577,-0.
 00003570,-0.00000043,-0.00003515,-0.00001770,0.00001185,0.00047766,-0.
 00009545,0.00011924,-0.00009754,-0.00044985,0.00013735,-0.00082285,0.0
 0122424,-0.00066751,-0.00007799,-0.00029542,0.00030909,-0.00014129,0.0
 0020009,-0.00010459,0.00016392,0.00001178,-0.00000445,0.00002626,0.000
 00258,-0.00001806,-0.00008510,0.00003059,-0.00000451,0.00001913,0.0000
 2877,0.00001265,-0.02415470,-0.00101792,-0.01422522,-0.04377899,-0.061
 39349,-0.02497178,0.03037080,-0.00154474,0.01798876,0.00352978,-0.0031
 4363,0.00227645,0.00014346,-0.00092907,0.00016875,0.00011974,0.0005060
 9,0.00002729,-0.00037297,-0.00026835,-0.00024315,-0.00138638,0.0001859
 6,-0.00073326,-0.00051772,-0.00513790,0.00003189,0.00000169,-0.0000014
 7,0.00000329,0.00000519,-0.00000563,0.00000565,0.00000112,-0.00000191,
 0.00000019,-0.00001209,0.00000977,-0.00000561,-0.00000537,0.00000299,-
 0.00000316,-0.00002153,-0.00001742,0.00001214,0.00004209,0.00003133,-0
 .00004347,0.00079063,-0.00072136,-0.00065070,0.00004163,0.00004856,-0.
 00007934,0.00000444,-0.00000404,-0.00000196,0.03502887,0.07264869,-0.0
 0001573,-0.00000941,-0.00001351,0.00000881,0.00000798,0.00000396,0.000
 00567,0.00000019,0.00000681,0.00002428,0.00000523,0.00000757,0.0000063
 6,-0.00003568,-0.00001350,-0.00002037,-0.00002072,0.00002027,0.0000048
 0,0.00005180,-0.00002633,-0.00002410,-0.00003773,0.00003877,0.00000458
 ,0.00003331,-0.00004182,-0.00002378,0.00001767,0.00001294,-0.00001185,
 -0.00001347,0.00000328,0.00001186,0.00004079,-0.00003534,0.00003688,-0
 .00011754,0.00008476,0.00006648,-0.00002969,0.00000699,0.00029069,0.00
 065177,-0.00032710,-0.00066662,-0.00101293,0.00041110,0.00235072,-0.00
 074767,-0.00207110,-0.00016393,0.00067022,-0.00011049,0.00058171,-0.00
 018205,0.00003605,-0.00050066,-0.00012421,0.00004389,0.00006726,-0.000
 02726,0.00004236,-0.00004388,0.00004504,-0.00002540,0.00002419,0.00002
 495,0.00000263,-0.00619322,0.00172036,0.00290905,-0.12705157,-0.025753
 16,-0.11680701,-0.00835727,0.00421837,-0.00558473,-0.00245555,0.000943
 25,0.00452096,0.00040511,0.00026482,-0.00017347,-0.00002073,-0.0000929
 0,-0.00025756,0.00060001,-0.00010222,-0.00105490,-0.00059676,-0.000079
 45,0.00064367,-0.00268499,-0.00047466,0.00630382,0.00000223,0.00000159
 ,-0.00000522,0.00000072,-0.00000043,0.00000143,-0.00000212,-0.00000193
 ,0.00000413,-0.00000412,0.00000581,-0.00000202,-0.00000413,0.00000808,
 -0.00000116,0.00000483,-0.00000599,0.00000287,0.00003776,0.00000851,-0
 .00001190,0.00074805,-0.00016646,-0.00000405,0.00003558,0.00006746,-0.
 00006441,-0.00000234,0.00000139,-0.00000268,0.14396453,0.02029404,0.11
 129965,-0.00001065,-0.00002329,-0.00000893,0.00000778,0.00000739,0.000
 00306,0.00000275,0.00000558,0.00000104,0.00000623,0.00000723,-0.000006
 87,-0.00000157,-0.00002477,0.00000787,-0.00001256,0.00000848,-0.000003
 50,0.00000333,0.00001573,-0.00001185,0.00001900,0.00000373,-0.00001249
 ,-0.00000646,-0.00000006,0.00001725,0.00001161,-0.00000047,-0.00000392
 ,-0.00001337,0.00000559,-0.00000094,-0.00000078,0.00000824,-0.00000034
 ,-0.00000281,-0.00000516,-0.00000069,0.00000997,0.00000798,-0.00000975
 ,0.00004152,-0.00002972,-0.00007344,0.00002279,0.00011708,-0.00000675,
 -0.00037860,0.00027216,0.00090493,0.00000945,-0.00010181,0.00006966,-0
 .00007850,-0.00001489,-0.00007359,0.00002191,-0.00001023,0.00001778,-0
 .00000131,0.00002215,0.00000927,-0.00004778,0.00000537,0.00000258,0.00
 001149,0.00001526,0.00000677,-0.00064263,0.00020708,-0.00005031,0.0006
 8583,-0.00058005,-0.00671005,-0.02213064,0.02525940,-0.00998842,-0.095
 69125,0.09728884,-0.03658978,0.01013819,-0.01273548,0.00231062,0.00080
 164,0.00121257,0.00124980,0.00015331,0.00015726,0.00046568,0.00020695,
 -0.00139691,0.00006533,-0.00111849,-0.00163307,-0.00295159,0.00000142,
 -0.00000076,0.00000176,0.00000083,-0.00000018,0.00000223,-0.00000007,0
 .00000023,-0.00000114,-0.00000299,0.00000353,-0.00000246,-0.00000332,-
 0.00000027,-0.00000120,-0.00000532,-0.00000647,0.00000307,0.00000831,0
 .00000388,-0.00000865,0.00001936,-0.00000080,-0.00000573,0.00000519,0.
 00001894,0.00000424,0.00000322,-0.00000043,-0.00000324,-0.00025524,0.0
 0077393,-0.00043937,0.10821222,0.00000538,-0.00000661,-0.00000533,0.00
 000090,0.00000291,0.00000061,-0.00000700,0.00000530,0.00000813,-0.0000
 0455,-0.00000090,0.00001213,0.00003055,0.00001450,0.00000719,-0.000020
 12,0.00001318,-0.00001212,0.00001249,-0.00002566,0.00001225,0.00000571
 ,-0.00001587,0.00000361,0.00000068,0.00001405,-0.00000074,-0.00000459,
 -0.00001254,-0.00000752,0.00001585,0.00001121,-0.00000501,0.00000071,-
 0.00001444,0.00000304,-0.00002534,-0.00000056,-0.00000548,0.00002228,-
 0.00000165,-0.00000576,-0.00001107,0.00001976,-0.00002440,0.00005703,0
 .00001575,0.00004647,0.00010140,0.00015190,-0.00007958,-0.00010364,-0.
 00007005,0.00000887,-0.00000615,0.00004016,0.00000010,0.00000194,-0.00
 001174,0.00001842,-0.00001645,0.00002560,-0.00001706,0.00001042,-0.000
 02649,0.00000781,-0.00000099,-0.00000953,-0.00000794,-0.00049592,-0.00
 048615,-0.00027223,-0.00222427,0.00288453,-0.00082361,0.00318127,0.009
 98492,0.00099820,0.09837941,-0.27233438,0.06617490,0.01292493,-0.01822
 458,0.00840081,0.00060798,0.00204494,0.00019323,0.00002562,-0.00110091
 ,0.00000752,-0.00018789,-0.00152064,-0.00005229,-0.00330382,-0.0008395
 9,-0.00151385,0.00000479,0.00000389,-0.00001037,-0.00001173,0.00001765
 ,-0.00000923,-0.00000786,0.00000302,-0.00000018,0.00000508,-0.00000504
 ,0.00000363,-0.00000859,0.00000084,0.00000150,0.00001031,0.00001588,-0
 .00000497,0.00000379,-0.00000243,0.00000326,0.00000415,-0.00000422,0.0
 0000565,0.00001180,0.00001648,-0.00001613,-0.00000594,0.00000509,-0.00
 000029,-0.00011580,0.00013618,-0.00004705,-0.10886280,0.27928625,-0.00
 000705,0.00000605,0.00000518,0.00000061,-0.00000256,-0.00000101,0.0000
 0374,-0.00000265,-0.00000481,0.00000259,0.00000340,-0.00000605,-0.0000
 1087,-0.00000198,-0.00000335,0.00001499,-0.00000993,0.00000417,-0.0000
 0720,0.00000729,-0.00000082,-0.00001136,0.00000309,0.00000167,-0.00000
 456,-0.00001822,-0.00001042,0.00000369,0.00000910,0.00000416,-0.000008
 07,-0.00000556,0.00000121,0.00000037,0.00001260,-0.00000344,0.00001272
 ,-0.00000920,0.00000066,-0.00001620,-0.00000764,0.00002039,0.00003950,
 0.00004982,0.00008034,-0.00001270,-0.00018662,0.00007849,0.00115461,0.
 00007025,-0.00144563,-0.00026907,0.00017878,-0.00005706,0.00012574,0.0
 0016941,0.00001997,0.00001470,-0.00002910,0.00001354,0.00000846,-0.000
 02888,-0.00001298,0.00000936,0.00001414,-0.00000261,-0.00000236,-0.000
 00051,0.00000166,-0.00026670,0.00016370,-0.00063809,-0.00653796,0.0003
 3544,0.00896579,-0.00933507,0.01292166,-0.01212451,-0.03634544,0.06568
 258,-0.06216549,0.00095982,-0.00582864,0.00795459,0.00134641,0.0005103
 3,-0.00080000,0.00049616,0.00012079,-0.00041787,-0.00009612,-0.0007122
 8,0.00011395,-0.00270160,-0.00075668,0.00291125,-0.00000205,-0.0000017
 7,0.00000420,0.00000471,-0.00000679,0.00000443,0.00000435,-0.00000197,
 0.00000072,-0.00000277,0.00000238,-0.00000163,0.00000333,0.00000027,-0
 .00000035,-0.00000298,-0.00000605,0.00000311,-0.00000013,0.00000447,-0
 .00000326,0.00004921,-0.00002693,-0.00003604,0.00000605,-0.00001249,-0
 .00003411,0.00000049,-0.00000169,0.00000170,-0.00044342,0.00038877,0.0
 0022675,0.05182207,-0.07299617,0.05735161\\-0.00000184,-0.00000478,-0.
 00001193,0.00000359,0.00000277,0.00000633,0.00000032,0.00000141,0.0000
 0209,-0.00000979,-0.00001795,-0.00000529,-0.00000256,0.00001754,-0.000
 00718,0.00000769,0.00000208,0.00000605,-0.00001072,-0.00001067,-0.0000
 0314,-0.00000442,-0.00000587,0.00000126,-0.00000512,0.00000629,-0.0000
 0135,0.00000238,-0.00000319,-0.00000002,0.00000016,0.00000786,-0.00000
 535,0.00000423,-0.00000407,0.00000433,0.00000537,0.00000300,0.00000017
 ,0.00000236,-0.00000737,0.00000169,-0.00000671,-0.00000084,0.00000086,
 0.00000112,-0.00000069,0.00000137,0.00000435,0.00000155,-0.00000137,-0
 .00000031,-0.00000165,-0.00000236,0.00000689,0.00000032,0.00000322,-0.
 00000349,0.00000425,-0.00000437,-0.00000698,-0.00001860,0.00001243,0.0
 0004154,0.00003118,-0.00002416,-0.00003444,-0.00000070,0.00001889,-0.0
 0000405,-0.00000297,0.00000521,-0.00000100,0.00000249,0.00000783,0.000
 00118,0.00000092,0.00000307,0.00000445,-0.00000175,-0.00001323,0.00001
 297,0.00000339,-0.00001574,-0.00000658,0.00000246,0.00001412,0.0000002
 7,0.00000142,0.00000198,0.00000753,0.00000246,-0.00001665,-0.00001085,
 0.00000279,0.00002269,-0.00000512,-0.00000289,-0.00000087,-0.00000194,
 -0.00000150,-0.00000634,-0.00000149,-0.00000197,0.00000318,-0.00000301
 ,-0.00000033,-0.00000060,0.00000003,0.00000022,0.00000201,0.00000035,0
 .00000005,-0.00000130,0.00000257,0.00000011,0.00000214,-0.00000036,-0.
 00000056,-0.00000061,0.00000013,0.00000281,0.00000210,0.00000895,-0.00
 001130,-0.00000747,0.00000292,-0.00000054,-0.00000101,-0.00000056,0.00
 000283,0.00000729\\\@


 THE PROMISED LAND ALWAYS LIES ON THE OTHER SIDE OF A WILDERNESS.

                         -- HAVELOCK ELLIS
 Job cpu time:  1 days  3 hours  9 minutes 14.6 seconds.
 File lengths (MBytes):  RWF=   1943 Int=      0 D2E=      0 Chk=     29 Scr=      1
 Normal termination of Gaussian 09 at Sun Dec 29 07:30:48 2013.
