 Entering Gaussian System, Link 0=g09
 Initial command:
 /opt/gaussian/g09/l1.exe /panfs/panfs.cluster/home/shuo/Gau-11336.inp -scrdir=/panfs/panfs.cluster/home/shuo/
 Default is to use a total of  12 processors:
                               12 via shared-memory
                                1 via Linda
 Entering Link 1 = /opt/gaussian/g09/l1.exe PID=     11337.
  
 Copyright (c) 1988,1990,1992,1993,1995,1998,2003,2009,2011,
            Gaussian, Inc.  All Rights Reserved.
  
 This is part of the Gaussian(R) 09 program.  It is based on
 the Gaussian(R) 03 system (copyright 2003, Gaussian, Inc.),
 the Gaussian(R) 98 system (copyright 1998, Gaussian, Inc.),
 the Gaussian(R) 94 system (copyright 1995, Gaussian, Inc.),
 the Gaussian 92(TM) system (copyright 1992, Gaussian, Inc.),
 the Gaussian 90(TM) system (copyright 1990, Gaussian, Inc.),
 the Gaussian 88(TM) system (copyright 1988, Gaussian, Inc.),
 the Gaussian 86(TM) system (copyright 1986, Carnegie Mellon
 University), and the Gaussian 82(TM) system (copyright 1983,
 Carnegie Mellon University). Gaussian is a federally registered
 trademark of Gaussian, Inc.
  
 This software contains proprietary and confidential information,
 including trade secrets, belonging to Gaussian, Inc.
  
 This software is provided under written license and may be
 used, copied, transmitted, or stored only in accord with that
 written license.
  
 The following legend is applicable only to US Government
 contracts under FAR:
  
                    RESTRICTED RIGHTS LEGEND
  
 Use, reproduction and disclosure by the US Government is
 subject to restrictions as set forth in subparagraphs (a)
 and (c) of the Commercial Computer Software - Restricted
 Rights clause in FAR 52.227-19.
  
 Gaussian, Inc.
 340 Quinnipiac St., Bldg. 40, Wallingford CT 06492
  
  
 ---------------------------------------------------------------
 Warning -- This program may not be used in any manner that
 competes with the business of Gaussian, Inc. or will provide
 assistance to any competitor of Gaussian, Inc.  The licensee
 of this program is prohibited from giving any competitor of
 Gaussian, Inc. access to this program.  By using this program,
 the user acknowledges that Gaussian, Inc. is engaged in the
 business of creating and licensing software in the field of
 computational chemistry and represents and warrants to the
 licensee that it is not a competitor of Gaussian, Inc. and that
 it will not use this program in any manner prohibited above.
 ---------------------------------------------------------------
  

 Cite this work as:
 Gaussian 09, Revision C.01,
 M. J. Frisch, G. W. Trucks, H. B. Schlegel, G. E. Scuseria, 
 M. A. Robb, J. R. Cheeseman, G. Scalmani, V. Barone, B. Mennucci, 
 G. A. Petersson, H. Nakatsuji, M. Caricato, X. Li, H. P. Hratchian, 
 A. F. Izmaylov, J. Bloino, G. Zheng, J. L. Sonnenberg, M. Hada, 
 M. Ehara, K. Toyota, R. Fukuda, J. Hasegawa, M. Ishida, T. Nakajima, 
 Y. Honda, O. Kitao, H. Nakai, T. Vreven, J. A. Montgomery, Jr., 
 J. E. Peralta, F. Ogliaro, M. Bearpark, J. J. Heyd, E. Brothers, 
 K. N. Kudin, V. N. Staroverov, T. Keith, R. Kobayashi, J. Normand, 
 K. Raghavachari, A. Rendell, J. C. Burant, S. S. Iyengar, J. Tomasi, 
 M. Cossi, N. Rega, J. M. Millam, M. Klene, J. E. Knox, J. B. Cross, 
 V. Bakken, C. Adamo, J. Jaramillo, R. Gomperts, R. E. Stratmann, 
 O. Yazyev, A. J. Austin, R. Cammi, C. Pomelli, J. W. Ochterski, 
 R. L. Martin, K. Morokuma, V. G. Zakrzewski, G. A. Voth, 
 P. Salvador, J. J. Dannenberg, S. Dapprich, A. D. Daniels, 
 O. Farkas, J. B. Foresman, J. V. Ortiz, J. Cioslowski, 
 and D. J. Fox, Gaussian, Inc., Wallingford CT, 2010.
 
 ******************************************
 Gaussian 09:  EM64L-G09RevC.01 23-Sep-2011
                29-Dec-2013 
 ******************************************
 %chk=82_C19H10N4S3Se.chk
 %NProcShared=12
 Will use up to   12 processors via shared memory.
 %Mem=8000MB
 Default route:  MaxDisk=100GB
 --------------------------------------------
 #B3LYP/6-31++G(d,p) opt scf=direct freq test
 --------------------------------------------
 1/14=-1,18=20,19=15,26=3,38=1/1,3;
 2/9=110,12=2,17=6,18=5,40=1/2;
 3/5=1,6=6,7=1111,11=2,16=1,25=1,30=1,71=1,74=-5/1,2,3;
 4//1;
 5/5=2,38=5/2;
 6/7=2,8=2,9=2,10=2,28=1/1;
 7//1,2,3,16;
 1/14=-1,18=20,19=15/3(2);
 2/9=110/2;
 99//99;
 2/9=110/2;
 3/5=1,6=6,7=1111,11=2,16=1,25=1,30=1,71=1,74=-5/1,2,3;
 4/5=5,16=3/1;
 5/5=2,38=5/2;
 7//1,2,3,16;
 1/14=-1,18=20,19=15/3(-5);
 2/9=110/2;
 6/7=2,8=2,9=2,10=2,19=2,28=1/1;
 99/9=1/99;
 ----------------------------------------------------------------------
 Geom opt of No.82 candidate from the CEPDB database with SMILE code of
  [SiH2]1C=c2ccc3c4nsnc4c4c(sc5cc(-c6cncs6)c6cscc6c45)c3c2=C1, HPC, 201
 31227, Shuo Dai, Gaussian09
 ----------------------------------------------------------------------
 Charge =  0 Multiplicity = 1
 Symbolic Z-Matrix:
 Si                    0.67817   0.72676  -0.69009 
 H                     0.34151   1.50563   0.52888 
 H                     0.37008  -0.31571  -1.61346 
 C                     2.84308  -0.15335  -0.05219 
 C                     3.58148   0.65798  -0.66526 
 C                     4.95528   0.80846  -0.67253 
 C                     5.62019   1.72769  -1.29265 
 C                     4.67933   2.62616  -1.89006 
 C                     5.40417   3.58109  -2.56348 
 N                     6.63471   3.69248  -2.63343 
 S                     8.02968   3.7867   -2.67648 
 N                     6.86096   5.17859  -3.63456 
 C                     5.40924   4.70453  -3.32608 
 C                     3.86578   4.82992  -3.42536 
 C                     2.97973   3.74568  -2.65799 
 S                     1.40967   4.17324  -3.00717 
 C                     1.75553   5.53042  -3.92591 
 C                     0.67193   6.22738  -4.42059 
 C                     0.9182    7.31537  -5.19299 
 C                    -0.15877   8.04769  -5.70296 
 C                    -1.34673   7.66825  -6.2625 
 N                    -2.10712   8.73751  -6.69387 
 C                    -1.45836   9.83958  -6.40815 
 S                    -0.08765   9.71835  -5.48304 
 C                     2.24021   7.67363  -5.39604 
 C                     2.57728   8.76201  -6.16656 
 S                     4.25669   9.00928  -6.26423 
 C                     4.56174   7.52541  -5.25173 
 C                     3.35844   6.99488  -4.90298 
 C                     3.09471   5.81153  -4.1037 
 C                     3.21909   2.48431  -1.71667 
 C                     2.31159   1.18216  -0.72422 
 C                     1.71167  -0.15017   0.36632 
 H                     3.40873  -0.81165   0.65289 
 H                     5.43034   0.03472  -0.15318 
 H                     6.70821   1.71341  -1.2782 
 H                    -0.34381   5.91133  -4.20469 
 H                    -1.66124   6.63763  -6.37916 
 H                    -1.67111   10.86748  -6.58507 
 H                     1.88136   9.41881  -6.66934 
 H                     5.51828   7.09829  -4.95111 
 H                     0.77162  -0.98208   0.92232 
 

 GradGradGradGradGradGradGradGradGradGradGradGradGradGradGradGradGradGrad
 Berny optimization.
 Initialization pass.
                           ----------------------------
                           !    Initial Parameters    !
                           ! (Angstroms and Degrees)  !
 --------------------------                            --------------------------
 ! Name  Definition              Value          Derivative Info.                !
 --------------------------------------------------------------------------------
 ! R1    R(1,2)                  1.4852         estimate D2E/DX2                !
 ! R2    R(1,3)                  1.4263         estimate D2E/DX2                !
 ! R3    R(1,32)                 1.6961         estimate D2E/DX2                !
 ! R4    R(1,33)                 1.7185         estimate D2E/DX2                !
 ! R5    R(4,5)                  1.2567         estimate D2E/DX2                !
 ! R6    R(4,32)                 1.5867         estimate D2E/DX2                !
 ! R7    R(4,33)                 1.2063         estimate D2E/DX2                !
 ! R8    R(4,34)                 1.1182         estimate D2E/DX2                !
 ! R9    R(5,6)                  1.382          estimate D2E/DX2                !
 ! R10   R(5,32)                 1.3751         estimate D2E/DX2                !
 ! R11   R(6,7)                  1.2929         estimate D2E/DX2                !
 ! R12   R(6,35)                 1.046          estimate D2E/DX2                !
 ! R13   R(7,8)                  1.4316         estimate D2E/DX2                !
 ! R14   R(7,36)                 1.0882         estimate D2E/DX2                !
 ! R15   R(8,9)                  1.3751         estimate D2E/DX2                !
 ! R16   R(8,31)                 1.4773         estimate D2E/DX2                !
 ! R17   R(9,10)                 1.2375         estimate D2E/DX2                !
 ! R18   R(9,13)                 1.3578         estimate D2E/DX2                !
 ! R19   R(10,11)                1.3988         estimate D2E/DX2                !
 ! R20   R(10,12)                1.8061         estimate D2E/DX2                !
 ! R21   R(10,13)                1.7337         estimate D2E/DX2                !
 ! R22   R(11,12)                2.0546         estimate D2E/DX2                !
 ! R23   R(12,13)                1.558          estimate D2E/DX2                !
 ! R24   R(13,14)                1.5517         estimate D2E/DX2                !
 ! R25   R(14,15)                1.5967         estimate D2E/DX2                !
 ! R26   R(14,30)                1.4207         estimate D2E/DX2                !
 ! R27   R(15,16)                1.6643         estimate D2E/DX2                !
 ! R28   R(15,31)                1.592          estimate D2E/DX2                !
 ! R29   R(16,17)                1.675          estimate D2E/DX2                !
 ! R30   R(17,18)                1.3801         estimate D2E/DX2                !
 ! R31   R(17,30)                1.3799         estimate D2E/DX2                !
 ! R32   R(18,19)                1.3568         estimate D2E/DX2                !
 ! R33   R(18,37)                1.0855         estimate D2E/DX2                !
 ! R34   R(19,20)                1.3987         estimate D2E/DX2                !
 ! R35   R(19,25)                1.3847         estimate D2E/DX2                !
 ! R36   R(20,21)                1.3669         estimate D2E/DX2                !
 ! R37   R(20,24)                1.6866         estimate D2E/DX2                !
 ! R38   R(21,22)                1.3812         estimate D2E/DX2                !
 ! R39   R(21,38)                1.0838         estimate D2E/DX2                !
 ! R40   R(22,23)                1.3104         estimate D2E/DX2                !
 ! R41   R(23,24)                1.6581         estimate D2E/DX2                !
 ! R42   R(23,39)                1.0645         estimate D2E/DX2                !
 ! R43   R(25,26)                1.3755         estimate D2E/DX2                !
 ! R44   R(25,29)                1.3979         estimate D2E/DX2                !
 ! R45   R(26,27)                1.7003         estimate D2E/DX2                !
 ! R46   R(26,40)                1.081          estimate D2E/DX2                !
 ! R47   R(27,28)                1.8221         estimate D2E/DX2                !
 ! R48   R(28,29)                1.3605         estimate D2E/DX2                !
 ! R49   R(28,41)                1.0898         estimate D2E/DX2                !
 ! R50   R(29,30)                1.4521         estimate D2E/DX2                !
 ! R51   R(31,32)                1.8719         estimate D2E/DX2                !
 ! R52   R(32,33)                1.8233         estimate D2E/DX2                !
 ! R53   R(33,42)                1.3729         estimate D2E/DX2                !
 ! A1    A(2,1,3)              149.9598         estimate D2E/DX2                !
 ! A2    A(2,1,32)              95.3944         estimate D2E/DX2                !
 ! A3    A(2,1,33)              84.2259         estimate D2E/DX2                !
 ! A4    A(3,1,32)             113.0326         estimate D2E/DX2                !
 ! A5    A(3,1,33)              98.9118         estimate D2E/DX2                !
 ! A6    A(5,4,33)             135.9396         estimate D2E/DX2                !
 ! A7    A(5,4,34)             112.9817         estimate D2E/DX2                !
 ! A8    A(32,4,34)            158.745          estimate D2E/DX2                !
 ! A9    A(33,4,34)            104.9056         estimate D2E/DX2                !
 ! A10   A(4,5,6)              131.0654         estimate D2E/DX2                !
 ! A11   A(6,5,32)             151.1949         estimate D2E/DX2                !
 ! A12   A(5,6,7)              126.2381         estimate D2E/DX2                !
 ! A13   A(5,6,35)             111.6117         estimate D2E/DX2                !
 ! A14   A(7,6,35)             122.0392         estimate D2E/DX2                !
 ! A15   A(6,7,8)              107.9617         estimate D2E/DX2                !
 ! A16   A(6,7,36)             119.8997         estimate D2E/DX2                !
 ! A17   A(8,7,36)             132.1358         estimate D2E/DX2                !
 ! A18   A(7,8,9)              107.0848         estimate D2E/DX2                !
 ! A19   A(7,8,31)             122.7099         estimate D2E/DX2                !
 ! A20   A(9,8,31)             130.1807         estimate D2E/DX2                !
 ! A21   A(8,9,10)             127.9039         estimate D2E/DX2                !
 ! A22   A(8,9,13)             148.3871         estimate D2E/DX2                !
 ! A23   A(9,10,12)            103.2943         estimate D2E/DX2                !
 ! A24   A(11,10,13)           130.79           estimate D2E/DX2                !
 ! A25   A(11,12,13)           103.3897         estimate D2E/DX2                !
 ! A26   A(9,13,12)            111.4956         estimate D2E/DX2                !
 ! A27   A(9,13,14)             95.686          estimate D2E/DX2                !
 ! A28   A(10,13,14)           140.8787         estimate D2E/DX2                !
 ! A29   A(12,13,14)           152.8184         estimate D2E/DX2                !
 ! A30   A(13,14,15)           117.7972         estimate D2E/DX2                !
 ! A31   A(13,14,30)           128.7741         estimate D2E/DX2                !
 ! A32   A(15,14,30)           113.4206         estimate D2E/DX2                !
 ! A33   A(14,15,16)           104.3724         estimate D2E/DX2                !
 ! A34   A(14,15,31)           137.6253         estimate D2E/DX2                !
 ! A35   A(16,15,31)           117.9985         estimate D2E/DX2                !
 ! A36   A(15,16,17)            97.3797         estimate D2E/DX2                !
 ! A37   A(16,17,18)           116.3381         estimate D2E/DX2                !
 ! A38   A(16,17,30)           115.8574         estimate D2E/DX2                !
 ! A39   A(18,17,30)           127.803          estimate D2E/DX2                !
 ! A40   A(17,18,19)           117.8066         estimate D2E/DX2                !
 ! A41   A(17,18,37)           121.0908         estimate D2E/DX2                !
 ! A42   A(19,18,37)           121.1012         estimate D2E/DX2                !
 ! A43   A(18,19,20)           119.1865         estimate D2E/DX2                !
 ! A44   A(18,19,25)           117.6611         estimate D2E/DX2                !
 ! A45   A(20,19,25)           123.1085         estimate D2E/DX2                !
 ! A46   A(19,20,21)           132.3095         estimate D2E/DX2                !
 ! A47   A(19,20,24)           116.0169         estimate D2E/DX2                !
 ! A48   A(21,20,24)           111.4081         estimate D2E/DX2                !
 ! A49   A(20,21,22)           113.0436         estimate D2E/DX2                !
 ! A50   A(20,21,38)           124.0719         estimate D2E/DX2                !
 ! A51   A(22,21,38)           122.8737         estimate D2E/DX2                !
 ! A52   A(21,22,23)           108.0855         estimate D2E/DX2                !
 ! A53   A(22,23,24)           117.9979         estimate D2E/DX2                !
 ! A54   A(22,23,39)           132.6046         estimate D2E/DX2                !
 ! A55   A(24,23,39)           109.1805         estimate D2E/DX2                !
 ! A56   A(20,24,23)            87.9835         estimate D2E/DX2                !
 ! A57   A(19,25,26)           121.3894         estimate D2E/DX2                !
 ! A58   A(19,25,29)           125.8999         estimate D2E/DX2                !
 ! A59   A(26,25,29)           112.6904         estimate D2E/DX2                !
 ! A60   A(25,26,27)           112.9108         estimate D2E/DX2                !
 ! A61   A(25,26,40)           125.7027         estimate D2E/DX2                !
 ! A62   A(27,26,40)           121.3859         estimate D2E/DX2                !
 ! A63   A(26,27,28)            90.8599         estimate D2E/DX2                !
 ! A64   A(27,28,29)           108.1756         estimate D2E/DX2                !
 ! A65   A(27,28,41)           128.2701         estimate D2E/DX2                !
 ! A66   A(29,28,41)           123.5543         estimate D2E/DX2                !
 ! A67   A(25,29,28)           115.3236         estimate D2E/DX2                !
 ! A68   A(25,29,30)           116.3926         estimate D2E/DX2                !
 ! A69   A(28,29,30)           128.2785         estimate D2E/DX2                !
 ! A70   A(14,30,17)           108.9334         estimate D2E/DX2                !
 ! A71   A(14,30,29)           136.6607         estimate D2E/DX2                !
 ! A72   A(17,30,29)           114.4054         estimate D2E/DX2                !
 ! A73   A(8,31,15)             90.1798         estimate D2E/DX2                !
 ! A74   A(8,31,32)            127.4599         estimate D2E/DX2                !
 ! A75   A(15,31,32)           142.3494         estimate D2E/DX2                !
 ! A76   A(1,32,4)              95.0527         estimate D2E/DX2                !
 ! A77   A(1,32,5)             141.8295         estimate D2E/DX2                !
 ! A78   A(1,32,31)            131.6315         estimate D2E/DX2                !
 ! A79   A(4,32,31)            130.3645         estimate D2E/DX2                !
 ! A80   A(5,32,31)             80.8044         estimate D2E/DX2                !
 ! A81   A(5,32,33)             89.9807         estimate D2E/DX2                !
 ! A82   A(1,33,4)             110.6176         estimate D2E/DX2                !
 ! A83   A(1,33,42)             98.417          estimate D2E/DX2                !
 ! A84   A(4,33,42)            141.3597         estimate D2E/DX2                !
 ! A85   A(32,33,42)           155.548          estimate D2E/DX2                !
 ! A86   L(9,10,11,12,-1)      181.9088         estimate D2E/DX2                !
 ! A87   L(31,32,33,5,-1)      170.785          estimate D2E/DX2                !
 ! A88   L(9,10,11,12,-2)      179.4931         estimate D2E/DX2                !
 ! A89   L(31,32,33,5,-2)      176.2178         estimate D2E/DX2                !
 ! D1    D(2,1,32,4)            99.3682         estimate D2E/DX2                !
 ! D2    D(2,1,32,5)           119.1975         estimate D2E/DX2                !
 ! D3    D(2,1,32,31)          -99.1068         estimate D2E/DX2                !
 ! D4    D(3,1,32,4)           -70.6928         estimate D2E/DX2                !
 ! D5    D(3,1,32,5)           -50.8635         estimate D2E/DX2                !
 ! D6    D(3,1,32,31)           90.8322         estimate D2E/DX2                !
 ! D7    D(2,1,33,4)          -125.0018         estimate D2E/DX2                !
 ! D8    D(2,1,33,42)           80.9335         estimate D2E/DX2                !
 ! D9    D(3,1,33,4)            85.131          estimate D2E/DX2                !
 ! D10   D(3,1,33,42)          -68.9338         estimate D2E/DX2                !
 ! D11   D(33,4,5,6)           151.728          estimate D2E/DX2                !
 ! D12   D(34,4,5,6)             4.5858         estimate D2E/DX2                !
 ! D13   D(34,4,32,1)         -130.4581         estimate D2E/DX2                !
 ! D14   D(34,4,32,31)          67.6527         estimate D2E/DX2                !
 ! D15   D(5,4,33,1)            35.6322         estimate D2E/DX2                !
 ! D16   D(5,4,33,42)          171.7751         estimate D2E/DX2                !
 ! D17   D(34,4,33,1)         -175.4913         estimate D2E/DX2                !
 ! D18   D(34,4,33,42)         -39.3485         estimate D2E/DX2                !
 ! D19   D(4,5,6,7)           -176.2392         estimate D2E/DX2                !
 ! D20   D(4,5,6,35)             7.5528         estimate D2E/DX2                !
 ! D21   D(32,5,6,7)           -30.5582         estimate D2E/DX2                !
 ! D22   D(32,5,6,35)          153.2338         estimate D2E/DX2                !
 ! D23   D(6,5,32,1)           179.8971         estimate D2E/DX2                !
 ! D24   D(6,5,32,31)           27.8872         estimate D2E/DX2                !
 ! D25   D(6,5,32,33)         -148.3306         estimate D2E/DX2                !
 ! D26   D(5,6,7,8)              4.3228         estimate D2E/DX2                !
 ! D27   D(5,6,7,36)          -176.2234         estimate D2E/DX2                !
 ! D28   D(35,6,7,8)          -179.8368         estimate D2E/DX2                !
 ! D29   D(35,6,7,36)           -0.3829         estimate D2E/DX2                !
 ! D30   D(6,7,8,9)           -178.949          estimate D2E/DX2                !
 ! D31   D(6,7,8,31)             2.6909         estimate D2E/DX2                !
 ! D32   D(36,7,8,9)             1.6895         estimate D2E/DX2                !
 ! D33   D(36,7,8,31)         -176.6707         estimate D2E/DX2                !
 ! D34   D(7,8,9,10)            -1.6511         estimate D2E/DX2                !
 ! D35   D(7,8,9,13)          -179.2874         estimate D2E/DX2                !
 ! D36   D(31,8,9,10)          176.5429         estimate D2E/DX2                !
 ! D37   D(31,8,9,13)           -1.0934         estimate D2E/DX2                !
 ! D38   D(7,8,31,15)         -178.5541         estimate D2E/DX2                !
 ! D39   D(7,8,31,32)            0.4699         estimate D2E/DX2                !
 ! D40   D(9,8,31,15)            3.4977         estimate D2E/DX2                !
 ! D41   D(9,8,31,32)         -177.4783         estimate D2E/DX2                !
 ! D42   D(8,9,10,12)         -178.5745         estimate D2E/DX2                !
 ! D43   D(8,9,13,12)          177.9065         estimate D2E/DX2                !
 ! D44   D(8,9,13,14)           -2.0929         estimate D2E/DX2                !
 ! D45   D(9,10,11,13)        -165.165          estimate D2E/DX2                !
 ! D46   D(11,10,13,14)       -179.6932         estimate D2E/DX2                !
 ! D47   D(11,12,13,9)          -0.0584         estimate D2E/DX2                !
 ! D48   D(11,12,13,14)        179.9404         estimate D2E/DX2                !
 ! D49   D(9,13,14,15)           1.3245         estimate D2E/DX2                !
 ! D50   D(9,13,14,30)        -179.7902         estimate D2E/DX2                !
 ! D51   D(10,13,14,15)          1.5681         estimate D2E/DX2                !
 ! D52   D(10,13,14,30)       -179.5466         estimate D2E/DX2                !
 ! D53   D(12,13,14,15)       -178.6743         estimate D2E/DX2                !
 ! D54   D(12,13,14,30)          0.211          estimate D2E/DX2                !
 ! D55   D(13,14,15,16)       -179.0077         estimate D2E/DX2                !
 ! D56   D(13,14,15,31)          1.7593         estimate D2E/DX2                !
 ! D57   D(30,14,15,16)          1.9393         estimate D2E/DX2                !
 ! D58   D(30,14,15,31)       -177.2936         estimate D2E/DX2                !
 ! D59   D(13,14,30,17)        179.8973         estimate D2E/DX2                !
 ! D60   D(13,14,30,29)         -0.3816         estimate D2E/DX2                !
 ! D61   D(15,14,30,17)         -1.1774         estimate D2E/DX2                !
 ! D62   D(15,14,30,29)        178.5438         estimate D2E/DX2                !
 ! D63   D(14,15,16,17)         -1.6824         estimate D2E/DX2                !
 ! D64   D(31,15,16,17)        177.7321         estimate D2E/DX2                !
 ! D65   D(14,15,31,8)          -3.8818         estimate D2E/DX2                !
 ! D66   D(14,15,31,32)        177.3865         estimate D2E/DX2                !
 ! D67   D(16,15,31,8)         176.9597         estimate D2E/DX2                !
 ! D68   D(16,15,31,32)         -1.772          estimate D2E/DX2                !
 ! D69   D(15,16,17,18)       -179.1598         estimate D2E/DX2                !
 ! D70   D(15,16,17,30)          1.2398         estimate D2E/DX2                !
 ! D71   D(16,17,18,19)       -178.6065         estimate D2E/DX2                !
 ! D72   D(16,17,18,37)          0.9632         estimate D2E/DX2                !
 ! D73   D(30,17,18,19)          0.9384         estimate D2E/DX2                !
 ! D74   D(30,17,18,37)       -179.4919         estimate D2E/DX2                !
 ! D75   D(16,17,30,14)         -0.1328         estimate D2E/DX2                !
 ! D76   D(16,17,30,29)       -179.9226         estimate D2E/DX2                !
 ! D77   D(18,17,30,14)       -179.6795         estimate D2E/DX2                !
 ! D78   D(18,17,30,29)          0.5307         estimate D2E/DX2                !
 ! D79   D(17,18,19,20)       -179.6245         estimate D2E/DX2                !
 ! D80   D(17,18,19,25)         -1.9587         estimate D2E/DX2                !
 ! D81   D(37,18,19,20)          0.8058         estimate D2E/DX2                !
 ! D82   D(37,18,19,25)        178.4717         estimate D2E/DX2                !
 ! D83   D(18,19,20,21)        -42.558          estimate D2E/DX2                !
 ! D84   D(18,19,20,24)        130.9128         estimate D2E/DX2                !
 ! D85   D(25,19,20,21)        139.9102         estimate D2E/DX2                !
 ! D86   D(25,19,20,24)        -46.6191         estimate D2E/DX2                !
 ! D87   D(18,19,25,26)        179.937          estimate D2E/DX2                !
 ! D88   D(18,19,25,29)          1.6989         estimate D2E/DX2                !
 ! D89   D(20,19,25,26)         -2.4959         estimate D2E/DX2                !
 ! D90   D(20,19,25,29)        179.266          estimate D2E/DX2                !
 ! D91   D(19,20,21,22)       -177.1482         estimate D2E/DX2                !
 ! D92   D(19,20,21,38)          1.682          estimate D2E/DX2                !
 ! D93   D(24,20,21,22)          9.1533         estimate D2E/DX2                !
 ! D94   D(24,20,21,38)       -172.0165         estimate D2E/DX2                !
 ! D95   D(19,20,24,23)        174.3078         estimate D2E/DX2                !
 ! D96   D(21,20,24,23)        -10.8744         estimate D2E/DX2                !
 ! D97   D(20,21,22,23)         -1.2417         estimate D2E/DX2                !
 ! D98   D(38,21,22,23)        179.9121         estimate D2E/DX2                !
 ! D99   D(21,22,23,24)         -7.7348         estimate D2E/DX2                !
 ! D100  D(21,22,23,39)        178.278          estimate D2E/DX2                !
 ! D101  D(22,23,24,20)         11.1069         estimate D2E/DX2                !
 ! D102  D(39,23,24,20)       -173.5755         estimate D2E/DX2                !
 ! D103  D(19,25,26,27)        179.6903         estimate D2E/DX2                !
 ! D104  D(19,25,26,40)         -0.0125         estimate D2E/DX2                !
 ! D105  D(29,25,26,27)         -1.8566         estimate D2E/DX2                !
 ! D106  D(29,25,26,40)        178.4406         estimate D2E/DX2                !
 ! D107  D(19,25,29,28)        179.0166         estimate D2E/DX2                !
 ! D108  D(19,25,29,30)         -0.214          estimate D2E/DX2                !
 ! D109  D(26,25,29,28)          0.6468         estimate D2E/DX2                !
 ! D110  D(26,25,29,30)       -178.5838         estimate D2E/DX2                !
 ! D111  D(25,26,27,28)          1.9084         estimate D2E/DX2                !
 ! D112  D(40,26,27,28)       -178.3743         estimate D2E/DX2                !
 ! D113  D(26,27,28,29)         -1.4932         estimate D2E/DX2                !
 ! D114  D(26,27,28,41)        178.5295         estimate D2E/DX2                !
 ! D115  D(27,28,29,25)          0.7514         estimate D2E/DX2                !
 ! D116  D(27,28,29,30)        179.8735         estimate D2E/DX2                !
 ! D117  D(41,28,29,25)       -179.2699         estimate D2E/DX2                !
 ! D118  D(41,28,29,30)         -0.1479         estimate D2E/DX2                !
 ! D119  D(25,29,30,14)        179.4339         estimate D2E/DX2                !
 ! D120  D(25,29,30,17)         -0.8557         estimate D2E/DX2                !
 ! D121  D(28,29,30,14)          0.3198         estimate D2E/DX2                !
 ! D122  D(28,29,30,17)       -179.9698         estimate D2E/DX2                !
 ! D123  D(8,31,32,1)         -166.1392         estimate D2E/DX2                !
 ! D124  D(8,31,32,4)          -10.6133         estimate D2E/DX2                !
 ! D125  D(8,31,32,5)           -8.9723         estimate D2E/DX2                !
 ! D126  D(15,31,32,1)          12.2629         estimate D2E/DX2                !
 ! D127  D(15,31,32,4)         167.7887         estimate D2E/DX2                !
 ! D128  D(15,31,32,5)         169.4298         estimate D2E/DX2                !
 ! D129  D(8,31,33,42)        -167.7097         estimate D2E/DX2                !
 ! D130  D(15,31,33,42)         12.9919         estimate D2E/DX2                !
 ! D131  D(5,32,33,42)        -158.1842         estimate D2E/DX2                !
 --------------------------------------------------------------------------------
 Trust Radius=3.00D-01 FncErr=1.00D-07 GrdErr=1.00D-06
 Number of steps in this run=    252 maximum allowed number of steps=    252.
 GradGradGradGradGradGradGradGradGradGradGradGradGradGradGradGradGradGrad

                          Input orientation:                          
 ---------------------------------------------------------------------
 Center     Atomic      Atomic             Coordinates (Angstroms)
 Number     Number       Type             X           Y           Z
 ---------------------------------------------------------------------
      1         14           0        0.678170    0.726760   -0.690090
      2          1           0        0.341510    1.505630    0.528880
      3          1           0        0.370080   -0.315710   -1.613460
      4          6           0        2.843080   -0.153350   -0.052190
      5          6           0        3.581480    0.657980   -0.665260
      6          6           0        4.955280    0.808460   -0.672530
      7          6           0        5.620190    1.727690   -1.292650
      8          6           0        4.679330    2.626160   -1.890060
      9          6           0        5.404170    3.581090   -2.563480
     10          7           0        6.634710    3.692480   -2.633430
     11         16           0        8.029680    3.786700   -2.676480
     12          7           0        6.860960    5.178590   -3.634560
     13          6           0        5.409240    4.704530   -3.326080
     14          6           0        3.865780    4.829920   -3.425360
     15          6           0        2.979730    3.745680   -2.657990
     16         16           0        1.409670    4.173240   -3.007170
     17          6           0        1.755530    5.530420   -3.925910
     18          6           0        0.671930    6.227380   -4.420590
     19          6           0        0.918200    7.315370   -5.192990
     20          6           0       -0.158770    8.047690   -5.702960
     21          6           0       -1.346730    7.668250   -6.262500
     22          7           0       -2.107120    8.737510   -6.693870
     23          6           0       -1.458360    9.839580   -6.408150
     24         16           0       -0.087650    9.718350   -5.483040
     25          6           0        2.240210    7.673630   -5.396040
     26          6           0        2.577280    8.762010   -6.166560
     27         16           0        4.256690    9.009280   -6.264230
     28          6           0        4.561740    7.525410   -5.251730
     29          6           0        3.358440    6.994880   -4.902980
     30          6           0        3.094710    5.811530   -4.103700
     31          6           0        3.219090    2.484310   -1.716670
     32          6           0        2.311590    1.182160   -0.724220
     33          6           0        1.711670   -0.150170    0.366320
     34          1           0        3.408730   -0.811650    0.652890
     35          1           0        5.430340    0.034720   -0.153180
     36          1           0        6.708210    1.713410   -1.278200
     37          1           0       -0.343810    5.911330   -4.204690
     38          1           0       -1.661240    6.637630   -6.379160
     39          1           0       -1.671110   10.867480   -6.585070
     40          1           0        1.881360    9.418810   -6.669340
     41          1           0        5.518280    7.098290   -4.951110
     42          1           0        0.771620   -0.982080    0.922320
 ---------------------------------------------------------------------
                    Distance matrix (angstroms):
                    1          2          3          4          5
     1  Si   0.000000
     2  H    1.485216   0.000000
     3  H    1.426280   2.812066   0.000000
     4  C    2.422467   3.057402   2.929105   0.000000
     5  C    2.904231   3.555543   3.487154   1.256720   0.000000
     6  C    4.277926   4.818330   4.813852   2.402351   1.382036
     7  C    5.078238   5.588537   5.642877   3.576226   2.386260
     8  C    4.588783   5.091517   5.225011   3.804636   2.564984
     9  C    5.830254   6.284962   6.436587   5.178011   3.933193
    10  N    6.931986   7.374746   7.506765   5.985789   4.733297
    11  S    8.206929   8.636294   8.753814   7.022230   5.798308
    12  N    8.167961   8.563183   8.740921   7.576696   6.325160
    13  C    6.719682   7.125698   7.316352   6.395509   5.176412
    14  C    5.871838   6.253591   6.479229   6.103865   5.010395
    15  C    4.275943   4.704697   4.939251   4.691620   3.723838
    16  S    4.216892   4.556398   4.813922   5.431938   4.749564
    17  C    5.891213   6.167945   6.437712   6.963743   6.140570
    18  C    6.646314   6.848456   7.126228   8.031845   7.320260
    19  C    7.983953   8.174683   8.446707   9.269022   8.480226
    20  C    8.912090   9.049014   9.324707  10.401892   9.694107
    21  C    9.128869   9.324746   9.397054  10.830507  10.235245
    22  N   10.391118  10.510185  10.672763  12.151699  11.575107
    23  C   10.968339  10.991662  11.378144  12.599971  11.944980
    24  S   10.218001  10.187057  10.764085  11.641897  10.897882
    25  C    8.534925   8.760934   9.035201   9.496410   8.567300
    26  C    9.907754  10.123371  10.392663  10.813871   9.846219
    27  S   10.605516  10.852638  11.121638  11.159817  10.077132
    28  C    9.061585   9.352195   9.606778   9.431456   8.316142
    29  C    8.013839   8.290889   8.555464   8.654071   7.626554
    30  C    6.583865   6.897948   7.153179   7.215112   6.214410
    31  C    3.255629   3.778991   3.995951   3.141517   2.138287
    32  C    1.696059   2.357140   2.608414   1.586724   1.375086
    33  C    1.718468   2.155328   2.397248   1.206337   2.283299
    34  H    3.409730   3.846167   3.823048   1.118238   1.981710
    35  H    4.832216   5.340878   5.278395   2.596052   2.017167
    36  H    6.138463   6.621448   6.663454   4.463981   3.356496
    37  H    6.346387   6.502810   6.782340   8.011234   7.452057
    38  H    8.530928   8.835692   8.671049  10.316824   9.792394
    39  H   11.962613  11.929089  12.407542  13.583635  12.917730
    40  H   10.618419  10.807587  11.072794  11.676379  10.756000
    41  H    9.065283   9.386537   9.623475   9.151087   7.974791
    42  H    2.351326   2.555091   2.652445   2.434627   3.620155
                    6          7          8          9         10
     6  C    0.000000
     7  C    1.292918   0.000000
     8  C    2.205122   1.431560   0.000000
     9  C    3.385952   2.257602   1.375056   0.000000
    10  N    3.870812   2.585989   2.348009   1.237550   0.000000
    11  S    4.726274   3.458345   3.631825   2.635972   1.398811
    12  N    5.612778   4.351180   3.783872   2.412769   1.806093
    13  C    4.735691   3.611221   2.629552   1.357830   1.733720
    14  C    4.993718   4.153341   2.806344   2.160800   3.096433
    15  C    4.058585   3.592835   2.175243   2.431858   3.655450
    16  S    5.416977   5.162245   3.785772   4.062454   5.260404
    17  C    6.566566   6.027471   4.596522   4.355304   5.371678
    18  C    7.858736   7.383529   5.952447   5.731126   6.721191
    19  C    8.892269   8.279102   6.858873   6.401804   7.235687
    20  C   10.191427   9.632737   8.205998   7.794431   8.633727
    21  C   10.863692  10.417660   8.991902   8.715634   9.627060
    22  N   12.206714  11.748280  10.318968  10.003413  10.879297
    23  C   12.473702  11.919604  10.493703  10.052089  10.841270
    24  S   11.311865  10.676584   9.269993   8.737842   9.466864
    25  C    8.764343   7.975981   6.611971   5.897705   6.541651
    26  C    9.954808   9.082729   7.768894   6.914870   7.392285
    27  S    9.950306   8.921731   7.749594   6.669146   6.863385
    28  C    8.138880   7.099872   5.942836   4.847065   5.083705
    29  C    7.662793   6.774458   5.468835   4.616517   5.175968
    30  C    6.345499   5.563973   4.190203   3.561003   4.379916
    31  C    2.629269   2.552949   1.477324   2.587390   3.737189
    32  C    2.670472   3.401110   3.008407   4.324557   5.351276
    33  C    3.538246   4.642744   4.648254   6.011704   6.928260
    34  H    2.602559   3.888950   4.460892   5.798533   6.441586
    35  H    1.045983   2.049532   3.208789   4.288003   4.580541
    36  H    2.063622   1.088210   2.307345   2.615472   2.399743
    37  H    8.160624   7.845516   6.432868   6.415829   7.489452
    38  H   10.503484  10.148858   8.743383   8.591965   9.566984
    39  H   13.418311  12.833882  11.414489  10.923564  11.665450
    40  H   10.933839  10.101533   8.764146   7.959099   8.466036
    41  H    7.627921   6.499081   5.483959   4.252587   4.268208
    42  H    4.822094   5.979764   6.016567   7.377929   8.298837
                   11         12         13         14         15
    11  S    0.000000
    12  N    2.054551   0.000000
    13  C    2.851508   1.558006   0.000000
    14  C    4.357430   3.022654   1.551724   0.000000
    15  C    5.050150   4.250984   2.695970   1.596721   0.000000
    16  S    6.639526   5.578612   4.047287   2.576546   1.664278
    17  C    6.630731   5.125825   3.793611   2.279124   2.508303
    18  C    7.945774   6.326286   5.095010   3.625473   3.819887
    19  C    8.328114   6.504685   5.520080   4.241486   4.839299
    20  C    9.714233   7.860447   6.915852   5.633694   6.134274
    21  C   10.763040   8.970544   7.940361   6.578430   6.862748
    22  N   11.975168  10.121845   9.170747   7.850347   8.190405
    23  C   11.856881   9.931199   9.112180   7.895581   8.419974
    24  S   10.438022   8.503498   7.746397   6.615165   7.284402
    25  C    7.484798   5.538896   4.810721   3.822662   4.844853
    26  C    8.164743   6.132034   5.705389   4.963440   6.134786
    27  S    7.374466   5.326497   5.337787   5.067449   6.507002
    28  C    5.712834   3.661860   3.519055   3.329513   4.849392
    29  C    6.088531   4.144327   3.455155   2.669795   3.967455
    30  C    5.521850   3.847771   2.680894   1.420652   2.524091
    31  C    5.075355   4.919417   3.509464   2.973166   1.591990
    32  C    6.579628   6.718504   5.363973   4.797689   3.279865
    33  C    8.042066   8.421277   7.132598   6.619541   5.092355
    34  H    7.320021   8.135299   7.089604   6.976269   5.649356
    35  H    5.215454   6.373859   5.645783   6.012400   5.103997
    36  H    2.828427   4.193237   3.850706   4.733111   4.464919
    37  H    8.772959   7.264342   5.943560   4.415592   4.257727
    38  H   10.758790   9.071357   7.940394   6.522323   6.614309
    39  H   12.630117  10.670764   9.936515   8.780265   9.368687
    40  H    9.244752   7.210116   6.771097   5.959802   7.034327
    41  H    4.737900   2.687255   2.895289   3.194397   4.789846
    42  H    9.400641   9.787700   8.479030   7.890215   6.328198
                   16         17         18         19         20
    16  S    0.000000
    17  C    1.675004   0.000000
    18  C    2.600290   1.380091   0.000000
    19  C    3.859059   2.343642   1.356825   0.000000
    20  C    4.973796   3.627547   2.376566   1.398652   0.000000
    21  C    5.514527   4.433282   3.089292   2.529483   1.366861
    22  N    6.840477   5.732983   4.380830   3.664380   2.292122
    23  C    7.204143   5.921103   4.640746   3.673729   2.323165
    24  S    6.254610   4.833293   3.727282   2.621102   1.686573
    25  C    4.318475   2.643775   2.345771   1.384662   2.447289
    26  C    5.692264   4.017332   3.619823   2.406897   2.865510
    27  S    6.488547   4.881189   4.897804   3.893893   4.553676
    28  C    5.119633   3.689525   4.184053   3.650062   4.770702
    29  C    3.918348   2.380888   2.835329   2.478223   3.757545
    30  C    2.593402   1.379868   2.478551   2.860993   4.259481
    31  C    2.791393   4.037516   5.273498   6.381069   7.632276
    32  C    3.869351   5.428387   6.465747   7.715420   8.833235
    33  C    5.492132   7.119991   8.041686   9.341831  10.370131
    34  H    6.499339   7.995019   9.098254  10.316274  11.472218
    35  H    6.437266   7.611862   8.899567   9.938157  11.235920
    36  H    6.092178   6.790359   8.166224   8.957218  10.337167
    37  H    2.744030   2.151753   1.085462   2.130900   2.615929
    38  H    5.184016   4.349559   3.073757   2.918877   2.168624
    39  H    8.191790   6.877296   5.630749   4.610846   3.319112
    40  H    6.414825   4.760443   4.087153   2.744403   2.641210
    41  H    5.405136   4.203277   4.952479   4.611547   5.804786
    42  H    6.513472   8.178390   8.974015  10.308549  11.238181
                   21         22         23         24         25
    21  C    0.000000
    22  N    1.381155   0.000000
    23  C    2.179071   1.310375   0.000000
    24  S    2.528982   2.550768   1.658123   0.000000
    25  C    3.690111   4.659987   4.403990   3.099578   0.000000
    26  C    4.074723   4.714049   4.184007   2.912668   1.375459
    27  S    5.761656   6.384084   5.776842   4.470607   2.569807
    28  C    5.996005   6.929838   6.552427   5.145806   2.330729
    29  C    4.943718   6.009692   5.793049   4.430496   1.397944
    30  C    5.275814   6.506103   6.501240   5.224293   2.422340
    31  C    8.269493   9.604350   9.898915   8.800648   6.436227
    32  C    9.280367  10.594576  11.021366  10.063263   7.998136
    33  C   10.696857  11.975821  12.479489  11.612074   9.731187
    34  H   11.930873  13.250885  13.674632  12.678928  10.485942
    35  H   11.896354  13.241317  13.517179  12.354283   9.798850
    36  H   11.188629  12.505099  12.611261  11.311209   8.511395
    37  H    2.885689   4.158434   4.639893   4.024077   3.346965
    38  H    1.083837   2.169642   3.208502   3.573521   4.154652
    39  H    3.231771   2.176859   1.064491   2.245510   5.187764
    40  H    3.694664   4.046325   3.376240   2.318196   2.189913
    41  H    7.012343   7.991932   7.636173   6.210806   3.357785
    42  H   11.442782  12.679271  13.259598  12.500647  10.816642
                   26         27         28         29         30
    26  C    0.000000
    27  S    1.700323   0.000000
    28  C    2.510812   1.822109   0.000000
    29  C    2.308591   2.591845   1.360522   0.000000
    30  C    3.637095   4.030346   2.531311   1.452143   0.000000
    31  C    7.721590   8.020732   6.301750   5.524240   4.096801
    32  C    9.335083   9.784627   8.111618   7.235029   5.784914
    33  C   11.083986  11.590377   9.929749   9.029347   7.578637
    34  H   11.783513  12.042269  10.281077   9.581865   8.160286
    35  H   10.975713  10.920857   9.102753   8.677396   7.377893
    36  H    9.520683   9.170614   7.360409   7.228687   6.151050
    37  H    4.528584   5.916384   5.269342   3.920248   3.441450
    38  H    4.745866   6.376506   6.386292   5.244418   5.336593
    39  H    4.759934   6.220503   7.196919   6.566798   7.377863
    40  H    1.080962   2.444181   3.574775   3.343236   4.589902
    41  H    3.590928   2.639655   1.089850   2.162850   2.871854
    42  H   12.184413  12.791383  11.174135  10.210663   8.764175
                   31         32         33         34         35
    31  C    0.000000
    32  C    1.871926   0.000000
    33  C    3.681256   1.823262   0.000000
    34  H    4.063758   2.659967   1.843825   0.000000
    35  H    3.651660   3.371840   3.759331   2.335166   0.000000
    36  H    3.600070   4.463114   5.580572   4.581660   2.390946
    37  H    5.534344   6.444367   7.865171   9.103631   9.180963
    38  H    7.925055   8.804764  10.146539  11.430052  11.517454
    39  H   10.857850  12.000704  13.459333  14.649059  14.461967
    40  H    8.625877  10.167200  11.878328  12.673209  11.963141
    41  H    6.085778   7.946701   9.762454   9.920795   8.539431
    42  H    4.997023   3.125146   1.372918   2.656311   4.888175
                   36         37         38         39         40
    36  H    0.000000
    37  H    8.713086   0.000000
    38  H   10.968839   2.644136   0.000000
    39  H   13.497143   5.656090   4.234870   0.000000
    40  H   10.570528   4.829938   4.513223   3.837420   0.000000
    41  H    6.625944   6.027447   7.334647   8.280335   4.643739
    42  H    6.881210   8.663112  10.830069  14.238676  12.924525
                   41         42
    41  H    0.000000
    42  H   11.059853   0.000000
 Stoichiometry    C23H11N3S4Si
 Framework group  C1[X(C23H11N3S4Si)]
 Deg. of freedom   120
 Full point group                 C1      NOp   1
 Largest Abelian subgroup         C1      NOp   1
 Largest concise Abelian subgroup C1      NOp   1
                         Standard orientation:                         
 ---------------------------------------------------------------------
 Center     Atomic      Atomic             Coordinates (Angstroms)
 Number     Number       Type             X           Y           Z
 ---------------------------------------------------------------------
      1         14           0        4.022876   -3.852222   -0.051120
      2          1           0        3.926859   -4.179702    1.394357
      3          1           0        4.246631   -4.264045   -1.398195
      4          6           0        5.810216   -2.217778   -0.002614
      5          6           0        5.125645   -1.165523   -0.061503
      6          6           0        5.495226    0.163733    0.019183
      7          6           0        4.696826    1.180674    0.014043
      8          6           0        3.353093    0.686972    0.012395
      9          6           0        2.520757    1.781103   -0.017181
     10          7           0        2.837209    2.977492   -0.010681
     11         16           0        3.239623    4.317023    0.009095
     12          7           0        1.244205    3.828507   -0.019880
     13          6           0        1.254273    2.270562   -0.029355
     14          6           0        0.554410    0.885731   -0.046261
     15          6           0        1.478371   -0.416013   -0.010537
     16         16           0        0.404731   -1.686371   -0.068064
     17          6           0       -1.002672   -0.778231   -0.079842
     18          6           0       -2.187474   -1.485410   -0.108001
     19          6           0       -3.345341   -0.779176   -0.147391
     20          6           0       -4.563191   -1.466646   -0.168665
     21          6           0       -4.981307   -2.576847   -0.847591
     22          7           0       -6.307662   -2.884598   -0.615941
     23          6           0       -6.785808   -2.009563    0.234219
     24         16           0       -5.723937   -0.949808    0.940423
     25          6           0       -3.257115    0.602284   -0.114648
     26          6           0       -4.381899    1.393075   -0.152036
     27         16           0       -4.025260    3.054499   -0.092215
     28          6           0       -2.238458    2.698169   -0.071017
     29          6           0       -2.074956    1.347523   -0.077662
     30          6           0       -0.835234    0.591395   -0.068787
     31          6           0        3.031815   -0.753654    0.074558
     32          6           0        4.234014   -2.184866    0.176822
     33          6           0        5.620202   -3.357285    0.344758
     34          1           0        6.888809   -2.025004    0.220843
     35          1           0        6.535282    0.274824    0.023845
     36          1           0        5.103806    2.189893    0.020805
     37          1           0       -2.192566   -2.570858   -0.105910
     38          1           0       -4.352035   -3.152281   -1.516618
     39          1           0       -7.752950   -1.868816    0.656082
     40          1           0       -5.401250    1.037767   -0.208250
     41          1           0       -1.409276    3.405261   -0.055160
     42          1           0        6.219298   -4.592594    0.344247
 ---------------------------------------------------------------------
 Rotational constants (GHZ):      0.1823282      0.0673489      0.0497012
 Standard basis: 6-31++G(d,p) (6D, 7F)
 There are   675 symmetry adapted basis functions of A   symmetry.
 Integral buffers will be    131072 words long.
 Raffenetti 2 integral format.
 Two-electron integral symmetry is turned on.
   675 basis functions,  1200 primitive gaussians,   675 cartesian basis functions
   124 alpha electrons      124 beta electrons
       nuclear repulsion energy      3581.6266132009 Hartrees.
 NAtoms=   42 NActive=   42 NUniq=   42 SFac= 1.00D+00 NAtFMM=   60 NAOKFM=F Big=F
 One-electron integrals computed using PRISM.
 NBasis=   675 RedAO= T  NBF=   675
 NBsUse=   660 1.00D-06 NBFU=   660
 Harris functional with IExCor=  402 diagonalized for initial guess.
 ExpMin= 3.31D-02 ExpMax= 2.19D+04 ExpMxC= 3.30D+03 IAcc=3 IRadAn=         5 AccDes= 0.00D+00
 HarFok:  IExCor=  402 AccDes= 0.00D+00 IRadAn=         5 IDoV= 1
 ScaDFX=  1.000000  1.000000  1.000000  1.000000
 FoFCou: FMM=F IPFlag=           0 FMFlag=      100000 FMFlg1=           0
         NFxFlg=           0 DoJE=T BraDBF=F KetDBF=T FulRan=T
         Omega=  0.000000  0.000000  1.000000  0.000000  0.000000 ICntrl=     500 IOpCl=  0
         NMat0=    1 NMatS0=    1 NMatT0=    0 NMatD0=    1 NMtDS0=    0 NMtDT0=    0
         I1Cent=           4 NGrid=           0.
 Petite list used in FoFCou.
 Initial guess orbital symmetries:
       Occupied  (A) (A) (A) (A) (A) (A) (A) (A) (A) (A) (A) (A)
                 (A) (A) (A) (A) (A) (A) (A) (A) (A) (A) (A) (A)
                 (A) (A) (A) (A) (A) (A) (A) (A) (A) (A) (A) (A)
                 (A) (A) (A) (A) (A) (A) (A) (A) (A) (A) (A) (A)
                 (A) (A) (A) (A) (A) (A) (A) (A) (A) (A) (A) (A)
                 (A) (A) (A) (A) (A) (A) (A) (A) (A) (A) (A) (A)
                 (A) (A) (A) (A) (A) (A) (A) (A) (A) (A) (A) (A)
                 (A) (A) (A) (A) (A) (A) (A) (A) (A) (A) (A) (A)
                 (A) (A) (A) (A) (A) (A) (A) (A) (A) (A) (A) (A)
                 (A) (A) (A) (A) (A) (A) (A) (A) (A) (A) (A) (A)
                 (A) (A) (A) (A)
       Virtual   (A) (A) (A) (A) (A) (A) (A) (A) (A) (A) (A) (A)
                 (A) (A) (A) (A) (A) (A) (A) (A) (A) (A) (A) (A)
                 (A) (A) (A) (A) (A) (A) (A) (A) (A) (A) (A) (A)
                 (A) (A) (A) (A) (A) (A) (A) (A) (A) (A) (A) (A)
                 (A) (A) (A) (A) (A) (A) (A) (A) (A) (A) (A) (A)
                 (A) (A) (A) (A) (A) (A) (A) (A) (A) (A) (A) (A)
                 (A) (A) (A) (A) (A) (A) (A) (A) (A) (A) (A) (A)
                 (A) (A) (A) (A) (A) (A) (A) (A) (A) (A) (A) (A)
                 (A) (A) (A) (A) (A) (A) (A) (A) (A) (A) (A) (A)
                 (A) (A) (A) (A) (A) (A) (A) (A) (A) (A) (A) (A)
                 (A) (A) (A) (A) (A) (A) (A) (A) (A) (A) (A) (A)
                 (A) (A) (A) (A) (A) (A) (A) (A) (A) (A) (A) (A)
                 (A) (A) (A) (A) (A) (A) (A) (A) (A) (A) (A) (A)
                 (A) (A) (A) (A) (A) (A) (A) (A) (A) (A) (A) (A)
                 (A) (A) (A) (A) (A) (A) (A) (A) (A) (A) (A) (A)
                 (A) (A) (A) (A) (A) (A) (A) (A) (A) (A) (A) (A)
                 (A) (A) (A) (A) (A) (A) (A) (A) (A) (A) (A) (A)
                 (A) (A) (A) (A) (A) (A) (A) (A) (A) (A) (A) (A)
                 (A) (A) (A) (A) (A) (A) (A) (A) (A) (A) (A) (A)
                 (A) (A) (A) (A) (A) (A) (A) (A) (A) (A) (A) (A)
                 (A) (A) (A) (A) (A) (A) (A) (A) (A) (A) (A) (A)
                 (A) (A) (A) (A) (A) (A) (A) (A) (A) (A) (A) (A)
                 (A) (A) (A) (A) (A) (A) (A) (A) (A) (A) (A) (A)
                 (A) (A) (A) (A) (A) (A) (A) (A) (A) (A) (A) (A)
                 (A) (A) (A) (A) (A) (A) (A) (A) (A) (A) (A) (A)
                 (A) (A) (A) (A) (A) (A) (A) (A) (A) (A) (A) (A)
                 (A) (A) (A) (A) (A) (A) (A) (A) (A) (A) (A) (A)
                 (A) (A) (A) (A) (A) (A) (A) (A) (A) (A) (A) (A)
                 (A) (A) (A) (A) (A) (A) (A) (A) (A) (A) (A) (A)
                 (A) (A) (A) (A) (A) (A) (A) (A) (A) (A) (A) (A)
                 (A) (A) (A) (A) (A) (A) (A) (A) (A) (A) (A) (A)
                 (A) (A) (A) (A) (A) (A) (A) (A) (A) (A) (A) (A)
                 (A) (A) (A) (A) (A) (A) (A) (A) (A) (A) (A) (A)
                 (A) (A) (A) (A) (A) (A) (A) (A) (A) (A) (A) (A)
                 (A) (A) (A) (A) (A) (A) (A) (A) (A) (A) (A) (A)
                 (A) (A) (A) (A) (A) (A) (A) (A) (A) (A) (A) (A)
                 (A) (A) (A) (A) (A) (A) (A) (A) (A) (A) (A) (A)
                 (A) (A) (A) (A) (A) (A) (A) (A) (A) (A) (A) (A)
                 (A) (A) (A) (A) (A) (A) (A) (A) (A) (A) (A) (A)
                 (A) (A) (A) (A) (A) (A) (A) (A) (A) (A) (A) (A)
                 (A) (A) (A) (A) (A) (A) (A) (A) (A) (A) (A) (A)
                 (A) (A) (A) (A) (A) (A) (A) (A) (A) (A) (A) (A)
                 (A) (A) (A) (A) (A) (A) (A) (A) (A) (A) (A) (A)
                 (A) (A) (A) (A) (A) (A) (A) (A) (A) (A) (A) (A)
                 (A) (A) (A) (A) (A) (A) (A) (A)
 The electronic state of the initial guess is 1-A.
 Requested convergence on RMS density matrix=1.00D-08 within 128 cycles.
 Requested convergence on MAX density matrix=1.00D-06.
 Requested convergence on             energy=1.00D-06.
 No special actions if energy rises.
 EnCoef did     6 forward-backward iterations
 EnCoef did   100 forward-backward iterations
 EnCoef did     4 forward-backward iterations
 EnCoef did     4 forward-backward iterations
 EnCoef did     2 forward-backward iterations
 EnCoef did     7 forward-backward iterations
 Restarting incremental Fock formation.
 Restarting incremental Fock formation.
 SCF Done:  E(RB3LYP) =  -2928.45922794     A.U. after   49 cycles
             Convg  =    0.2705D-08             -V/T =  2.0038

 **********************************************************************

            Population analysis using the SCF density.

 **********************************************************************

 Orbital symmetries:
       Occupied  (A) (A) (A) (A) (A) (A) (A) (A) (A) (A) (A) (A)
                 (A) (A) (A) (A) (A) (A) (A) (A) (A) (A) (A) (A)
                 (A) (A) (A) (A) (A) (A) (A) (A) (A) (A) (A) (A)
                 (A) (A) (A) (A) (A) (A) (A) (A) (A) (A) (A) (A)
                 (A) (A) (A) (A) (A) (A) (A) (A) (A) (A) (A) (A)
                 (A) (A) (A) (A) (A) (A) (A) (A) (A) (A) (A) (A)
                 (A) (A) (A) (A) (A) (A) (A) (A) (A) (A) (A) (A)
                 (A) (A) (A) (A) (A) (A) (A) (A) (A) (A) (A) (A)
                 (A) (A) (A) (A) (A) (A) (A) (A) (A) (A) (A) (A)
                 (A) (A) (A) (A) (A) (A) (A) (A) (A) (A) (A) (A)
                 (A) (A) (A) (A)
       Virtual   (A) (A) (A) (A) (A) (A) (A) (A) (A) (A) (A) (A)
                 (A) (A) (A) (A) (A) (A) (A) (A) (A) (A) (A) (A)
                 (A) (A) (A) (A) (A) (A) (A) (A) (A) (A) (A) (A)
                 (A) (A) (A) (A) (A) (A) (A) (A) (A) (A) (A) (A)
                 (A) (A) (A) (A) (A) (A) (A) (A) (A) (A) (A) (A)
                 (A) (A) (A) (A) (A) (A) (A) (A) (A) (A) (A) (A)
                 (A) (A) (A) (A) (A) (A) (A) (A) (A) (A) (A) (A)
                 (A) (A) (A) (A) (A) (A) (A) (A) (A) (A) (A) (A)
                 (A) (A) (A) (A) (A) (A) (A) (A) (A) (A) (A) (A)
                 (A) (A) (A) (A) (A) (A) (A) (A) (A) (A) (A) (A)
                 (A) (A) (A) (A) (A) (A) (A) (A) (A) (A) (A) (A)
                 (A) (A) (A) (A) (A) (A) (A) (A) (A) (A) (A) (A)
                 (A) (A) (A) (A) (A) (A) (A) (A) (A) (A) (A) (A)
                 (A) (A) (A) (A) (A) (A) (A) (A) (A) (A) (A) (A)
                 (A) (A) (A) (A) (A) (A) (A) (A) (A) (A) (A) (A)
                 (A) (A) (A) (A) (A) (A) (A) (A) (A) (A) (A) (A)
                 (A) (A) (A) (A) (A) (A) (A) (A) (A) (A) (A) (A)
                 (A) (A) (A) (A) (A) (A) (A) (A) (A) (A) (A) (A)
                 (A) (A) (A) (A) (A) (A) (A) (A) (A) (A) (A) (A)
                 (A) (A) (A) (A) (A) (A) (A) (A) (A) (A) (A) (A)
                 (A) (A) (A) (A) (A) (A) (A) (A) (A) (A) (A) (A)
                 (A) (A) (A) (A) (A) (A) (A) (A) (A) (A) (A) (A)
                 (A) (A) (A) (A) (A) (A) (A) (A) (A) (A) (A) (A)
                 (A) (A) (A) (A) (A) (A) (A) (A) (A) (A) (A) (A)
                 (A) (A) (A) (A) (A) (A) (A) (A) (A) (A) (A) (A)
                 (A) (A) (A) (A) (A) (A) (A) (A) (A) (A) (A) (A)
                 (A) (A) (A) (A) (A) (A) (A) (A) (A) (A) (A) (A)
                 (A) (A) (A) (A) (A) (A) (A) (A) (A) (A) (A) (A)
                 (A) (A) (A) (A) (A) (A) (A) (A) (A) (A) (A) (A)
                 (A) (A) (A) (A) (A) (A) (A) (A) (A) (A) (A) (A)
                 (A) (A) (A) (A) (A) (A) (A) (A) (A) (A) (A) (A)
                 (A) (A) (A) (A) (A) (A) (A) (A) (A) (A) (A) (A)
                 (A) (A) (A) (A) (A) (A) (A) (A) (A) (A) (A) (A)
                 (A) (A) (A) (A) (A) (A) (A) (A) (A) (A) (A) (A)
                 (A) (A) (A) (A) (A) (A) (A) (A) (A) (A) (A) (A)
                 (A) (A) (A) (A) (A) (A) (A) (A) (A) (A) (A) (A)
                 (A) (A) (A) (A) (A) (A) (A) (A) (A) (A) (A) (A)
                 (A) (A) (A) (A) (A) (A) (A) (A) (A) (A) (A) (A)
                 (A) (A) (A) (A) (A) (A) (A) (A) (A) (A) (A) (A)
                 (A) (A) (A) (A) (A) (A) (A) (A) (A) (A) (A) (A)
                 (A) (A) (A) (A) (A) (A) (A) (A) (A) (A) (A) (A)
                 (A) (A) (A) (A) (A) (A) (A) (A) (A) (A) (A) (A)
                 (A) (A) (A) (A) (A) (A) (A) (A) (A) (A) (A) (A)
                 (A) (A) (A) (A) (A) (A) (A) (A) (A) (A) (A) (A)
                 (A) (A) (A) (A) (A) (A) (A) (A)
 The electronic state is 1-A.
 Alpha  occ. eigenvalues --  -88.93176 -88.92682 -88.92487 -88.92017 -66.15895
 Alpha  occ. eigenvalues --  -14.47023 -14.35856 -14.35355 -10.28628 -10.27395
 Alpha  occ. eigenvalues --  -10.25739 -10.25638 -10.25260 -10.25152 -10.24115
 Alpha  occ. eigenvalues --  -10.23876 -10.23322 -10.22924 -10.22881 -10.22720
 Alpha  occ. eigenvalues --  -10.22668 -10.22600 -10.22345 -10.22070 -10.21914
 Alpha  occ. eigenvalues --  -10.21459 -10.21254 -10.21134 -10.20713 -10.20632
 Alpha  occ. eigenvalues --  -10.20224  -7.99088  -7.98926  -7.98694  -7.98180
 Alpha  occ. eigenvalues --   -5.95427  -5.95333  -5.95074  -5.95066  -5.94966
 Alpha  occ. eigenvalues --   -5.94841  -5.94738  -5.94703  -5.94683  -5.94468
 Alpha  occ. eigenvalues --   -5.94244  -5.93583  -5.31926  -3.67913  -3.67725
 Alpha  occ. eigenvalues --   -3.67483  -1.12112  -1.02070  -0.98555  -0.93444
 Alpha  occ. eigenvalues --   -0.92194  -0.89735  -0.88174  -0.86062  -0.82601
 Alpha  occ. eigenvalues --   -0.81492  -0.79679  -0.79141  -0.77494  -0.76063
 Alpha  occ. eigenvalues --   -0.74703  -0.73778  -0.71273  -0.69887  -0.67584
 Alpha  occ. eigenvalues --   -0.66512  -0.62738  -0.61723  -0.60614  -0.60002
 Alpha  occ. eigenvalues --   -0.58585  -0.57377  -0.56855  -0.54046  -0.53643
 Alpha  occ. eigenvalues --   -0.53261  -0.52840  -0.51446  -0.50364  -0.49959
 Alpha  occ. eigenvalues --   -0.49264  -0.49101  -0.47945  -0.47586  -0.45767
 Alpha  occ. eigenvalues --   -0.45154  -0.45064  -0.44395  -0.43698  -0.43624
 Alpha  occ. eigenvalues --   -0.42712  -0.41907  -0.41273  -0.40653  -0.39932
 Alpha  occ. eigenvalues --   -0.39258  -0.39134  -0.38726  -0.37656  -0.37178
 Alpha  occ. eigenvalues --   -0.36444  -0.35479  -0.34812  -0.34176  -0.32322
 Alpha  occ. eigenvalues --   -0.31849  -0.31350  -0.29380  -0.28651  -0.28070
 Alpha  occ. eigenvalues --   -0.27622  -0.26747  -0.25582  -0.24972  -0.23546
 Alpha  occ. eigenvalues --   -0.23397  -0.23075  -0.19570  -0.14528
 Alpha virt. eigenvalues --   -0.12696  -0.10938  -0.08573  -0.08501  -0.07491
 Alpha virt. eigenvalues --   -0.05988  -0.04607  -0.04385  -0.02771  -0.01923
 Alpha virt. eigenvalues --   -0.01386  -0.00763  -0.00287  -0.00096   0.00316
 Alpha virt. eigenvalues --    0.00449   0.00787   0.00979   0.01596   0.01700
 Alpha virt. eigenvalues --    0.02099   0.02294   0.02520   0.02689   0.02791
 Alpha virt. eigenvalues --    0.03252   0.03550   0.03826   0.03897   0.04103
 Alpha virt. eigenvalues --    0.04572   0.04888   0.05098   0.05303   0.05486
 Alpha virt. eigenvalues --    0.06060   0.06139   0.06284   0.07109   0.07192
 Alpha virt. eigenvalues --    0.07499   0.07570   0.08057   0.08246   0.08446
 Alpha virt. eigenvalues --    0.08631   0.08870   0.09370   0.09588   0.09732
 Alpha virt. eigenvalues --    0.10017   0.10105   0.10185   0.10509   0.10821
 Alpha virt. eigenvalues --    0.10898   0.11117   0.11538   0.11766   0.11854
 Alpha virt. eigenvalues --    0.12156   0.12264   0.12515   0.12688   0.12995
 Alpha virt. eigenvalues --    0.13023   0.13160   0.13630   0.13956   0.14142
 Alpha virt. eigenvalues --    0.14242   0.14456   0.14707   0.14908   0.15141
 Alpha virt. eigenvalues --    0.15203   0.15566   0.15713   0.15867   0.15989
 Alpha virt. eigenvalues --    0.16309   0.16376   0.16501   0.16680   0.17018
 Alpha virt. eigenvalues --    0.17385   0.17752   0.17963   0.17991   0.18323
 Alpha virt. eigenvalues --    0.18518   0.18590   0.19000   0.19144   0.19237
 Alpha virt. eigenvalues --    0.19544   0.20099   0.20304   0.20563   0.20864
 Alpha virt. eigenvalues --    0.20968   0.21458   0.21646   0.21834   0.22113
 Alpha virt. eigenvalues --    0.22272   0.22357   0.23011   0.23170   0.23613
 Alpha virt. eigenvalues --    0.23853   0.24010   0.24397   0.24643   0.24858
 Alpha virt. eigenvalues --    0.24982   0.25376   0.25579   0.25975   0.26070
 Alpha virt. eigenvalues --    0.26426   0.26676   0.26807   0.26982   0.27423
 Alpha virt. eigenvalues --    0.27593   0.27610   0.27940   0.28308   0.28432
 Alpha virt. eigenvalues --    0.28810   0.28955   0.29298   0.29537   0.29874
 Alpha virt. eigenvalues --    0.29929   0.30147   0.30416   0.30651   0.31191
 Alpha virt. eigenvalues --    0.31287   0.31636   0.31792   0.31993   0.32346
 Alpha virt. eigenvalues --    0.32730   0.33206   0.33733   0.33891   0.34681
 Alpha virt. eigenvalues --    0.35052   0.35287   0.35468   0.35913   0.36459
 Alpha virt. eigenvalues --    0.36798   0.37252   0.37718   0.38314   0.38540
 Alpha virt. eigenvalues --    0.38674   0.40088   0.40601   0.40670   0.41369
 Alpha virt. eigenvalues --    0.42104   0.42317   0.42556   0.43857   0.44512
 Alpha virt. eigenvalues --    0.44788   0.46034   0.46280   0.46631   0.47757
 Alpha virt. eigenvalues --    0.48223   0.48604   0.49073   0.49978   0.51281
 Alpha virt. eigenvalues --    0.51472   0.51797   0.52504   0.53278   0.53484
 Alpha virt. eigenvalues --    0.54355   0.54608   0.55371   0.55906   0.57435
 Alpha virt. eigenvalues --    0.57971   0.58346   0.59010   0.59589   0.60554
 Alpha virt. eigenvalues --    0.62497   0.62848   0.63777   0.64329   0.64785
 Alpha virt. eigenvalues --    0.65155   0.65656   0.66261   0.66750   0.67003
 Alpha virt. eigenvalues --    0.67366   0.67537   0.67929   0.68454   0.68769
 Alpha virt. eigenvalues --    0.69490   0.69519   0.69932   0.70456   0.71158
 Alpha virt. eigenvalues --    0.71303   0.71638   0.72291   0.72635   0.73526
 Alpha virt. eigenvalues --    0.73852   0.74132   0.74794   0.75179   0.75611
 Alpha virt. eigenvalues --    0.75993   0.76616   0.76814   0.77242   0.78524
 Alpha virt. eigenvalues --    0.78916   0.79213   0.79952   0.80052   0.80603
 Alpha virt. eigenvalues --    0.81447   0.82301   0.82734   0.82900   0.83688
 Alpha virt. eigenvalues --    0.84331   0.84620   0.85093   0.85349   0.86040
 Alpha virt. eigenvalues --    0.86260   0.86581   0.87044   0.88047   0.88360
 Alpha virt. eigenvalues --    0.88655   0.90039   0.90317   0.90424   0.90882
 Alpha virt. eigenvalues --    0.91791   0.92319   0.92566   0.92979   0.93463
 Alpha virt. eigenvalues --    0.94289   0.94635   0.95004   0.95983   0.96953
 Alpha virt. eigenvalues --    0.97272   0.97772   0.97976   0.98572   0.99397
 Alpha virt. eigenvalues --    1.00227   1.00407   1.01076   1.01865   1.02095
 Alpha virt. eigenvalues --    1.02881   1.03938   1.04072   1.04856   1.05999
 Alpha virt. eigenvalues --    1.06349   1.06760   1.06865   1.09357   1.09860
 Alpha virt. eigenvalues --    1.10037   1.10788   1.11391   1.11516   1.13085
 Alpha virt. eigenvalues --    1.13357   1.14139   1.15444   1.15555   1.15979
 Alpha virt. eigenvalues --    1.16672   1.17527   1.18080   1.18525   1.19512
 Alpha virt. eigenvalues --    1.20357   1.20466   1.21100   1.21625   1.22840
 Alpha virt. eigenvalues --    1.23381   1.23917   1.24068   1.25135   1.26034
 Alpha virt. eigenvalues --    1.26207   1.26780   1.27534   1.28023   1.29032
 Alpha virt. eigenvalues --    1.29607   1.30287   1.31205   1.31725   1.32932
 Alpha virt. eigenvalues --    1.33769   1.34528   1.34675   1.35457   1.35850
 Alpha virt. eigenvalues --    1.36686   1.37042   1.37495   1.38480   1.38757
 Alpha virt. eigenvalues --    1.39763   1.40689   1.41254   1.42720   1.43922
 Alpha virt. eigenvalues --    1.44716   1.45171   1.45905   1.47183   1.47773
 Alpha virt. eigenvalues --    1.48998   1.49964   1.51675   1.52704   1.53094
 Alpha virt. eigenvalues --    1.55179   1.56732   1.57336   1.57811   1.59459
 Alpha virt. eigenvalues --    1.60685   1.61881   1.62924   1.63076   1.64266
 Alpha virt. eigenvalues --    1.64729   1.66125   1.68253   1.68521   1.71483
 Alpha virt. eigenvalues --    1.71791   1.72252   1.73472   1.73967   1.74610
 Alpha virt. eigenvalues --    1.75930   1.76482   1.76592   1.78477   1.80825
 Alpha virt. eigenvalues --    1.82179   1.82782   1.84198   1.84869   1.85617
 Alpha virt. eigenvalues --    1.87067   1.89368   1.89635   1.90857   1.92102
 Alpha virt. eigenvalues --    1.92809   1.93868   1.94782   1.94932   1.96780
 Alpha virt. eigenvalues --    1.97540   1.98188   1.98469   1.99537   2.00672
 Alpha virt. eigenvalues --    2.01202   2.03549   2.04231   2.05422   2.06360
 Alpha virt. eigenvalues --    2.07412   2.08028   2.08298   2.08919   2.09636
 Alpha virt. eigenvalues --    2.11576   2.12223   2.12627   2.12957   2.13681
 Alpha virt. eigenvalues --    2.14797   2.15345   2.17070   2.18433   2.19064
 Alpha virt. eigenvalues --    2.20567   2.21418   2.22400   2.23213   2.23597
 Alpha virt. eigenvalues --    2.24290   2.25275   2.26444   2.27609   2.29268
 Alpha virt. eigenvalues --    2.30040   2.30269   2.31168   2.32657   2.33969
 Alpha virt. eigenvalues --    2.34456   2.34766   2.35496   2.37007   2.37070
 Alpha virt. eigenvalues --    2.38351   2.38833   2.40018   2.41390   2.42495
 Alpha virt. eigenvalues --    2.43507   2.44289   2.45409   2.46139   2.46594
 Alpha virt. eigenvalues --    2.48576   2.49647   2.50669   2.51559   2.52922
 Alpha virt. eigenvalues --    2.53573   2.53922   2.54292   2.55539   2.57093
 Alpha virt. eigenvalues --    2.58498   2.58698   2.59833   2.60515   2.60713
 Alpha virt. eigenvalues --    2.62594   2.63589   2.63942   2.64597   2.65481
 Alpha virt. eigenvalues --    2.66087   2.66598   2.67156   2.69556   2.70042
 Alpha virt. eigenvalues --    2.71208   2.72405   2.72898   2.73321   2.75172
 Alpha virt. eigenvalues --    2.76801   2.77611   2.78983   2.82792   2.83229
 Alpha virt. eigenvalues --    2.85915   2.87251   2.88752   2.89633   2.92895
 Alpha virt. eigenvalues --    2.94676   2.95110   3.00042   3.02272   3.03532
 Alpha virt. eigenvalues --    3.06076   3.09278   3.10652   3.12802   3.15148
 Alpha virt. eigenvalues --    3.18818   3.22559   3.24315   3.26865   3.31507
 Alpha virt. eigenvalues --    3.34558   3.38803   3.45200   3.45448   3.46084
 Alpha virt. eigenvalues --    3.49327   3.56370   3.57570   3.60849   3.69314
 Alpha virt. eigenvalues --    3.82865   3.97992   4.00242   4.01218   4.02084
 Alpha virt. eigenvalues --    4.19396   4.23562   4.24137   4.29633   4.30157
 Alpha virt. eigenvalues --    4.33283   4.33668   4.34654   4.37092   4.38742
 Alpha virt. eigenvalues --    4.40245   4.42563   4.44839   4.45852   4.48279
 Alpha virt. eigenvalues --    4.50942   4.52011   4.54915   4.55266   4.58858
 Alpha virt. eigenvalues --    4.60618   4.69473   4.70539   4.74856   4.86032
 Alpha virt. eigenvalues --    4.93997
          Condensed to atoms (all electrons):
              1          2          3          4          5          6
     1  Si  13.674362   0.372737   0.182167   0.049520  -0.757867   0.772029
     2  H    0.372737   0.622661  -0.001713   0.045686   0.071943   0.020763
     3  H    0.182167  -0.001713   0.734513  -0.101850   0.181557  -0.093741
     4  C    0.049520   0.045686  -0.101850  16.135953  -5.320464   3.940270
     5  C   -0.757867   0.071943   0.181557  -5.320464  32.762138  -8.269050
     6  C    0.772029   0.020763  -0.093741   3.940270  -8.269050  22.434979
     7  C    0.266015   0.015560  -0.031492   0.330818  -9.258089   4.296204
     8  C    0.052457  -0.008910  -0.033400  -0.401283  -2.291696  -6.391634
     9  C    0.062013   0.000901  -0.008198   1.192802  -2.901976  -0.863329
    10  N   -0.000422   0.000117  -0.000301   0.004701   0.013081   0.403687
    11  S   -0.001695  -0.000036   0.000167  -0.024295   0.028092   0.072553
    12  N    0.000629   0.000016  -0.000061  -0.000089  -0.065568  -0.098761
    13  C   -0.038090   0.000230   0.003094  -0.228281   0.303166  -0.329453
    14  C    0.111864   0.002785  -0.022977   0.613486  -1.010771  -0.059218
    15  C    0.081605  -0.025498   0.010596  -1.072133   0.236978  -2.468590
    16  S   -0.144524   0.008503   0.021447  -0.129942  -0.178180  -0.132014
    17  C   -0.067585   0.002432   0.004181  -0.044454   0.275236  -0.341770
    18  C    0.008836   0.001006   0.000353   0.032777  -0.062170   0.076802
    19  C   -0.010729   0.000793   0.000421   0.005749   0.006222  -0.002626
    20  C    0.001820  -0.000199   0.000193  -0.001442  -0.002026  -0.000255
    21  C    0.001034  -0.000239   0.000151  -0.000274   0.000165   0.000116
    22  N   -0.000000   0.000000   0.000000  -0.000000   0.000000  -0.000001
    23  C    0.000067  -0.000011   0.000004  -0.000006  -0.000014   0.000011
    24  S   -0.000279   0.000053  -0.000007   0.000030  -0.000054  -0.000088
    25  C   -0.003466  -0.000027   0.000341   0.001051   0.005131  -0.008528
    26  C   -0.000778  -0.000033   0.000086   0.000083   0.000062  -0.002142
    27  S    0.000144  -0.000004   0.000001  -0.000149  -0.000304   0.000540
    28  C    0.001669  -0.000244  -0.000051  -0.006142  -0.003566  -0.015315
    29  C   -0.002720   0.000837  -0.001153   0.030465   0.028191  -0.018911
    30  C    0.049715  -0.004785  -0.002337   0.029973   0.022004   0.200733
    31  C   -0.192776  -0.113948  -0.080854   1.464000  -3.975247   0.704726
    32  C   -1.360878  -0.284058   0.426666  -8.732520   7.429946  -6.516233
    33  C    0.648535   0.206477  -0.190209  -1.832261  -0.854775  -1.083263
    34  H    0.112218   0.000400  -0.008857   0.235225  -0.682173   0.149237
    35  H   -0.019358  -0.000372   0.002811  -0.207159  -0.553747   0.536416
    36  H    0.010469   0.000097  -0.001164   0.070670   0.002689   0.296854
    37  H   -0.002811   0.000955  -0.000876   0.003063  -0.000310   0.000531
    38  H    0.000055  -0.000055   0.000091  -0.000092  -0.000052  -0.000032
    39  H    0.000000  -0.000000   0.000000  -0.000000  -0.000000   0.000000
    40  H   -0.000023  -0.000001   0.000002   0.000007  -0.000042  -0.000005
    41  H   -0.000152   0.000006  -0.000002   0.000223   0.000335  -0.003482
    42  H   -0.088252   0.006369  -0.015146  -0.029463   0.116862  -0.079412
              7          8          9         10         11         12
     1  Si   0.266015   0.052457   0.062013  -0.000422  -0.001695   0.000629
     2  H    0.015560  -0.008910   0.000901   0.000117  -0.000036   0.000016
     3  H   -0.031492  -0.033400  -0.008198  -0.000301   0.000167  -0.000061
     4  C    0.330818  -0.401283   1.192802   0.004701  -0.024295  -0.000089
     5  C   -9.258089  -2.291696  -2.901976   0.013081   0.028092  -0.065568
     6  C    4.296204  -6.391634  -0.863329   0.403687   0.072553  -0.098761
     7  C   17.984197  -1.647967   0.598677   0.238824   0.019627  -0.088112
     8  C   -1.647967  17.354620   3.441661  -0.765536   0.125450  -0.028638
     9  C    0.598677   3.441661  19.665621  -1.148466  -0.604620  -0.119296
    10  N    0.238824  -0.765536  -1.148466   8.383444   0.723495  -0.784829
    11  S    0.019627   0.125450  -0.604620   0.723495  16.492394  -0.775055
    12  N   -0.088112  -0.028638  -0.119296  -0.784829  -0.775055   8.906800
    13  C   -0.335201   0.333912   2.909888  -0.259601   0.192515  -0.039868
    14  C   -1.034562   0.344678  -3.993969   0.374648  -0.421491  -0.069787
    15  C   -2.493087   0.683644  -2.194653   0.085703   0.088507  -0.009160
    16  S   -0.214882  -0.290269  -0.108780   0.058312   0.012993  -0.000198
    17  C   -0.632231  -1.147383  -1.870022   0.022655  -0.019201   0.011486
    18  C    0.173560   0.491824   0.722447  -0.004707   0.005377  -0.007254
    19  C    0.000228  -0.074251   0.053920  -0.002361  -0.002079   0.007458
    20  C   -0.005516  -0.007084  -0.159247   0.000746  -0.000798   0.000230
    21  C    0.000024   0.003142  -0.019506   0.000010  -0.000094  -0.000111
    22  N   -0.000004  -0.000076  -0.000110   0.000000   0.000000   0.000000
    23  C    0.000015   0.000604  -0.000839   0.000008   0.000001   0.000001
    24  S   -0.000338  -0.002697  -0.001755  -0.000007  -0.000020   0.000040
    25  C   -0.048341  -0.109106  -0.235843   0.005825  -0.005269  -0.002932
    26  C   -0.014632  -0.070682  -0.075444  -0.000522  -0.001178   0.007926
    27  S    0.005435   0.008546  -0.039406  -0.006691  -0.004907   0.009916
    28  C    0.012640  -0.100348  -0.016479  -0.107558  -0.045921   0.142948
    29  C   -0.195855  -0.114138   0.308587   0.085339   0.016907  -0.104794
    30  C    0.459669   0.209094  -0.775094  -0.017721  -0.061057   0.091828
    31  C   -1.464261   0.344989  -2.451439  -0.134717   0.073699   0.164395
    32  C   -2.010770  -2.753225  -4.554758  -0.028182   0.055685  -0.002432
    33  C    0.747658  -1.445992  -0.346846   0.006473  -0.004854   0.000972
    34  H    0.063740  -0.007941  -0.000745   0.000556  -0.000468  -0.000095
    35  H    0.339261   0.068585   0.071969  -0.003121   0.000723   0.001353
    36  H    0.560985  -0.495546  -0.238002   0.020332   0.047953   0.038992
    37  H    0.001331  -0.006948   0.035130   0.000092   0.000315   0.000214
    38  H   -0.000092  -0.000316  -0.001947   0.000006  -0.000009  -0.000008
    39  H   -0.000001   0.000002  -0.000029   0.000000   0.000000  -0.000000
    40  H    0.000008  -0.000607   0.005842  -0.000022   0.000094   0.000112
    41  H   -0.016591  -0.003039  -0.001764   0.017050   0.014553  -0.048473
    42  H   -0.008377  -0.009035  -0.002805   0.000003   0.000001   0.000004
             13         14         15         16         17         18
     1  Si  -0.038090   0.111864   0.081605  -0.144524  -0.067585   0.008836
     2  H    0.000230   0.002785  -0.025498   0.008503   0.002432   0.001006
     3  H    0.003094  -0.022977   0.010596   0.021447   0.004181   0.000353
     4  C   -0.228281   0.613486  -1.072133  -0.129942  -0.044454   0.032777
     5  C    0.303166  -1.010771   0.236978  -0.178180   0.275236  -0.062170
     6  C   -0.329453  -0.059218  -2.468590  -0.132014  -0.341770   0.076802
     7  C   -0.335201  -1.034562  -2.493087  -0.214882  -0.632231   0.173560
     8  C    0.333912   0.344678   0.683644  -0.290269  -1.147383   0.491824
     9  C    2.909888  -3.993969  -2.194653  -0.108780  -1.870022   0.722447
    10  N   -0.259601   0.374648   0.085703   0.058312   0.022655  -0.004707
    11  S    0.192515  -0.421491   0.088507   0.012993  -0.019201   0.005377
    12  N   -0.039868  -0.069787  -0.009160  -0.000198   0.011486  -0.007254
    13  C   12.442610  -5.715717  -0.342058   0.343344  -2.430548   0.859441
    14  C   -5.715717  22.205527  -1.502061  -0.968191  -1.707010   0.071611
    15  C   -0.342058  -1.502061  16.477151   0.172319  -1.111753   0.952783
    16  S    0.343344  -0.968191   0.172319  17.672442   0.715346   0.228363
    17  C   -2.430548  -1.707010  -1.111753   0.715346  18.817240  -1.529678
    18  C    0.859441   0.071611   0.952783   0.228363  -1.529678  11.039984
    19  C   -0.066525   0.422732  -0.913273  -0.373876  -2.378087  -1.684002
    20  C   -0.359286  -0.372100   0.374834  -0.058268   1.140720  -1.804536
    21  C   -0.053333  -0.158179   0.097997   0.115477   0.851279   0.353358
    22  N   -0.000133  -0.002803  -0.000903  -0.001654  -0.006321  -0.004078
    23  C   -0.002437  -0.005223   0.016287  -0.002626   0.184938  -0.197053
    24  S   -0.000995  -0.030728  -0.020093   0.015905  -0.275283  -0.152101
    25  C   -0.010511   0.338945  -0.663548  -0.215374  -1.283120   0.409484
    26  C   -0.115229   0.153611  -0.212210  -0.217744  -2.019618  -2.177827
    27  S   -0.275451   0.149641   0.064467   0.004475   0.512216  -0.006532
    28  C   -0.314533   1.122245  -0.269647  -0.130741  -2.142857  -0.238974
    29  C    1.401812  -0.913501  -1.229523  -0.090427   0.567028   0.111379
    30  C   -1.883209   2.096963  -1.909797  -0.541796   0.990377  -0.931682
    31  C    0.000894  -1.061408   0.037956   0.453544   2.211267  -0.660080
    32  C    0.519197  -3.699936   3.609548   0.547205  -0.167794   0.040161
    33  C   -0.049810  -0.159175   0.187876  -0.174657  -0.056551   0.000344
    34  H   -0.001359   0.004700   0.001319  -0.004236  -0.001029   0.000092
    35  H   -0.002397   0.008182  -0.008662   0.004189   0.000553   0.000285
    36  H    0.013649  -0.057682  -0.040348  -0.001649  -0.005150   0.000854
    37  H    0.069848   0.155007  -0.132004  -0.079642  -0.286814   0.354461
    38  H   -0.004556  -0.016426   0.005413   0.007558   0.016778   0.007286
    39  H   -0.000035  -0.000325   0.000203   0.000144   0.004326  -0.008240
    40  H    0.019504   0.010236  -0.009822  -0.006923  -0.124902   0.001834
[...]
 0.00002015,0.00000058,-0.00000030,-0.00003721,0.00001318,-0.00000935,0
 .00003315,-0.00001164,0.00000667,0.00002146,-0.00000739,0.00000104,-0.
 00004338,0.00000307,-0.00000554,0.00008382,0.00009107,-0.00001071,-0.0
 0012565,-0.00000770,-0.00000249,0.00001249,0.00003126,-0.00000858,0.00
 022892,0.00027323,-0.00010316,-0.00081954,-0.00050743,-0.00004223,0.00
 071609,0.00068114,-0.00240546,-0.00058673,-0.01243463,0.00235636,-0.02
 053148,-0.06675846,-0.05181625,0.00291369,0.01133821,0.00070373,-0.002
 68238,0.00153312,0.00210474,-0.00349523,-0.00088287,0.00423613,0.00037
 007,0.00021003,0.00013885,-0.00006681,-0.00016100,0.00011632,0.0002007
 5,0.00002919,-0.00001984,-0.00000104,0.00001023,-0.00002017,-0.0000388
 0,0.00016034,-0.00002056,0.00008416,-0.00015412,0.00004034,0.00001444,
 -0.00000535,-0.00001581,-0.00000041,-0.00000807,0.00000790,0.00000888,
 -0.00000316,-0.00000005,0.00000340,-0.00000109,0.00000164,0.00000102,-
 0.00000080,0.00000145,0.00000121,0.00000045,0.00000035,-0.00005626,0.0
 0033145,-0.00058793,0.02389440,0.06593851,0.04453605,0.00000876,-0.000
 00610,0.00000103,-0.00000248,0.00000115,0.00000042,-0.00000177,0.00000
 158,-0.00000034,0.00000153,0.00000122,-0.00000032,0.00000435,-0.000000
 11,0.00000101,-0.00000273,-0.00000617,0.00000432,-0.00000240,0.0000056
 5,-0.00000281,0.00000472,-0.00000742,0.00000159,-0.00000496,-0.0000002
 8,-0.00000167,0.00000675,-0.00000287,0.00000247,-0.00000507,0.00000293
 ,-0.00000196,-0.00000666,0.00001007,-0.00000544,0.00000368,-0.00001020
 ,0.00000617,-0.00002167,-0.00000361,0.00000699,0.00006707,0.00000493,-
 0.00000541,-0.00005712,0.00001569,-0.00003377,0.00003887,0.00006340,-0
 .00019119,-0.00038804,0.00020106,0.00010715,0.00112791,0.00123669,-0.0
 0040428,-0.00402274,-0.00237918,-0.00253013,0.00312825,-0.00228538,-0.
 00293214,0.00896130,-0.01142847,0.00633896,-0.13532325,0.13886311,-0.0
 4065952,-0.00963962,0.01496860,-0.00271880,0.00016826,-0.00014001,0.00
 006374,-0.00000208,0.00001880,0.00001314,0.00000220,0.00003420,-0.0000
 0474,-0.00006639,0.00004083,-0.00002696,-0.00001616,-0.00001273,0.0000
 5356,0.00002115,-0.00003850,0.00002375,-0.00001339,0.00001731,0.000000
 04,-0.00000358,-0.00000031,-0.00000029,-0.00000207,0.00000076,0.000000
 45,-0.00000042,-0.00000006,-0.00000033,-0.00000024,0.00000004,-0.00000
 042,-0.00000001,-0.00000019,0.00000004,0.00000220,0.00002813,0.0000227
 6,0.00072000,-0.00033876,-0.00012029,0.13531159,-0.00000698,-0.0000075
 7,0.00000118,0.00000135,0.00000139,-0.00000003,0.00000204,0.00000196,0
 .00000009,-0.00000110,-0.00000083,0.00000079,-0.00000288,0.00000056,0.
 00000089,0.00000125,0.00000237,-0.00000182,0.00000014,-0.00000147,0.00
 000099,0.00000049,0.00000428,-0.00000439,-0.00000619,-0.00000026,0.000
 00071,0.00001226,-0.00000260,0.00000151,-0.00000959,0.00000349,-0.0000
 0231,-0.00000576,0.00000233,-0.00000124,0.00001202,-0.00000060,0.00000
 174,0.00000105,-0.00000082,-0.00000531,-0.00000399,0.00001314,-0.00000
 522,-0.00002126,-0.00000389,-0.00000937,0.00000006,0.00003525,-0.00008
 718,-0.00016460,0.00009337,-0.00000534,0.00060686,0.00077583,0.0000969
 0,-0.00285606,0.00026819,-0.00133502,-0.00222968,-0.00316902,-0.002364
 53,0.01336492,-0.02496201,0.00484738,0.13288476,-0.24960669,0.04333376
 ,-0.00372081,0.00587485,-0.00112229,0.00003226,-0.00001907,0.00003681,
 0.00001472,-0.00000113,-0.00000058,-0.00000389,-0.00000205,0.00000532,
 -0.00000981,0.00001327,-0.00000806,0.00000365,-0.00002600,0.00000632,0
 .00001840,0.00000891,0.00000018,0.00000130,-0.00000159,0.00000677,0.00
 000005,0.00000223,-0.00000169,0.00000232,0.00000159,0.00000010,-0.0000
 0033,0.00000034,-0.00000055,-0.00000015,0.00000032,-0.00000046,-0.0000
 0036,-0.00000007,0.00000009,0.00000782,0.00000618,-0.00002154,0.000950
 82,-0.00051981,0.00031815,-0.13887676,0.27120808,-0.00006860,-0.000018
 24,0.00002404,0.00001652,0.00000185,-0.00000657,0.00001686,0.00000533,
 -0.00000412,-0.00001086,-0.00000891,0.00000548,-0.00002671,0.00000224,
 0.00000093,0.00001462,0.00002871,-0.00002158,0.00000582,-0.00001981,0.
 00001307,-0.00001028,0.00004208,-0.00002935,-0.00002688,-0.00000307,0.
 00000493,0.00006295,-0.00000999,0.00000447,-0.00005017,0.00001545,-0.0
 0001073,-0.00002489,-0.00000314,0.00000243,0.00007221,0.00000984,-0.00
 000795,0.00005152,0.00003899,-0.00002648,-0.00018127,0.00003773,-0.000
 02801,0.00003768,-0.00008383,0.00002728,-0.00011525,-0.00016582,-0.000
 05419,0.00025275,-0.00023621,0.00017852,-0.00071711,0.00044586,0.00172
 175,-0.00223781,-0.00127399,-0.00099085,-0.00282976,-0.00206398,0.0068
 2319,0.00881080,-0.00815257,-0.00250785,-0.04136445,0.04690778,-0.0411
 8500,-0.00486538,0.00831069,-0.00230585,-0.00011862,0.00011307,-0.0000
 3728,0.00004231,0.00001206,0.00006618,0.00000122,-0.00003738,0.0000335
 6,0.00005300,0.00001276,-0.00002482,0.00006650,-0.00002934,-0.00005983
 ,0.00001681,0.00009578,-0.00003979,0.00004579,-0.00004595,0.00004692,0
 .00000914,0.00001481,-0.00001459,0.00002173,0.00000433,-0.00000629,-0.
 00000110,0.00000328,-0.00000149,-0.00000044,0.00000244,-0.00000142,-0.
 00000198,-0.00000027,0.00000082,0.00004256,0.00008035,-0.00000289,-0.0
 0005011,-0.00036459,0.00083940,0.04308468,-0.04367761,0.03760678,0.000
 02027,0.00001071,-0.00000778,-0.00000397,-0.00000090,0.00000148,-0.000
 00414,-0.00000196,0.00000061,0.00000277,-0.00000285,0.00000242,0.00000
 342,0.00000564,-0.00000335,0.00000390,-0.00001145,0.00000797,-0.000002
 24,0.00000544,-0.00000275,0.00000964,-0.00001763,0.00001070,-0.0000076
 4,0.00002679,-0.00002191,0.00006658,0.00000239,-0.00000506,-0.00001311
 ,0.00001051,-0.00000884,-0.00014233,0.00008038,-0.00004687,-0.00007409
 ,-0.00003987,0.00002580,-0.00015033,-0.00007203,0.00012386,0.00005222,
 -0.00010131,0.00007888,0.00003243,0.00005338,-0.00003676,0.00027515,-0
 .00008362,0.00001634,-0.00021583,0.00030971,-0.00022301,0.00009025,0.0
 0037010,-0.00035005,-0.00042725,-0.00092056,0.00033668,0.00029901,-0.0
 0000462,0.00003025,-0.00000727,0.00049665,0.00016326,-0.00069778,-0.00
 008856,-0.00030418,-0.00189351,0.00074134,0.00088218,0.01247301,-0.007
 79381,0.00565325,-0.13104516,0.11104240,-0.08142168,-0.00966477,0.0156
 9464,-0.01161491,-0.00621001,-0.00104830,0.00087503,-0.00071419,-0.002
 18702,0.00154799,0.00073703,-0.00038616,0.00024204,-0.00004318,0.00001
 609,-0.00002207,0.00000440,-0.00001593,0.00001136,-0.00000174,-0.00000
 059,0.00000016,-0.00000018,-0.00000040,0.00000019,0.00000004,0.0000003
 7,-0.00000052,0.00000051,-0.00000210,0.00000162,0.00000047,0.00000661,
 0.00001933,0.00003602,0.00002333,0.00000337,-0.00000023,0.00000044,-0.
 00002996,0.13635648,-0.00000318,0.00001177,0.00000166,0.00000096,-0.00
 000280,-0.00000091,0.00000024,-0.00000315,-0.00000049,0.00000057,-0.00
 000283,0.00000247,-0.00000020,0.00000398,0.00000647,0.00000006,-0.0000
 0374,-0.00000205,0.00000070,0.00000389,0.00000184,0.00000259,-0.000004
 96,0.00000336,-0.00001719,0.00000570,-0.00001899,0.00003729,0.00002483
 ,-0.00001348,-0.00001164,-0.00000233,-0.00001437,-0.00001455,0.0000163
 7,-0.00002407,-0.00006376,-0.00001173,0.00005917,-0.00020274,-0.000042
 33,0.00026224,0.00006118,-0.00004923,0.00001016,-0.00001039,-0.0000379
 3,0.00005001,-0.00010194,-0.00001739,-0.00029528,0.00008166,-0.0002587
 8,0.00010979,0.00088295,-0.00056397,-0.00184658,0.00003063,0.00026880,
 -0.00025846,-0.00040300,-0.00001485,-0.00028257,-0.00007084,-0.0004019
 3,0.00003156,0.00044133,0.00002750,0.00012066,0.00093107,0.00043623,-0
 .00022842,0.01286952,-0.00728765,0.00604908,0.10894606,-0.19076371,0.1
 2607249,-0.00271553,0.00225822,-0.00429938,-0.00252187,0.00035775,-0.0
 0011747,-0.00236106,-0.00073716,0.00378878,0.00112365,0.00007906,0.000
 56968,-0.00002685,-0.00004182,-0.00002887,0.00001111,-0.00000330,0.000
 00076,0.00000229,-0.00000158,-0.00000374,0.00000002,0.00000012,0.00000
 022,-0.00000001,0.00000034,-0.00000025,0.00000023,-0.00000103,0.000001
 58,-0.00001457,0.00008168,0.00016948,-0.00002326,-0.00000605,-0.000026
 17,0.00002857,0.00000850,0.00000087,-0.11712794,0.19521301,-0.00000045
 ,0.00000303,0.00001014,0.00000054,-0.00000043,-0.00000311,-0.00000024,
 -0.00000120,-0.00000246,-0.00000024,0.00000171,-0.00000064,0.00000297,
 0.00000802,0.00000935,-0.00000147,-0.00000545,-0.00000313,-0.00000084,
 0.00000572,0.00000337,0.00000044,-0.00000046,0.00000306,0.00001026,-0.
 00002075,-0.00000871,-0.00002609,-0.00001744,0.00001428,0.00000770,-0.
 00001315,-0.00001329,0.00001520,-0.00000750,0.00000115,0.00003853,0.00
 004466,0.00002811,0.00016251,0.00028221,0.00017109,-0.00001452,0.00000
 577,-0.00003595,0.00000151,0.00006014,-0.00000827,0.00000016,-0.000285
 97,-0.00029726,-0.00001564,-0.00002250,-0.00003696,-0.00054154,-0.0019
 2021,-0.00183192,0.00035062,0.00059130,-0.00015052,-0.00015781,-0.0000
 6035,0.00008291,-0.00042283,-0.00058285,-0.00065607,0.00067479,-0.0001
 1184,0.00111426,0.00035259,0.00031051,-0.00054937,-0.00983011,0.005714
 62,-0.00294054,-0.08047655,0.12646328,-0.11314431,0.00240125,-0.004665
 43,-0.00029408,0.00204009,-0.00015201,0.00013833,0.00176654,0.00361386
 ,0.00154483,-0.00082397,0.00057965,0.00050914,0.00001696,-0.00002074,-
 0.00007601,-0.00000953,0.00000083,-0.00000243,-0.00000007,-0.00000317,
 -0.00000404,0.00000016,0.00000021,0.00000023,0.00000003,-0.00000039,-0
 .00000014,-0.00000002,0.00000125,0.00000048,0.00003707,0.00017700,0.00
 021314,-0.00006454,-0.00002351,-0.00000753,-0.00008904,-0.00000552,-0.
 00003141,0.08468418,-0.13092677,0.11410329,0.00002796,-0.00006919,0.00
 004889,-0.00001129,0.00001422,-0.00000726,-0.00001151,0.00001160,-0.00
 001081,0.00002534,0.00003710,-0.00002565,0.00001423,-0.00007779,0.0000
 5084,-0.00003448,0.00001884,-0.00001050,-0.00002180,-0.00006827,0.0000
 4610,0.00021247,0.00001590,-0.00001795,-0.00049708,-0.00061660,0.00042
 943,-0.00058307,0.00072051,-0.00048391,0.00000020,0.00000919,-0.000009
 91,-0.00170887,0.00000266,-0.00000509,0.00215098,-0.00078951,0.0005612
 4,-0.00069790,-0.00039998,0.00028191,0.00028429,0.00034253,-0.00024981
 ,-0.00021429,0.00012151,-0.00007808,-0.00020258,0.00007158,-0.00004161
 ,0.00019492,-0.00003809,0.00001254,-0.00035364,0.00092923,-0.00060315,
 -0.00023571,-0.00019529,0.00005107,-0.00001345,0.00005371,0.00002472,0
 .00002751,0.00008256,0.00001250,-0.00010445,-0.00001558,-0.00011099,0.
 00003035,-0.00001306,0.00004415,-0.00248483,-0.00239468,0.00197924,0.0
 0127911,-0.00275604,0.00194795,0.00562061,-0.00191156,0.00111958,-0.29
 869634,0.09988588,-0.06438253,-0.01126038,0.01083618,-0.00747289,0.000
 95236,0.00009158,-0.00016054,0.00002565,-0.00015681,0.00011129,0.00000
 247,0.00010641,-0.00007315,-0.00004239,0.00000387,-0.00000236,-0.00000
 173,-0.00000030,0.00000031,-0.00000401,-0.00000653,0.00000494,-0.00000
 434,0.00001483,-0.00001050,0.00000130,-0.00001176,0.00000195,-0.000003
 26,-0.00000344,0.00000436,0.00000453,0.00000128,0.00000676,0.00085467,
 0.00023745,-0.00008820,0.30548115,-0.00009631,0.00011240,-0.00003859,0
 .00002707,-0.00002260,0.00000349,0.00002820,-0.00001478,0.00001079,-0.
 00002312,-0.00007151,0.00004855,0.00000372,0.00007810,-0.00008175,0.00
 005973,-0.00003786,0.00005418,-0.00000661,0.00003817,-0.00007621,-0.00
 000694,-0.00007460,0.00009478,0.00009000,0.00062922,-0.00032221,0.0013
 8710,-0.00079077,0.00057917,-0.00059050,0.00015761,-0.00024341,-0.0003
 0777,-0.00074369,-0.00031960,-0.00174366,-0.00098430,0.00126364,0.0007
 1003,-0.00002991,0.00000054,-0.00034322,-0.00058572,0.00032145,0.00038
 490,0.00001032,0.00011659,0.00027257,-0.00010436,-0.00008284,-0.000171
 68,0.00008066,-0.00020718,-0.00025582,0.00083776,-0.00003473,-0.000218
 99,-0.00011998,0.00017437,0.00001855,0.00002840,0.00000395,-0.00007629
 ,0.00004444,-0.00006172,-0.00001731,-0.00002366,0.00000006,0.00003698,
 0.00001838,-0.00003504,-0.00256585,0.00105139,0.00284255,-0.00125535,-
 0.00379690,0.00294129,0.01594843,-0.00729555,0.00229793,0.10147267,-0.
 08350611,0.04076413,-0.01028685,0.00950668,-0.00537233,0.00053031,-0.0
 0042178,-0.00197073,-0.00002368,0.00026285,-0.00014062,0.00001390,-0.0
 0008519,0.00005372,0.00008775,0.00000701,-0.00001379,0.00000072,0.0000
 0756,-0.00000328,0.00000160,0.00001362,-0.00000874,-0.00000072,-0.0000
 2399,0.00002078,-0.00000951,-0.00000701,0.00001777,0.00000316,0.000003
 00,-0.00000336,-0.00000743,-0.00000147,0.00000332,0.00101214,0.0014623
 9,0.00098296,-0.10408696,0.08439130,0.00007127,-0.00004744,0.00008436,
 -0.00001981,0.00001029,-0.00000990,-0.00001928,0.00000782,-0.00001756,
 0.00001490,0.00004920,-0.00003756,-0.00000931,-0.00007536,0.00001791,-
 0.00003760,0.00005491,-0.00000017,0.00000325,-0.00007607,-0.00001450,0
 .00000257,0.00009963,-0.00001211,-0.00006538,-0.00034995,0.00038190,-0
 .00099581,0.00061752,-0.00032424,0.00042100,-0.00025414,-0.00001743,0.
 00028241,-0.00027620,-0.00098994,0.00121501,0.00119800,-0.00014187,-0.
 00050427,0.00008730,-0.00006651,0.00023883,0.00029449,-0.00033569,-0.0
 0026389,0.00014160,0.00008210,-0.00012967,-0.00012094,-0.00013405,0.00
 006281,-0.00015916,-0.00007160,0.00029703,-0.00010438,0.00075265,0.000
 12463,0.00030126,0.00005066,0.00004834,-0.00008157,-0.00000304,-0.0000
 1825,-0.00001615,-0.00001346,0.00003231,-0.00005303,0.00007304,-0.0000
 6798,0.00005024,-0.00004525,0.00196147,0.00294380,0.00267991,0.0006930
 7,0.00273401,-0.00197647,-0.01171720,0.00279844,-0.00519186,-0.0658738
 8,0.04070520,-0.05023987,0.00833582,-0.00591097,0.00552104,-0.00050039
 ,-0.00198903,-0.00165903,0.00001214,-0.00013212,0.00015091,-0.00001380
 ,0.00004578,-0.00004032,-0.00006307,-0.00001299,-0.00000099,-0.0000005
 5,-0.00000344,0.00000528,-0.00000102,-0.00000862,0.00000751,0.00000052
 ,0.00002069,-0.00000944,0.00000892,0.00001700,-0.00000726,-0.00000609,
 -0.00000196,-0.00001151,-0.00000228,0.00000097,0.00000131,-0.00062024,
 0.00107499,0.00215039,0.06710706,-0.04358066,0.04941153,0.00433548,0.0
 0428633,-0.00305310,-0.00032193,0.00010144,0.00018038,-0.00033267,-0.0
 0013905,-0.00015094,-0.01542511,-0.02202638,0.01570226,-0.00438639,0.0
 0256891,-0.00157019,-0.00021667,-0.00136831,0.00096089,-0.00046923,0.0
 0016702,-0.00012157,0.00014944,0.00015223,-0.00010514,0.00003789,-0.00
 004026,0.00002220,0.00009393,0.00005673,-0.00004243,-0.00006450,0.0000
 0012,0.00000139,0.00005382,-0.00003236,0.00002282,-0.00009995,0.000005
 19,-0.00000172,0.00005497,0.00001249,-0.00000946,-0.00011169,-0.000041
 32,0.00002988,-0.00003762,-0.00002991,0.00002111,0.00007867,-0.0000506
 9,0.00003508,0.00001493,0.00001476,-0.00001057,-0.00000826,-0.00000508
 ,0.00000358,0.00000192,-0.00000056,-0.00000074,0.00000226,0.00000076,0
 .00000018,-0.00000382,0.00000069,0.00000009,-0.00000052,0.00000278,0.0
 0000038,-0.00000169,-0.00000090,-0.00000117,0.00000513,0.00000038,-0.0
 0000027,0.00000013,-0.00000164,0.00000136,0.00000463,0.00000790,-0.000
 00593,-0.00000215,0.00000179,-0.00000086,0.00001476,-0.00000542,0.0000
 0284,0.00000105,0.00005377,-0.00003713,0.00056020,-0.00038577,0.000280
 49,0.00034495,0.00236935,-0.00167030,-0.16927827,-0.11387965,0.0818226
 7,0.00173815,0.00009335,-0.00020154,0.00001627,0.00002591,-0.00001418,
 -0.00006262,-0.00010795,0.00007571,-0.00000073,-0.00000257,0.00000162,
 0.00000130,0.00000019,0.00000003,-0.00000003,-0.00000006,-0.00000060,0
 .00000067,0.00000039,-0.00000037,-0.00000273,0.00000501,-0.00000360,0.
 18331605,-0.00802718,-0.00231279,0.00229805,0.00057425,-0.00042546,-0.
 00018587,0.00036244,-0.00047856,0.00047779,0.00686367,0.00666681,-0.00
 173124,0.00126628,0.00352114,0.00485999,0.00008527,0.00030201,-0.00010
 070,-0.00003771,-0.00025139,-0.00033973,-0.00009762,-0.00008238,0.0001
 6878,-0.00005219,-0.00002963,-0.00021097,-0.00003323,-0.00010444,0.000
 01758,0.00000586,0.00001597,0.00000736,-0.00008685,0.00003876,0.000001
 90,0.00016901,-0.00001115,0.00002641,-0.00009940,-0.00000902,0.0000271
 7,0.00013587,0.00004035,-0.00003284,0.00006163,-0.00003279,-0.00001979
 ,-0.00013055,0.00008527,-0.00003048,-0.00004599,-0.00003038,0.00001821
 ,0.00002152,0.00000295,-0.00000666,-0.00001357,0.00002334,0.00000102,-
 0.00001317,-0.00000328,0.00000118,0.00002084,-0.00001313,-0.00000176,0
 .00000907,-0.00001198,0.00000069,0.00000729,0.00000072,0.00000255,-0.0
 0000184,-0.00000409,0.00000593,0.00001067,-0.00000706,0.00000088,-0.00
 001627,-0.00001223,0.00001213,-0.00000252,-0.00000639,-0.00000398,-0.0
 0000974,0.00001248,-0.00001138,0.00003632,-0.00008629,0.00006013,-0.00
 056018,0.00089979,0.00024454,-0.00018704,-0.00232956,0.00114080,-0.127
 75294,-0.16011583,0.09320617,-0.00062672,-0.00160699,-0.00380214,-0.00
 004523,0.00009263,0.00011816,0.00001891,0.00001069,-0.00002760,0.00000
 458,0.00000571,-0.00000098,-0.00000518,-0.00000134,-0.00000094,-0.0000
 0015,0.00000052,0.00000506,-0.00000142,0.00000010,0.00000092,0.0000028
 4,0.00000044,0.00000101,0.12819039,0.15624649,0.00555680,0.00210336,-0
 .00076403,-0.00016767,0.00050109,-0.00036509,-0.00048449,-0.00019187,-
 0.00030495,-0.00453127,-0.00130789,0.00531462,-0.00066951,0.00483438,0
 .00711811,-0.00005587,-0.00007858,0.00021603,0.00002282,-0.00034174,-0
 .00049916,0.00006637,0.00016483,0.00004118,0.00003234,-0.00020961,-0.0
 0018616,0.00001968,0.00001564,-0.00009131,-0.00000235,0.00000750,0.000
 02155,0.00006068,0.00000195,0.00003802,-0.00011609,0.00002815,0.000011
 27,0.00006922,0.00002604,0.00001022,-0.00009301,-0.00003066,0.00001721
 ,-0.00004272,-0.00001706,-0.00004542,0.00009093,-0.00003179,0.00005999
 ,0.00003109,0.00002061,-0.00001458,-0.00001490,-0.00000316,0.00000548,
 0.00001000,-0.00001440,-0.00000189,0.00000999,0.00000705,-0.00000029,-
 0.00001670,0.00000407,-0.00000201,-0.00000207,0.00000970,0.00000096,-0
 .00000770,-0.00000295,-0.00000206,0.00000107,0.00000412,-0.00000253,-0
 .00000752,0.00000156,-0.00000475,0.00001146,0.00001153,-0.00000434,0.0
 0000173,-0.00000348,-0.00000819,0.00000663,-0.00001265,0.00000243,-0.0
 0002602,0.00005961,-0.00004144,0.00040279,0.00024117,0.00106240,0.0001
 1462,0.00110085,-0.00146985,0.09156195,0.09301700,-0.09614348,0.000309
 84,-0.00380830,-0.00439786,0.00003500,0.00011675,0.00017848,-0.0000127
 6,-0.00002582,-0.00001038,-0.00000339,-0.00000199,0.00000407,0.0000032
 8,0.00000114,0.00000179,-0.00000015,-0.00000060,-0.00000270,0.00000101
 ,0.00000099,0.00000061,-0.00000195,0.00000079,0.00000111,-0.09216313,-
 0.09619734,0.09025696\\0.00000704,0.00000317,-0.00000077,0.00000373,-0
 .00000022,0.00000640,0.00000251,-0.00000063,-0.00000052,0.00005230,0.0
 0002837,-0.00000212,-0.00004132,-0.00001390,0.00002362,0.00000651,-0.0
 0001929,0.00000020,0.00000837,0.00000842,-0.00000510,-0.00001446,0.000
 00137,0.00002546,0.00000287,-0.00001250,-0.00003400,0.00001261,0.00000
 693,0.00001320,-0.00001159,0.00000604,-0.00000706,0.00000442,-0.000011
 87,0.00000816,-0.00000051,0.00000345,0.00000122,0.00000155,0.00000571,
 -0.00000207,-0.00000549,-0.00000327,0.00000089,-0.00000229,-0.00000480
 ,0.00000598,-0.00000559,0.00000050,0.00000082,0.00000191,-0.00000061,0
 .00000099,-0.00000386,-0.00000067,-0.00000072,0.00000733,-0.00000131,-
 0.00000734,-0.00000594,-0.00000254,0.00001259,-0.00000014,-0.00000134,
 -0.00000496,0.00000809,0.00000730,-0.00000039,-0.00000742,0.00000058,0
 .00000430,0.00000665,0.00000175,0.00000156,-0.00000138,-0.00000156,-0.
 00000661,0.00000289,0.00000087,0.00000619,0.00000124,-0.00000085,-0.00
 000762,-0.00000414,-0.00000354,0.00000324,0.00000273,0.00000344,-0.000
 00364,0.00002457,-0.00000373,0.00000655,-0.00003251,0.00002204,-0.0000
 2084,-0.00000193,-0.00004072,-0.00004187,-0.00001861,-0.00000679,0.000
 00171,-0.00000324,0.00000232,0.00000326,0.00000007,-0.00000091,-0.0000
 0436,-0.00000002,0.00000066,-0.00000115,0.00000016,0.00000013,0.000000
 10,-0.00000153,0.,-0.00000086,0.00000204,-0.00000119,-0.00000204,0.000
 00058,0.00000049,-0.00000274,0.00000181,0.00002869,0.00003037\\\@


 EDUCATION DOESN'T COST 
           ... IT PAYS!

 -- POSTMARK, UNIV. OF MISSISSIPPI, DEC 78
 Job cpu time:  1 days  1 hours 12 minutes 53.9 seconds.
 File lengths (MBytes):  RWF=   2050 Int=      0 D2E=      0 Chk=     32 Scr=      1
 Normal termination of Gaussian 09 at Mon Dec 30 06:07:17 2013.
