 Entering Gaussian System, Link 0=g09
 Initial command:
 /opt/gaussian/g09/l1.exe /panfs/panfs.cluster/home/shuo/Gau-3990.inp -scrdir=/panfs/panfs.cluster/home/shuo/
 Default is to use a total of  12 processors:
                               12 via shared-memory
                                1 via Linda
 Entering Link 1 = /opt/gaussian/g09/l1.exe PID=      3991.
  
 Copyright (c) 1988,1990,1992,1993,1995,1998,2003,2009,2011,
            Gaussian, Inc.  All Rights Reserved.
  
 This is part of the Gaussian(R) 09 program.  It is based on
 the Gaussian(R) 03 system (copyright 2003, Gaussian, Inc.),
 the Gaussian(R) 98 system (copyright 1998, Gaussian, Inc.),
 the Gaussian(R) 94 system (copyright 1995, Gaussian, Inc.),
 the Gaussian 92(TM) system (copyright 1992, Gaussian, Inc.),
 the Gaussian 90(TM) system (copyright 1990, Gaussian, Inc.),
 the Gaussian 88(TM) system (copyright 1988, Gaussian, Inc.),
 the Gaussian 86(TM) system (copyright 1986, Carnegie Mellon
 University), and the Gaussian 82(TM) system (copyright 1983,
 Carnegie Mellon University). Gaussian is a federally registered
 trademark of Gaussian, Inc.
  
 This software contains proprietary and confidential information,
 including trade secrets, belonging to Gaussian, Inc.
  
 This software is provided under written license and may be
 used, copied, transmitted, or stored only in accord with that
 written license.
  
 The following legend is applicable only to US Government
 contracts under FAR:
  
                    RESTRICTED RIGHTS LEGEND
  
 Use, reproduction and disclosure by the US Government is
 subject to restrictions as set forth in subparagraphs (a)
 and (c) of the Commercial Computer Software - Restricted
 Rights clause in FAR 52.227-19.
  
 Gaussian, Inc.
 340 Quinnipiac St., Bldg. 40, Wallingford CT 06492
  
  
 ---------------------------------------------------------------
 Warning -- This program may not be used in any manner that
 competes with the business of Gaussian, Inc. or will provide
 assistance to any competitor of Gaussian, Inc.  The licensee
 of this program is prohibited from giving any competitor of
 Gaussian, Inc. access to this program.  By using this program,
 the user acknowledges that Gaussian, Inc. is engaged in the
 business of creating and licensing software in the field of
 computational chemistry and represents and warrants to the
 licensee that it is not a competitor of Gaussian, Inc. and that
 it will not use this program in any manner prohibited above.
 ---------------------------------------------------------------
  

 Cite this work as:
 Gaussian 09, Revision C.01,
 M. J. Frisch, G. W. Trucks, H. B. Schlegel, G. E. Scuseria, 
 M. A. Robb, J. R. Cheeseman, G. Scalmani, V. Barone, B. Mennucci, 
 G. A. Petersson, H. Nakatsuji, M. Caricato, X. Li, H. P. Hratchian, 
 A. F. Izmaylov, J. Bloino, G. Zheng, J. L. Sonnenberg, M. Hada, 
 M. Ehara, K. Toyota, R. Fukuda, J. Hasegawa, M. Ishida, T. Nakajima, 
 Y. Honda, O. Kitao, H. Nakai, T. Vreven, J. A. Montgomery, Jr., 
 J. E. Peralta, F. Ogliaro, M. Bearpark, J. J. Heyd, E. Brothers, 
 K. N. Kudin, V. N. Staroverov, T. Keith, R. Kobayashi, J. Normand, 
 K. Raghavachari, A. Rendell, J. C. Burant, S. S. Iyengar, J. Tomasi, 
 M. Cossi, N. Rega, J. M. Millam, M. Klene, J. E. Knox, J. B. Cross, 
 V. Bakken, C. Adamo, J. Jaramillo, R. Gomperts, R. E. Stratmann, 
 O. Yazyev, A. J. Austin, R. Cammi, C. Pomelli, J. W. Ochterski, 
 R. L. Martin, K. Morokuma, V. G. Zakrzewski, G. A. Voth, 
 P. Salvador, J. J. Dannenberg, S. Dapprich, A. D. Daniels, 
 O. Farkas, J. B. Foresman, J. V. Ortiz, J. Cioslowski, 
 and D. J. Fox, Gaussian, Inc., Wallingford CT, 2010.
 
 ******************************************
 Gaussian 09:  EM64L-G09RevC.01 23-Sep-2011
                29-Dec-2013 
 ******************************************
 %chk=43_C22H12N4S4.chk
 %NProcShared=12
 Will use up to   12 processors via shared memory.
 %Mem=8000MB
 Default route:  MaxDisk=100GB
 --------------------------------------------
 #B3LYP/6-31++G(d,p) opt scf=direct freq test
 --------------------------------------------
 1/14=-1,18=20,19=15,26=3,38=1/1,3;
 2/9=110,12=2,17=6,18=5,40=1/2;
 3/5=1,6=6,7=1111,11=2,16=1,25=1,30=1,71=1,74=-5/1,2,3;
 4//1;
 5/5=2,38=5/2;
 6/7=2,8=2,9=2,10=2,28=1/1;
 7//1,2,3,16;
 1/14=-1,18=20,19=15/3(2);
 2/9=110/2;
 99//99;
 2/9=110/2;
 3/5=1,6=6,7=1111,11=2,16=1,25=1,30=1,71=1,74=-5/1,2,3;
 4/5=5,16=3/1;
 5/5=2,38=5/2;
 7//1,2,3,16;
 1/14=-1,18=20,19=15/3(-5);
 2/9=110/2;
 6/7=2,8=2,9=2,10=2,19=2,28=1/1;
 99/9=1/99;
 ----------------------------------------------------------------------
 Geom opt of No.43 candidate from the CEPDB database with SMILE code of
  c1csc(c1)-c1ccc([nH]1)-c1ncc(-c2nccc3nsnc23)c2nsnc12, HPC, 20131227, 
 Shuo Dai, Gaussian09
 ----------------------------------------------------------------------
 Charge =  0 Multiplicity = 1
 Symbolic Z-Matrix:
 C                    -1.2791    0.0689   -0.00011 
 C                    -0.63058   1.28141   0.00093 
 S                     1.05503   1.11626   0.00142 
 C                     0.94794  -0.5908   -0.00341 
 C                    -0.3651   -1.02755   0.00108 
 C                     2.14902  -1.35301  -0.0098 
 C                     3.46912  -0.9321   -0.01415 
 C                     4.29475  -2.06507  -0.01231 
 C                     3.46007  -3.15967  -0.01249 
 N                     2.1695   -2.70634  -0.01402 
 H                     1.35354  -3.32364  -0.01569 
 C                     3.77923  -4.54324  -0.01051 
 N                     5.07976  -4.90764  -0.00582 
 C                     5.40454  -6.22944  -0.00244 
 C                     4.52253  -7.32915  -0.00033 
 C                     4.98959  -8.70198   0.00438 
 N                     6.35626  -8.90933   0.02481 
 C                     6.89013  -10.16938   0.03348 
 C                     6.19361  -11.37025   0.02827 
 C                     4.80167  -11.21548   0.00613 
 N                     3.91655  -12.22659  -0.00142 
 S                     2.41101  -11.54914  -0.03117 
 N                     2.84147  -9.97857  -0.04685 
 C                     4.17366  -9.86917  -0.01145 
 C                     3.15303  -6.93079  -0.00078 
 N                     2.0503   -7.68903   0.01154 
 S                     0.70773  -6.77006  -0.01308 
 N                     1.43117  -5.29711  -0.0181 
 C                     2.76549  -5.51264  -0.01033 
 H                    -2.35649  -0.02577  -0.00128 
 H                    -1.0451    2.27532   0.00137 
 H                    -0.67448  -2.06749   0.00267 
 H                     3.80457   0.09184  -0.01566 
 H                     5.37334  -2.11129  -0.01087 
 H                     6.48697  -6.38205  -0.00086 
 H                     7.97964  -10.18654   0.0459 
 H                     6.65686  -12.34201   0.03736 
 

 GradGradGradGradGradGradGradGradGradGradGradGradGradGradGradGradGradGrad
 Berny optimization.
 Initialization pass.
                           ----------------------------
                           !    Initial Parameters    !
                           ! (Angstroms and Degrees)  !
 --------------------------                            --------------------------
 ! Name  Definition              Value          Derivative Info.                !
 --------------------------------------------------------------------------------
 ! R1    R(1,2)                  1.375          estimate D2E/DX2                !
 ! R2    R(1,5)                  1.4274         estimate D2E/DX2                !
 ! R3    R(1,30)                 1.0815         estimate D2E/DX2                !
 ! R4    R(2,3)                  1.6937         estimate D2E/DX2                !
 ! R5    R(2,31)                 1.0769         estimate D2E/DX2                !
 ! R6    R(3,4)                  1.7104         estimate D2E/DX2                !
 ! R7    R(4,5)                  1.3838         estimate D2E/DX2                !
 ! R8    R(4,6)                  1.4225         estimate D2E/DX2                !
 ! R9    R(5,32)                 1.085          estimate D2E/DX2                !
 ! R10   R(6,7)                  1.3856         estimate D2E/DX2                !
 ! R11   R(6,10)                 1.3535         estimate D2E/DX2                !
 ! R12   R(7,8)                  1.4019         estimate D2E/DX2                !
 ! R13   R(7,33)                 1.0775         estimate D2E/DX2                !
 ! R14   R(8,9)                  1.3765         estimate D2E/DX2                !
 ! R15   R(8,34)                 1.0796         estimate D2E/DX2                !
 ! R16   R(9,10)                 1.3679         estimate D2E/DX2                !
 ! R17   R(9,12)                 1.4199         estimate D2E/DX2                !
 ! R18   R(10,11)                1.0232         estimate D2E/DX2                !
 ! R19   R(12,13)                1.3506         estimate D2E/DX2                !
 ! R20   R(12,29)                1.4026         estimate D2E/DX2                !
 ! R21   R(13,14)                1.3611         estimate D2E/DX2                !
 ! R22   R(14,15)                1.4097         estimate D2E/DX2                !
 ! R23   R(14,35)                1.0931         estimate D2E/DX2                !
 ! R24   R(15,16)                1.4501         estimate D2E/DX2                !
 ! R25   R(15,25)                1.4263         estimate D2E/DX2                !
 ! R26   R(16,17)                1.3825         estimate D2E/DX2                !
 ! R27   R(16,24)                1.4242         estimate D2E/DX2                !
 ! R28   R(17,18)                1.3685         estimate D2E/DX2                !
 ! R29   R(18,19)                1.3883         estimate D2E/DX2                !
 ! R30   R(18,36)                1.0897         estimate D2E/DX2                !
 ! R31   R(19,20)                1.4007         estimate D2E/DX2                !
 ! R32   R(19,37)                1.0766         estimate D2E/DX2                !
 ! R33   R(20,21)                1.3438         estimate D2E/DX2                !
 ! R34   R(20,24)                1.4857         estimate D2E/DX2                !
 ! R35   R(21,22)                1.6512         estimate D2E/DX2                !
 ! R36   R(22,23)                1.6286         estimate D2E/DX2                !
 ! R37   R(23,24)                1.3371         estimate D2E/DX2                !
 ! R38   R(25,26)                1.3383         estimate D2E/DX2                !
 ! R39   R(25,29)                1.4702         estimate D2E/DX2                !
 ! R40   R(26,27)                1.6271         estimate D2E/DX2                !
 ! R41   R(27,28)                1.641          estimate D2E/DX2                !
 ! R42   R(28,29)                1.3516         estimate D2E/DX2                !
 ! A1    A(2,1,5)              112.045          estimate D2E/DX2                !
 ! A2    A(2,1,30)             123.1621         estimate D2E/DX2                !
 ! A3    A(5,1,30)             124.7929         estimate D2E/DX2                !
 ! A4    A(1,2,3)              112.5447         estimate D2E/DX2                !
 ! A5    A(1,2,31)             129.2205         estimate D2E/DX2                !
 ! A6    A(3,2,31)             118.2348         estimate D2E/DX2                !
 ! A7    A(2,3,4)               92.0061         estimate D2E/DX2                !
 ! A8    A(3,4,5)              111.9873         estimate D2E/DX2                !
 ! A9    A(3,4,6)              118.8101         estimate D2E/DX2                !
 ! A10   A(5,4,6)              129.2026         estimate D2E/DX2                !
 ! A11   A(1,5,4)              111.4159         estimate D2E/DX2                !
 ! A12   A(1,5,32)             123.6178         estimate D2E/DX2                !
 ! A13   A(4,5,32)             124.9661         estimate D2E/DX2                !
 ! A14   A(4,6,7)              129.9162         estimate D2E/DX2                !
 ! A15   A(4,6,10)             123.2668         estimate D2E/DX2                !
 ! A16   A(7,6,10)             106.817          estimate D2E/DX2                !
 ! A17   A(6,7,8)              108.3969         estimate D2E/DX2                !
 ! A18   A(6,7,33)             125.824          estimate D2E/DX2                !
 ! A19   A(8,7,33)             125.7789         estimate D2E/DX2                !
 ! A20   A(7,8,9)              106.5909         estimate D2E/DX2                !
 ! A21   A(7,8,34)             128.5358         estimate D2E/DX2                !
 ! A22   A(9,8,34)             124.8733         estimate D2E/DX2                !
 ! A23   A(8,9,10)             107.9726         estimate D2E/DX2                !
 ! A24   A(8,9,12)             129.6832         estimate D2E/DX2                !
 ! A25   A(10,9,12)            122.3442         estimate D2E/DX2                !
 ! A26   A(6,10,9)             110.2212         estimate D2E/DX2                !
 ! A27   A(6,10,11)            126.2418         estimate D2E/DX2                !
 ! A28   A(9,10,11)            123.5369         estimate D2E/DX2                !
 ! A29   A(9,12,13)            118.6423         estimate D2E/DX2                !
 ! A30   A(9,12,29)            120.7295         estimate D2E/DX2                !
 ! A31   A(13,12,29)           120.6281         estimate D2E/DX2                !
 ! A32   A(12,13,14)           119.4575         estimate D2E/DX2                !
 ! A33   A(13,14,15)           127.4644         estimate D2E/DX2                !
 ! A34   A(13,14,35)           111.83           estimate D2E/DX2                !
 ! A35   A(15,14,35)           120.7056         estimate D2E/DX2                !
 ! A36   A(14,15,16)           122.48           estimate D2E/DX2                !
 ! A37   A(14,15,25)           112.5123         estimate D2E/DX2                !
 ! A38   A(16,15,25)           125.0077         estimate D2E/DX2                !
 ! A39   A(15,16,17)           117.4159         estimate D2E/DX2                !
 ! A40   A(15,16,24)           126.2498         estimate D2E/DX2                !
 ! A41   A(17,16,24)           116.3342         estimate D2E/DX2                !
 ! A42   A(16,17,18)           121.5907         estimate D2E/DX2                !
 ! A43   A(17,18,19)           126.921          estimate D2E/DX2                !
 ! A44   A(17,18,36)           113.8666         estimate D2E/DX2                !
 ! A45   A(19,18,36)           119.2124         estimate D2E/DX2                !
 ! A46   A(18,19,20)           113.77           estimate D2E/DX2                !
 ! A47   A(18,19,37)           124.3941         estimate D2E/DX2                !
 ! A48   A(20,19,37)           121.8357         estimate D2E/DX2                !
 ! A49   A(19,20,21)           124.8546         estimate D2E/DX2                !
 ! A50   A(19,20,24)           121.3579         estimate D2E/DX2                !
 ! A51   A(21,20,24)           113.7874         estimate D2E/DX2                !
 ! A52   A(20,21,22)           106.9753         estimate D2E/DX2                !
 ! A53   A(21,22,23)            98.9074         estimate D2E/DX2                !
 ! A54   A(22,23,24)           109.998          estimate D2E/DX2                !
 ! A55   A(16,24,20)           120.0237         estimate D2E/DX2                !
 ! A56   A(16,24,23)           129.6526         estimate D2E/DX2                !
 ! A57   A(20,24,23)           110.3231         estimate D2E/DX2                !
 ! A58   A(15,25,26)           129.2666         estimate D2E/DX2                !
 ! A59   A(15,25,29)           121.5022         estimate D2E/DX2                !
 ! A60   A(26,25,29)           109.2307         estimate D2E/DX2                !
 ! A61   A(25,26,27)           111.0844         estimate D2E/DX2                !
 ! A62   A(26,27,28)            98.2348         estimate D2E/DX2                !
 ! A63   A(27,28,29)           106.9809         estimate D2E/DX2                !
 ! A64   A(12,29,25)           118.4344         estimate D2E/DX2                !
 ! A65   A(12,29,28)           127.1044         estimate D2E/DX2                !
 ! A66   A(25,29,28)           114.4611         estimate D2E/DX2                !
 ! D1    D(5,1,2,3)              0.0691         estimate D2E/DX2                !
 ! D2    D(5,1,2,31)          -179.9361         estimate D2E/DX2                !
 ! D3    D(30,1,2,3)          -179.9542         estimate D2E/DX2                !
 ! D4    D(30,1,2,31)            0.0406         estimate D2E/DX2                !
 ! D5    D(2,1,5,4)             -0.2845         estimate D2E/DX2                !
 ! D6    D(2,1,5,32)           179.8648         estimate D2E/DX2                !
 ! D7    D(30,1,5,4)           179.7393         estimate D2E/DX2                !
 ! D8    D(30,1,5,32)           -0.1114         estimate D2E/DX2                !
 ! D9    D(1,2,3,4)              0.1224         estimate D2E/DX2                !
 ! D10   D(31,2,3,4)          -179.873          estimate D2E/DX2                !
 ! D11   D(2,3,4,5)             -0.2881         estimate D2E/DX2                !
 ! D12   D(2,3,4,6)            179.773          estimate D2E/DX2                !
 ! D13   D(3,4,5,1)              0.3738         estimate D2E/DX2                !
 ! D14   D(3,4,5,32)          -179.778          estimate D2E/DX2                !
 ! D15   D(6,4,5,1)           -179.6953         estimate D2E/DX2                !
 ! D16   D(6,4,5,32)             0.1529         estimate D2E/DX2                !
 ! D17   D(3,4,6,7)             -0.0623         estimate D2E/DX2                !
 ! D18   D(3,4,6,10)          -179.9983         estimate D2E/DX2                !
 ! D19   D(5,4,6,7)           -179.9892         estimate D2E/DX2                !
 ! D20   D(5,4,6,10)             0.0748         estimate D2E/DX2                !
 ! D21   D(4,6,7,8)            179.6758         estimate D2E/DX2                !
 ! D22   D(4,6,7,33)            -0.1543         estimate D2E/DX2                !
 ! D23   D(10,6,7,8)            -0.3801         estimate D2E/DX2                !
 ! D24   D(10,6,7,33)          179.7898         estimate D2E/DX2                !
 ! D25   D(4,6,10,9)          -179.6753         estimate D2E/DX2                !
 ! D26   D(4,6,10,11)            0.1756         estimate D2E/DX2                !
 ! D27   D(7,6,10,9)             0.376          estimate D2E/DX2                !
 ! D28   D(7,6,10,11)         -179.7731         estimate D2E/DX2                !
 ! D29   D(6,7,8,9)              0.2448         estimate D2E/DX2                !
 ! D30   D(6,7,8,34)          -179.7476         estimate D2E/DX2                !
 ! D31   D(33,7,8,9)          -179.925          estimate D2E/DX2                !
 ! D32   D(33,7,8,34)            0.0826         estimate D2E/DX2                !
 ! D33   D(7,8,9,10)            -0.0158         estimate D2E/DX2                !
 ! D34   D(7,8,9,12)          -179.9707         estimate D2E/DX2                !
 ! D35   D(34,8,9,10)          179.977          estimate D2E/DX2                !
 ! D36   D(34,8,9,12)            0.0221         estimate D2E/DX2                !
 ! D37   D(8,9,10,6)            -0.2269         estimate D2E/DX2                !
 ! D38   D(8,9,10,11)          179.9174         estimate D2E/DX2                !
 ! D39   D(12,9,10,6)          179.732          estimate D2E/DX2                !
 ! D40   D(12,9,10,11)          -0.1237         estimate D2E/DX2                !
 ! D41   D(8,9,12,13)            0.107          estimate D2E/DX2                !
 ! D42   D(8,9,12,29)          179.9629         estimate D2E/DX2                !
 ! D43   D(10,9,12,13)        -179.8422         estimate D2E/DX2                !
 ! D44   D(10,9,12,29)           0.0137         estimate D2E/DX2                !
 ! D45   D(9,12,13,14)         179.9313         estimate D2E/DX2                !
 ! D46   D(29,12,13,14)          0.0753         estimate D2E/DX2                !
 ! D47   D(9,12,29,25)        -179.6693         estimate D2E/DX2                !
 ! D48   D(9,12,29,28)           0.33           estimate D2E/DX2                !
 ! D49   D(13,12,29,25)          0.1837         estimate D2E/DX2                !
 ! D50   D(13,12,29,28)       -179.817          estimate D2E/DX2                !
 ! D51   D(12,13,14,15)         -0.1471         estimate D2E/DX2                !
 ! D52   D(12,13,14,35)        179.8841         estimate D2E/DX2                !
 ! D53   D(13,14,15,16)       -179.9475         estimate D2E/DX2                !
 ! D54   D(13,14,15,25)         -0.0584         estimate D2E/DX2                !
 ! D55   D(35,14,15,16)          0.0188         estimate D2E/DX2                !
 ! D56   D(35,14,15,25)        179.9079         estimate D2E/DX2                !
 ! D57   D(14,15,16,17)          0.8405         estimate D2E/DX2                !
 ! D58   D(14,15,16,24)       -179.0906         estimate D2E/DX2                !
 ! D59   D(25,15,16,17)       -179.0344         estimate D2E/DX2                !
 ! D60   D(25,15,16,24)          1.0345         estimate D2E/DX2                !
 ! D61   D(14,15,25,26)       -179.4043         estimate D2E/DX2                !
 ! D62   D(14,15,25,29)          0.3251         estimate D2E/DX2                !
 ! D63   D(16,15,25,26)          0.4815         estimate D2E/DX2                !
 ! D64   D(16,15,25,29)       -179.7891         estimate D2E/DX2                !
 ! D65   D(15,16,17,18)        179.865          estimate D2E/DX2                !
 ! D66   D(24,16,17,18)         -0.1969         estimate D2E/DX2                !
 ! D67   D(15,16,24,20)       -179.5465         estimate D2E/DX2                !
 ! D68   D(15,16,24,23)          0.7448         estimate D2E/DX2                !
 ! D69   D(17,16,24,20)          0.5216         estimate D2E/DX2                !
 ! D70   D(17,16,24,23)       -179.187          estimate D2E/DX2                !
 ! D71   D(16,17,18,19)         -0.2291         estimate D2E/DX2                !
 ! D72   D(16,17,18,36)        179.7827         estimate D2E/DX2                !
 ! D73   D(17,18,19,20)          0.2793         estimate D2E/DX2                !
 ! D74   D(17,18,19,37)       -179.8821         estimate D2E/DX2                !
 ! D75   D(36,18,19,20)       -179.733          estimate D2E/DX2                !
 ! D76   D(36,18,19,37)          0.1055         estimate D2E/DX2                !
 ! D77   D(18,19,20,21)       -179.9255         estimate D2E/DX2                !
 ! D78   D(18,19,20,24)          0.0781         estimate D2E/DX2                !
 ! D79   D(37,19,20,21)          0.2313         estimate D2E/DX2                !
 ! D80   D(37,19,20,24)       -179.7651         estimate D2E/DX2                !
 ! D81   D(19,20,21,22)       -179.8984         estimate D2E/DX2                !
 ! D82   D(24,20,21,22)          0.0983         estimate D2E/DX2                !
 ! D83   D(19,20,24,16)         -0.48           estimate D2E/DX2                !
 ! D84   D(19,20,24,23)        179.2808         estimate D2E/DX2                !
 ! D85   D(21,20,24,16)        179.5232         estimate D2E/DX2                !
 ! D86   D(21,20,24,23)         -0.716          estimate D2E/DX2                !
 ! D87   D(20,21,22,23)          0.4181         estimate D2E/DX2                !
 ! D88   D(21,22,23,24)         -0.8568         estimate D2E/DX2                !
 ! D89   D(22,23,24,16)       -179.2907         estimate D2E/DX2                !
 ! D90   D(22,23,24,20)          0.9783         estimate D2E/DX2                !
 ! D91   D(15,25,26,27)       -179.322          estimate D2E/DX2                !
 ! D92   D(29,25,26,27)          0.9224         estimate D2E/DX2                !
 ! D93   D(15,25,29,12)         -0.4001         estimate D2E/DX2                !
 ! D94   D(15,25,29,28)        179.6006         estimate D2E/DX2                !
 ! D95   D(26,25,29,12)        179.378          estimate D2E/DX2                !
 ! D96   D(26,25,29,28)         -0.6213         estimate D2E/DX2                !
 ! D97   D(25,26,27,28)         -0.848          estimate D2E/DX2                !
 ! D98   D(26,27,28,29)          0.4527         estimate D2E/DX2                !
 ! D99   D(27,28,29,12)       -179.9745         estimate D2E/DX2                !
 ! D100  D(27,28,29,25)          0.0248         estimate D2E/DX2                !
 --------------------------------------------------------------------------------
 Trust Radius=3.00D-01 FncErr=1.00D-07 GrdErr=1.00D-06
 Number of steps in this run=    218 maximum allowed number of steps=    222.
 GradGradGradGradGradGradGradGradGradGradGradGradGradGradGradGradGradGrad

                          Input orientation:                          
 ---------------------------------------------------------------------
 Center     Atomic      Atomic             Coordinates (Angstroms)
 Number     Number       Type             X           Y           Z
 ---------------------------------------------------------------------
      1          6           0       -1.279100    0.068900   -0.000110
      2          6           0       -0.630580    1.281410    0.000930
      3         16           0        1.055030    1.116260    0.001420
      4          6           0        0.947940   -0.590800   -0.003410
      5          6           0       -0.365100   -1.027550    0.001080
      6          6           0        2.149020   -1.353010   -0.009800
      7          6           0        3.469120   -0.932100   -0.014150
      8          6           0        4.294750   -2.065070   -0.012310
      9          6           0        3.460070   -3.159670   -0.012490
     10          7           0        2.169500   -2.706340   -0.014020
     11          1           0        1.353540   -3.323640   -0.015690
     12          6           0        3.779230   -4.543240   -0.010510
     13          7           0        5.079760   -4.907640   -0.005820
     14          6           0        5.404540   -6.229440   -0.002440
     15          6           0        4.522530   -7.329150   -0.000330
     16          6           0        4.989590   -8.701980    0.004380
     17          7           0        6.356260   -8.909330    0.024810
     18          6           0        6.890130  -10.169380    0.033480
     19          6           0        6.193610  -11.370250    0.028270
     20          6           0        4.801670  -11.215480    0.006130
     21          7           0        3.916550  -12.226590   -0.001420
     22         16           0        2.411010  -11.549140   -0.031170
     23          7           0        2.841470   -9.978570   -0.046850
     24          6           0        4.173660   -9.869170   -0.011450
     25          6           0        3.153030   -6.930790   -0.000780
     26          7           0        2.050300   -7.689030    0.011540
     27         16           0        0.707730   -6.770060   -0.013080
     28          7           0        1.431170   -5.297110   -0.018100
     29          6           0        2.765490   -5.512640   -0.010330
     30          1           0       -2.356490   -0.025770   -0.001280
     31          1           0       -1.045100    2.275320    0.001370
     32          1           0       -0.674480   -2.067490    0.002670
     33          1           0        3.804570    0.091840   -0.015660
     34          1           0        5.373340   -2.111290   -0.010870
     35          1           0        6.486970   -6.382050   -0.000860
     36          1           0        7.979640  -10.186540    0.045900
     37          1           0        6.656860  -12.342010    0.037360
 ---------------------------------------------------------------------
                    Distance matrix (angstroms):
                    1          2          3          4          5
     1  C    0.000000
     2  C    1.375049   0.000000
     3  S    2.558345   1.693681   0.000000
     4  C    2.322697   2.448860   1.710423   0.000000
     5  C    1.427445   2.324172   2.571515   1.383779   0.000000
     6  C    3.711324   3.829681   2.700784   1.422532   2.535122
     7  C    4.852607   4.659119   3.166047   2.544199   3.835438
     8  C    5.968398   5.954660   4.540576   3.657142   4.773974
     9  C    5.734418   6.037946   4.905914   3.593045   4.379275
    10  N    4.426623   4.872661   3.981778   2.442914   3.040191
    11  H    4.294224   5.014329   4.449957   2.762802   2.868106
    12  C    6.845338   7.305690   6.281031   4.861896   5.434674
    13  N    8.074719   8.420948   7.244714   5.975538   6.685929
    14  C    9.183689   9.635121   8.536836   7.187179   7.768424
    15  C    9.401599  10.034754   9.129540   7.627782   7.974904
    16  C   10.780762  11.456631  10.577268   9.062353   9.357863
    17  N   11.785922  12.355877  11.340901   9.922130  10.358557
    18  C   13.098085  13.699735  12.704924  11.272097  11.671010
    19  C   13.663687  14.374798  13.502543  11.988102  12.246994
    20  C   12.818465  13.626505  12.888334  11.301998  11.423198
    21  N   13.348178  14.252805  13.646243  12.008508  11.989622
    22  S   12.190026  13.186179  12.737822  11.055612  10.881713
    23  N   10.859693  11.783232  11.237836   9.576929   9.508162
    24  C   11.335694  12.141512  11.419531   9.823110   9.938548
    25  C    8.284892   9.041899   8.316046   6.712518   6.872080
    26  N    8.442187   9.362480   8.861365   7.183334   7.085872
    27  S    7.121730   8.161951   7.893977   6.183935   5.841882
    28  N    6.011651   6.894063   6.424420   4.731076   4.632073
    29  C    6.892924   7.595560   6.846030   5.246718   5.469621
    30  H    1.081542   2.165061   3.597598   3.352390   2.229171
    31  H    2.218794   1.076886   2.398743   3.490971   3.372143
    32  H    2.220301   3.349188   3.623185   2.193832   1.084986
    33  H    5.083746   4.591939   2.934229   2.937087   4.317344
    34  H    7.000593   6.896202   5.391199   4.679328   5.839891
    35  H   10.095870  10.458879   9.259084   8.013703   8.696064
    36  H   13.816672  14.340564  13.255395  11.896447  12.390472
    37  H   14.731312  15.450103  14.577614  13.064623  13.316390
                    6          7          8          9         10
     6  C    0.000000
     7  C    1.385586   0.000000
     8  C    2.260795   1.401888   0.000000
     9  C    2.232236   2.227589   1.376532   0.000000
    10  N    1.353492   2.199304   2.219891   1.367875   0.000000
    11  H    2.125137   3.192984   3.199176   2.112904   1.023158
    12  C    3.582618   3.624433   2.531223   1.419906   2.442426
    13  N    4.607022   4.289423   2.948981   2.383032   3.649028
    14  C    5.863278   5.639840   4.309723   3.633807   4.783080
    15  C    6.430232   6.483218   5.269019   4.302735   5.187226
    16  C    7.878858   7.917273   6.673204   5.749514   6.625779
    17  N    8.648702   8.483708   7.148083   6.438004   7.483819
    18  C   10.010413   9.850529   8.509873   7.804067   8.830831
    19  C   10.803021  10.787939   9.497036   8.653758   9.552936
    20  C   10.212988  10.369378   9.164459   8.166781   8.906974
    21  N   11.016305  11.303356  10.168561   9.078410   9.679230
    22  S   10.199518  10.669650   9.669354   8.454826   8.846114
    23  N    8.653389   9.068276   8.045912   6.846988   7.303284
    24  C    8.753522   8.964798   7.805039   6.747340   7.437930
    25  C    5.667429   6.007027   4.997888   3.783617   4.337451
    26  N    6.336825   6.904333   6.055332   4.743747   4.984181
    27  S    5.605511   6.458100   5.916388   4.539856   4.318633
    28  N    4.008903   4.817320   4.318125   2.947052   2.693926
    29  C    4.205063   4.634270   3.771522   2.453347   2.868891
    30  H    4.696941   5.895705   6.956857   6.607104   5.260247
    31  H    4.833974   5.537686   6.881364   7.059452   5.928813
    32  H    2.912523   4.296372   4.969253   4.276399   2.914898
    33  H    2.197378   1.077489   2.211911   3.269711   3.240875
    34  H    3.312285   2.239766   1.079581   2.181675   3.258632
    35  H    6.641471   6.229731   4.841722   4.421085   5.670235
    36  H   10.584445  10.295293   8.918524   8.355048   9.471785
    37  H   11.877751  11.846957  10.545024   9.723030  10.629449
                   11         12         13         14         15
    11  H    0.000000
    12  C    2.715036   0.000000
    13  N    4.048934   1.350625   0.000000
    14  C    4.985424   2.342001   1.361120   0.000000
    15  C    5.107528   2.883382   2.484803   1.409719   0.000000
    16  C    6.492134   4.331318   3.795425   2.507127   1.450114
    17  N    7.498585   5.070017   4.200466   2.843998   2.420778
    18  C    8.804567   6.429081   5.564611   4.210866   3.697780
    19  C    9.390215   7.241464   6.557984   5.201106   4.373078
    20  C    8.612271   6.750144   6.313978   5.022362   3.896347
    21  N    9.264542   7.684582   7.410810   6.178990   4.934788
    22  S    8.293210   7.138283   7.157681   6.104200   4.718875
    23  N    6.819311   5.515753   5.543100   4.541726   3.138081
    24  C    7.127205   5.340516   5.043593   3.842236   2.563891
    25  C    4.031119   2.468323   2.793824   2.358218   1.426261
    26  N    4.420729   3.589663   4.112671   3.658077   2.498315
    27  S    3.506407   3.793790   4.752190   4.727833   3.855573
    28  N    1.974998   2.466123   3.669339   4.081318   3.699461
    29  C    2.604871   1.402642   2.392047   2.734675   2.527251
    30  H    4.963917   7.619362   8.895532   9.935749  10.032960
    31  H    6.091151   8.352668   9.439750  10.673744  11.101547
    32  H    2.385606   5.095591   6.416993   7.367248   7.395538
    33  H    4.203933   4.635152   5.159555   6.520633   7.455655
    34  H    4.198644   2.907846   2.811723   4.118277   5.286781
    35  H    5.975466   3.273098   2.038173   1.093136   2.180831
    36  H    9.539832   7.035159   6.023186   4.721453   4.485357
    37  H   10.462266   8.312873   7.599932   6.239664   5.448445
                   16         17         18         19         20
    16  C    0.000000
    17  N    1.382461   0.000000
    18  C    2.401283   1.368510   0.000000
    19  C    2.927439   2.466292   1.388256   0.000000
    20  C    2.520516   2.781264   2.335966   1.400693   0.000000
    21  N    3.684335   4.117898   3.616007   2.432941   1.343815
    22  S    3.841440   4.747286   4.687263   3.787294   2.414120
    23  N    2.499345   3.674528   4.053950   3.630325   2.318434
    24  C    1.424193   2.384607   2.733378   2.516946   1.485684
    25  C    2.551488   3.765097   4.945256   5.380964   4.590929
    26  N    3.108946   4.475556   5.438435   5.542443   4.472797
    27  S    4.697547   6.040182   7.055467   7.159493   6.043383
    28  N    4.925038   6.107904   7.317234   7.717902   6.810871
    29  C    3.888281   4.942911   6.220916   6.787127   6.055467
    30  H   11.368445  12.443084  13.725670  14.205714  13.283408
    31  H   12.526716  13.411826  14.759386  15.446722  14.703279
    32  H    8.723425   9.810330  11.084444  11.563419  10.661799
    33  H    8.873328   9.355951  10.715210  11.708499  11.351219
    34  H    6.601870   6.868825   8.199722   9.295306   9.122136
    35  H    2.761204   2.530788   3.808882   4.996904   5.118821
    36  H    3.338569   2.065689   1.089716   2.142751   3.340628
    37  H    4.003835   3.445839   2.185120   1.076569   2.170662
                   21         22         23         24         25
    21  N    0.000000
    22  S    1.651204   0.000000
    23  N    2.492279   1.628567   0.000000
    24  C    2.371421   2.435082   1.337143   0.000000
    25  C    5.350557   4.677678   3.064010   3.110607   0.000000
    26  N    4.906374   3.877162   2.423087   3.043386   1.338317
    27  S    6.330117   5.073568   3.853378   4.649425   2.450608
    28  N    7.361731   6.328360   4.889360   5.331513   2.373607
    29  C    6.811912   6.046935   4.466726   4.578460   1.470180
    30  H   13.719003  12.470686  11.228495  11.812514   8.833692
    31  H   15.327210  14.249963  12.855566  13.218330  10.118140
    32  H   11.148313   9.971112   8.657340   9.185362   6.188823
    33  H   12.318947  11.724106  10.116407   9.967847   7.052805
    34  H   10.219668   9.891856   8.264730   7.850091   5.306360
    35  H    6.384803   6.581276   5.121205   4.184677   3.378797
    36  H    4.546729   5.733433   5.143213   3.819620   5.822220
    37  H    2.743014   4.319790   4.488891   3.504797   6.446672
                   26         27         28         29         30
    26  N    0.000000
    27  S    1.627147   0.000000
    28  N    2.470927   1.641028   0.000000
    29  C    2.290993   2.411532   1.351637   0.000000
    30  H    8.839995   7.407768   6.491046   7.506031   0.000000
    31  H   10.434073   9.213659   7.967056   8.670240   2.648540
    32  H    6.247097   4.901522   3.855469   4.868534   2.645334
    33  H    7.976223   7.528353   5.888448   5.699992   6.162199
    34  H    6.492633   6.593334   5.068551   4.286031   8.006232
    35  H    4.625191   5.792263   5.170929   3.821698  10.890780
    36  H    6.433958   8.034705   8.172703   7.002561  14.494104
    37  H    6.547617   8.151154   8.771632   7.860364  15.262101
                   31         32         33         34         35
    31  H    0.000000
    32  H    4.358596   0.000000
    33  H    5.318569   4.972417   0.000000
    34  H    7.774244   6.047994   2.704597   0.000000
    35  H   11.475284   8.360730   7.007620   4.413577   0.000000
    36  H   15.386548  11.866534  11.094147   8.485616   4.087101
    37  H   16.522343  12.622025  12.756920  10.311032   5.962503
                   36         37
    36  H    0.000000
    37  H    2.529006   0.000000
 Stoichiometry    C18H9N7S3
 Framework group  C1[X(C18H9N7S3)]
 Deg. of freedom   105
 Full point group                 C1      NOp   1
 Largest Abelian subgroup         C1      NOp   1
 Largest concise Abelian subgroup C1      NOp   1
                         Standard orientation:                         
 ---------------------------------------------------------------------
 Center     Atomic      Atomic             Coordinates (Angstroms)
 Number     Number       Type             X           Y           Z
 ---------------------------------------------------------------------
      1          6           0        6.738638   -2.120105   -0.016054
      2          6           0        7.683139   -1.120771   -0.012666
      3         16           0        6.992332    0.425610   -0.005874
      4          6           0        5.407193   -0.216943   -0.003695
      5          6           0        5.409054   -1.600678   -0.014578
      6          6           0        4.303648    0.680648    0.007063
      7          6           0        4.284526    2.066060    0.017817
      8          6           0        2.948308    2.490102    0.018204
      9          6           0        2.174634    1.351575    0.013279
     10          7           0        3.013580    0.271187    0.009649
     11          1           0        2.686674   -0.698337    0.006906
     12          6           0        0.761233    1.215842    0.010954
     13          7           0        0.003476    2.333873    0.011581
     14          6           0       -1.353120    2.223051    0.007961
     15          6           0       -2.116642    1.038025    0.000529
     16          6           0       -3.566728    1.045984   -0.003854
     17          7           0       -4.196491    2.276586   -0.018473
     18          6           0       -5.560782    2.383669   -0.026376
     19          6           0       -6.479031    1.342479   -0.025792
     20          6           0       -5.891128    0.071239   -0.009643
     21          7           0       -6.569629   -1.088704   -0.007316
     22         16           0       -5.449985   -2.302087    0.016605
     23          7           0       -4.096773   -1.396182    0.036199
     24          6           0       -4.415189   -0.097836    0.006861
     25          6           0       -1.304821   -0.134639   -0.004602
     26          7           0       -1.674528   -1.420748   -0.022789
     27         16           0       -0.377458   -2.403002   -0.002967
     28          7           0        0.790318   -1.250107    0.007146
     29          6           0        0.163050   -0.052837    0.005033
     30          1           0        6.990272   -3.171960   -0.019794
     31          1           0        8.757183   -1.198953   -0.013682
     32          1           0        4.520755   -2.223656   -0.018869
     33          1           0        5.149388    2.708694    0.022123
     34          1           0        2.562666    3.498449    0.021499
     35          1           0       -1.840886    3.201326    0.010998
     36          1           0       -5.922325    3.411633   -0.033974
     37          1           0       -7.547511    1.473943   -0.034061
 ---------------------------------------------------------------------
 Rotational constants (GHZ):      0.4548428      0.0601455      0.0531221
 Standard basis: 6-31++G(d,p) (6D, 7F)
 There are   598 symmetry adapted basis functions of A   symmetry.
 Integral buffers will be    131072 words long.
 Raffenetti 2 integral format.
 Two-electron integral symmetry is turned on.
   598 basis functions,  1040 primitive gaussians,   598 cartesian basis functions
   107 alpha electrons      107 beta electrons
       nuclear repulsion energy      2758.8839460271 Hartrees.
 NAtoms=   37 NActive=   37 NUniq=   37 SFac= 1.00D+00 NAtFMM=   60 NAOKFM=F Big=F
 One-electron integrals computed using PRISM.
 NBasis=   598 RedAO= T  NBF=   598
 NBsUse=   591 1.00D-06 NBFU=   591
 Harris functional with IExCor=  402 diagonalized for initial guess.
 ExpMin= 3.60D-02 ExpMax= 2.19D+04 ExpMxC= 3.30D+03 IAcc=3 IRadAn=         5 AccDes= 0.00D+00
 HarFok:  IExCor=  402 AccDes= 0.00D+00 IRadAn=         5 IDoV= 1
 ScaDFX=  1.000000  1.000000  1.000000  1.000000
 FoFCou: FMM=F IPFlag=           0 FMFlag=      100000 FMFlg1=           0
         NFxFlg=           0 DoJE=T BraDBF=F KetDBF=T FulRan=T
         Omega=  0.000000  0.000000  1.000000  0.000000  0.000000 ICntrl=     500 IOpCl=  0
         NMat0=    1 NMatS0=    1 NMatT0=    0 NMatD0=    1 NMtDS0=    0 NMtDT0=    0
         I1Cent=           4 NGrid=           0.
 Petite list used in FoFCou.
 Initial guess orbital symmetries:
       Occupied  (A) (A) (A) (A) (A) (A) (A) (A) (A) (A) (A) (A)
                 (A) (A) (A) (A) (A) (A) (A) (A) (A) (A) (A) (A)
                 (A) (A) (A) (A) (A) (A) (A) (A) (A) (A) (A) (A)
                 (A) (A) (A) (A) (A) (A) (A) (A) (A) (A) (A) (A)
                 (A) (A) (A) (A) (A) (A) (A) (A) (A) (A) (A) (A)
                 (A) (A) (A) (A) (A) (A) (A) (A) (A) (A) (A) (A)
                 (A) (A) (A) (A) (A) (A) (A) (A) (A) (A) (A) (A)
                 (A) (A) (A) (A) (A) (A) (A) (A) (A) (A) (A) (A)
                 (A) (A) (A) (A) (A) (A) (A) (A) (A) (A) (A)
       Virtual   (A) (A) (A) (A) (A) (A) (A) (A) (A) (A) (A) (A)
                 (A) (A) (A) (A) (A) (A) (A) (A) (A) (A) (A) (A)
                 (A) (A) (A) (A) (A) (A) (A) (A) (A) (A) (A) (A)
                 (A) (A) (A) (A) (A) (A) (A) (A) (A) (A) (A) (A)
                 (A) (A) (A) (A) (A) (A) (A) (A) (A) (A) (A) (A)
                 (A) (A) (A) (A) (A) (A) (A) (A) (A) (A) (A) (A)
                 (A) (A) (A) (A) (A) (A) (A) (A) (A) (A) (A) (A)
                 (A) (A) (A) (A) (A) (A) (A) (A) (A) (A) (A) (A)
                 (A) (A) (A) (A) (A) (A) (A) (A) (A) (A) (A) (A)
                 (A) (A) (A) (A) (A) (A) (A) (A) (A) (A) (A) (A)
                 (A) (A) (A) (A) (A) (A) (A) (A) (A) (A) (A) (A)
                 (A) (A) (A) (A) (A) (A) (A) (A) (A) (A) (A) (A)
                 (A) (A) (A) (A) (A) (A) (A) (A) (A) (A) (A) (A)
                 (A) (A) (A) (A) (A) (A) (A) (A) (A) (A) (A) (A)
                 (A) (A) (A) (A) (A) (A) (A) (A) (A) (A) (A) (A)
                 (A) (A) (A) (A) (A) (A) (A) (A) (A) (A) (A) (A)
                 (A) (A) (A) (A) (A) (A) (A) (A) (A) (A) (A) (A)
                 (A) (A) (A) (A) (A) (A) (A) (A) (A) (A) (A) (A)
                 (A) (A) (A) (A) (A) (A) (A) (A) (A) (A) (A) (A)
                 (A) (A) (A) (A) (A) (A) (A) (A) (A) (A) (A) (A)
                 (A) (A) (A) (A) (A) (A) (A) (A) (A) (A) (A) (A)
                 (A) (A) (A) (A) (A) (A) (A) (A) (A) (A) (A) (A)
                 (A) (A) (A) (A) (A) (A) (A) (A) (A) (A) (A) (A)
                 (A) (A) (A) (A) (A) (A) (A) (A) (A) (A) (A) (A)
                 (A) (A) (A) (A) (A) (A) (A) (A) (A) (A) (A) (A)
                 (A) (A) (A) (A) (A) (A) (A) (A) (A) (A) (A) (A)
                 (A) (A) (A) (A) (A) (A) (A) (A) (A) (A) (A) (A)
                 (A) (A) (A) (A) (A) (A) (A) (A) (A) (A) (A) (A)
                 (A) (A) (A) (A) (A) (A) (A) (A) (A) (A) (A) (A)
                 (A) (A) (A) (A) (A) (A) (A) (A) (A) (A) (A) (A)
                 (A) (A) (A) (A) (A) (A) (A) (A) (A) (A) (A) (A)
                 (A) (A) (A) (A) (A) (A) (A) (A) (A) (A) (A) (A)
                 (A) (A) (A) (A) (A) (A) (A) (A) (A) (A) (A) (A)
                 (A) (A) (A) (A) (A) (A) (A) (A) (A) (A) (A) (A)
                 (A) (A) (A) (A) (A) (A) (A) (A) (A) (A) (A) (A)
                 (A) (A) (A) (A) (A) (A) (A) (A) (A) (A) (A) (A)
                 (A) (A) (A) (A) (A) (A) (A) (A) (A) (A) (A) (A)
                 (A) (A) (A) (A) (A) (A) (A) (A) (A) (A) (A) (A)
                 (A) (A) (A) (A) (A) (A) (A) (A) (A) (A) (A) (A)
                 (A) (A) (A) (A) (A) (A) (A) (A) (A) (A) (A) (A)
                 (A) (A) (A) (A)
 The electronic state of the initial guess is 1-A.
 Requested convergence on RMS density matrix=1.00D-08 within 128 cycles.
 Requested convergence on MAX density matrix=1.00D-06.
 Requested convergence on             energy=1.00D-06.
 No special actions if energy rises.
 EnCoef did     2 forward-backward iterations
 EnCoef did     2 forward-backward iterations
 EnCoef did     3 forward-backward iterations
 EnCoef did     2 forward-backward iterations
 Restarting incremental Fock formation.
 SCF Done:  E(RB3LYP) =  -2269.13814490     A.U. after   25 cycles
             Convg  =    0.4437D-08             -V/T =  2.0061

 **********************************************************************

            Population analysis using the SCF density.

 **********************************************************************

 Orbital symmetries:
       Occupied  (A) (A) (A) (A) (A) (A) (A) (A) (A) (A) (A) (A)
                 (A) (A) (A) (A) (A) (A) (A) (A) (A) (A) (A) (A)
                 (A) (A) (A) (A) (A) (A) (A) (A) (A) (A) (A) (A)
                 (A) (A) (A) (A) (A) (A) (A) (A) (A) (A) (A) (A)
                 (A) (A) (A) (A) (A) (A) (A) (A) (A) (A) (A) (A)
                 (A) (A) (A) (A) (A) (A) (A) (A) (A) (A) (A) (A)
                 (A) (A) (A) (A) (A) (A) (A) (A) (A) (A) (A) (A)
                 (A) (A) (A) (A) (A) (A) (A) (A) (A) (A) (A) (A)
                 (A) (A) (A) (A) (A) (A) (A) (A) (A) (A) (A)
       Virtual   (A) (A) (A) (A) (A) (A) (A) (A) (A) (A) (A) (A)
                 (A) (A) (A) (A) (A) (A) (A) (A) (A) (A) (A) (A)
                 (A) (A) (A) (A) (A) (A) (A) (A) (A) (A) (A) (A)
                 (A) (A) (A) (A) (A) (A) (A) (A) (A) (A) (A) (A)
                 (A) (A) (A) (A) (A) (A) (A) (A) (A) (A) (A) (A)
                 (A) (A) (A) (A) (A) (A) (A) (A) (A) (A) (A) (A)
                 (A) (A) (A) (A) (A) (A) (A) (A) (A) (A) (A) (A)
                 (A) (A) (A) (A) (A) (A) (A) (A) (A) (A) (A) (A)
                 (A) (A) (A) (A) (A) (A) (A) (A) (A) (A) (A) (A)
                 (A) (A) (A) (A) (A) (A) (A) (A) (A) (A) (A) (A)
                 (A) (A) (A) (A) (A) (A) (A) (A) (A) (A) (A) (A)
                 (A) (A) (A) (A) (A) (A) (A) (A) (A) (A) (A) (A)
                 (A) (A) (A) (A) (A) (A) (A) (A) (A) (A) (A) (A)
                 (A) (A) (A) (A) (A) (A) (A) (A) (A) (A) (A) (A)
                 (A) (A) (A) (A) (A) (A) (A) (A) (A) (A) (A) (A)
                 (A) (A) (A) (A) (A) (A) (A) (A) (A) (A) (A) (A)
                 (A) (A) (A) (A) (A) (A) (A) (A) (A) (A) (A) (A)
                 (A) (A) (A) (A) (A) (A) (A) (A) (A) (A) (A) (A)
                 (A) (A) (A) (A) (A) (A) (A) (A) (A) (A) (A) (A)
                 (A) (A) (A) (A) (A) (A) (A) (A) (A) (A) (A) (A)
                 (A) (A) (A) (A) (A) (A) (A) (A) (A) (A) (A) (A)
                 (A) (A) (A) (A) (A) (A) (A) (A) (A) (A) (A) (A)
                 (A) (A) (A) (A) (A) (A) (A) (A) (A) (A) (A) (A)
                 (A) (A) (A) (A) (A) (A) (A) (A) (A) (A) (A) (A)
                 (A) (A) (A) (A) (A) (A) (A) (A) (A) (A) (A) (A)
                 (A) (A) (A) (A) (A) (A) (A) (A) (A) (A) (A) (A)
                 (A) (A) (A) (A) (A) (A) (A) (A) (A) (A) (A) (A)
                 (A) (A) (A) (A) (A) (A) (A) (A) (A) (A) (A) (A)
                 (A) (A) (A) (A) (A) (A) (A) (A) (A) (A) (A) (A)
                 (A) (A) (A) (A) (A) (A) (A) (A) (A) (A) (A) (A)
                 (A) (A) (A) (A) (A) (A) (A) (A) (A) (A) (A) (A)
                 (A) (A) (A) (A) (A) (A) (A) (A) (A) (A) (A) (A)
                 (A) (A) (A) (A) (A) (A) (A) (A) (A) (A) (A) (A)
                 (A) (A) (A) (A) (A) (A) (A) (A) (A) (A) (A) (A)
                 (A) (A) (A) (A) (A) (A) (A) (A) (A) (A) (A) (A)
                 (A) (A) (A) (A) (A) (A) (A) (A) (A) (A) (A) (A)
                 (A) (A) (A) (A) (A) (A) (A) (A) (A) (A) (A) (A)
                 (A) (A) (A) (A) (A) (A) (A) (A) (A) (A) (A) (A)
                 (A) (A) (A) (A) (A) (A) (A) (A) (A) (A) (A) (A)
                 (A) (A) (A) (A) (A) (A) (A) (A) (A) (A) (A) (A)
                 (A) (A) (A) (A)
 The electronic state is 1-A.
 Alpha  occ. eigenvalues --  -88.99794 -88.98559 -88.92910 -14.39644 -14.39351
 Alpha  occ. eigenvalues --  -14.37755 -14.37558 -14.37453 -14.35177 -14.35133
 Alpha  occ. eigenvalues --  -10.26827 -10.26738 -10.26431 -10.26141 -10.25867
 Alpha  occ. eigenvalues --  -10.25525 -10.24670 -10.24500 -10.24156 -10.24012
 Alpha  occ. eigenvalues --  -10.23253 -10.23086 -10.22933 -10.21563 -10.21395
 Alpha  occ. eigenvalues --  -10.21181 -10.19668 -10.19502  -8.05042  -8.03854
 Alpha  occ. eigenvalues --   -7.98999  -6.01619  -6.01014  -6.00805  -6.00414
 Alpha  occ. eigenvalues --   -5.99816  -5.99633  -5.95408  -5.95024  -5.94718
 Alpha  occ. eigenvalues --   -1.03982  -1.02542  -1.01261  -0.95658  -0.94237
 Alpha  occ. eigenvalues --   -0.91202  -0.90853  -0.89670  -0.82851  -0.81545
 Alpha  occ. eigenvalues --   -0.80507  -0.80117  -0.78797  -0.76405  -0.75798
 Alpha  occ. eigenvalues --   -0.72604  -0.68959  -0.67311  -0.65379  -0.64001
 Alpha  occ. eigenvalues --   -0.63027  -0.61561  -0.60508  -0.60369  -0.57558
 Alpha  occ. eigenvalues --   -0.56437  -0.54799  -0.54052  -0.53048  -0.52099
 Alpha  occ. eigenvalues --   -0.51001  -0.48940  -0.48144  -0.47848  -0.47339
 Alpha  occ. eigenvalues --   -0.46137  -0.46074  -0.44913  -0.44540  -0.42634
 Alpha  occ. eigenvalues --   -0.42261  -0.42060  -0.41300  -0.41020  -0.40850
 Alpha  occ. eigenvalues --   -0.40224  -0.40066  -0.39427  -0.39067  -0.38379
 Alpha  occ. eigenvalues --   -0.36532  -0.36101  -0.34869  -0.34479  -0.33720
 Alpha  occ. eigenvalues --   -0.32470  -0.30192  -0.29768  -0.28706  -0.28592
 Alpha  occ. eigenvalues --   -0.27759  -0.27549  -0.27183  -0.26743  -0.26127
 Alpha  occ. eigenvalues --   -0.24122  -0.20120
 Alpha virt. eigenvalues --   -0.12609  -0.09637  -0.05535  -0.03634  -0.02744
 Alpha virt. eigenvalues --   -0.02606  -0.01320  -0.01044  -0.00827  -0.00270
 Alpha virt. eigenvalues --    0.00242   0.00493   0.00665   0.00839   0.01311
 Alpha virt. eigenvalues --    0.01989   0.02083   0.02227   0.02649   0.03352
 Alpha virt. eigenvalues --    0.03377   0.03465   0.03625   0.04535   0.04683
 Alpha virt. eigenvalues --    0.05034   0.05678   0.05903   0.06022   0.06607
 Alpha virt. eigenvalues --    0.06638   0.07025   0.07071   0.07995   0.08258
 Alpha virt. eigenvalues --    0.08315   0.08642   0.08893   0.09068   0.09821
 Alpha virt. eigenvalues --    0.09946   0.10202   0.10403   0.10653   0.10765
 Alpha virt. eigenvalues --    0.11277   0.11377   0.11609   0.11644   0.11734
 Alpha virt. eigenvalues --    0.11983   0.12419   0.12495   0.12856   0.13011
 Alpha virt. eigenvalues --    0.13228   0.13458   0.13583   0.14077   0.14116
 Alpha virt. eigenvalues --    0.14372   0.14680   0.14857   0.15155   0.15335
 Alpha virt. eigenvalues --    0.15776   0.15921   0.16239   0.16958   0.17070
 Alpha virt. eigenvalues --    0.17221   0.17681   0.17690   0.18021   0.18142
 Alpha virt. eigenvalues --    0.18539   0.18880   0.18905   0.19313   0.19580
 Alpha virt. eigenvalues --    0.19699   0.20200   0.20491   0.20551   0.20640
 Alpha virt. eigenvalues --    0.21097   0.21730   0.21947   0.22072   0.22277
 Alpha virt. eigenvalues --    0.22568   0.22665   0.23130   0.23343   0.23506
 Alpha virt. eigenvalues --    0.24012   0.24217   0.24304   0.25003   0.25051
 Alpha virt. eigenvalues --    0.25155   0.25368   0.25640   0.26047   0.26104
 Alpha virt. eigenvalues --    0.26136   0.26388   0.26796   0.27488   0.27525
 Alpha virt. eigenvalues --    0.27869   0.28032   0.28058   0.28361   0.28637
 Alpha virt. eigenvalues --    0.28715   0.29285   0.29469   0.30033   0.30288
 Alpha virt. eigenvalues --    0.30948   0.30979   0.31129   0.31430   0.32162
 Alpha virt. eigenvalues --    0.32618   0.32679   0.32820   0.33125   0.33371
 Alpha virt. eigenvalues --    0.34283   0.34469   0.34699   0.35012   0.35395
 Alpha virt. eigenvalues --    0.35808   0.36192   0.36861   0.37052   0.37131
 Alpha virt. eigenvalues --    0.37928   0.38438   0.38916   0.39350   0.39733
 Alpha virt. eigenvalues --    0.39862   0.40639   0.40821   0.41119   0.41972
 Alpha virt. eigenvalues --    0.42476   0.43984   0.44511   0.45631   0.46224
 Alpha virt. eigenvalues --    0.46556   0.47304   0.47468   0.48046   0.48206
 Alpha virt. eigenvalues --    0.49268   0.49509   0.50921   0.51682   0.51910
 Alpha virt. eigenvalues --    0.52120   0.52522   0.54089   0.54645   0.56791
 Alpha virt. eigenvalues --    0.58521   0.58787   0.60370   0.61689   0.63211
 Alpha virt. eigenvalues --    0.63612   0.64476   0.64884   0.65203   0.65826
 Alpha virt. eigenvalues --    0.66350   0.66738   0.67341   0.67906   0.68565
 Alpha virt. eigenvalues --    0.69409   0.69623   0.69805   0.70312   0.70474
 Alpha virt. eigenvalues --    0.70917   0.71342   0.71667   0.72021   0.72245
 Alpha virt. eigenvalues --    0.73617   0.73840   0.74461   0.74662   0.75427
 Alpha virt. eigenvalues --    0.75570   0.75706   0.76345   0.77731   0.77891
 Alpha virt. eigenvalues --    0.78162   0.78568   0.79786   0.80629   0.81318
 Alpha virt. eigenvalues --    0.81963   0.82479   0.82553   0.83337   0.83634
 Alpha virt. eigenvalues --    0.84402   0.86047   0.87892   0.87966   0.90763
 Alpha virt. eigenvalues --    0.91981   0.92219   0.93438   0.93704   0.94529
 Alpha virt. eigenvalues --    0.95213   0.95594   0.96205   0.96972   0.97183
 Alpha virt. eigenvalues --    0.98176   0.98372   0.98577   0.99601   1.00177
 Alpha virt. eigenvalues --    1.00500   1.01252   1.01425   1.01895   1.03019
 Alpha virt. eigenvalues --    1.03143   1.03306   1.04036   1.05229   1.05650
 Alpha virt. eigenvalues --    1.06457   1.07398   1.08821   1.09216   1.10786
 Alpha virt. eigenvalues --    1.10807   1.11093   1.11441   1.11853   1.12266
 Alpha virt. eigenvalues --    1.13234   1.14177   1.14827   1.16094   1.16757
 Alpha virt. eigenvalues --    1.17292   1.18530   1.19147   1.19732   1.20301
 Alpha virt. eigenvalues --    1.20826   1.21149   1.22151   1.22408   1.22572
 Alpha virt. eigenvalues --    1.22715   1.23586   1.25334   1.25807   1.26826
 Alpha virt. eigenvalues --    1.27592   1.27887   1.28118   1.28316   1.29221
 Alpha virt. eigenvalues --    1.30725   1.31352   1.31867   1.32074   1.32850
 Alpha virt. eigenvalues --    1.33074   1.33205   1.33863   1.34623   1.35102
 Alpha virt. eigenvalues --    1.35458   1.35678   1.35984   1.36906   1.37187
 Alpha virt. eigenvalues --    1.38817   1.40158   1.41556   1.42760   1.42919
 Alpha virt. eigenvalues --    1.44138   1.45562   1.47383   1.47733   1.50667
 Alpha virt. eigenvalues --    1.53125   1.53506   1.54924   1.55399   1.56846
 Alpha virt. eigenvalues --    1.56881   1.61012   1.62590   1.66778   1.67507
 Alpha virt. eigenvalues --    1.69546   1.69752   1.69988   1.70588   1.72083
 Alpha virt. eigenvalues --    1.74107   1.74293   1.75526   1.76029   1.76654
 Alpha virt. eigenvalues --    1.78741   1.80125   1.80648   1.81830   1.82999
 Alpha virt. eigenvalues --    1.83685   1.84731   1.85785   1.85883   1.86296
 Alpha virt. eigenvalues --    1.86736   1.88101   1.88479   1.89271   1.90224
 Alpha virt. eigenvalues --    1.90278   1.91536   1.92624   1.93287   1.94036
 Alpha virt. eigenvalues --    1.94934   1.94949   1.96230   1.97182   1.97585
 Alpha virt. eigenvalues --    1.99061   1.99605   2.02380   2.02888   2.06380
 Alpha virt. eigenvalues --    2.06895   2.09306   2.09417   2.10839   2.13135
 Alpha virt. eigenvalues --    2.13715   2.14598   2.16313   2.16567   2.18050
 Alpha virt. eigenvalues --    2.20561   2.20758   2.22391   2.23861   2.26043
 Alpha virt. eigenvalues --    2.27136   2.27584   2.28582   2.29128   2.29450
 Alpha virt. eigenvalues --    2.30464   2.31898   2.32820   2.34473   2.34617
 Alpha virt. eigenvalues --    2.35482   2.36397   2.39553   2.39953   2.40983
 Alpha virt. eigenvalues --    2.41932   2.43146   2.43562   2.44169   2.44242
 Alpha virt. eigenvalues --    2.45228   2.45899   2.46190   2.47496   2.47575
 Alpha virt. eigenvalues --    2.48956   2.49451   2.50335   2.51356   2.51922
 Alpha virt. eigenvalues --    2.52782   2.54050   2.54483   2.56716   2.58351
 Alpha virt. eigenvalues --    2.59239   2.59838   2.60835   2.61360   2.63758
 Alpha virt. eigenvalues --    2.64253   2.66080   2.67252   2.68048   2.68635
 Alpha virt. eigenvalues --    2.69283   2.71044   2.71574   2.74175   2.74986
 Alpha virt. eigenvalues --    2.75687   2.76382   2.78060   2.79962   2.82202
 Alpha virt. eigenvalues --    2.84294   2.85336   2.86576   2.87723   2.89625
 Alpha virt. eigenvalues --    2.92252   2.94512   2.97206   2.99472   3.00563
 Alpha virt. eigenvalues --    3.03446   3.04758   3.06893   3.10245   3.10695
 Alpha virt. eigenvalues --    3.12925   3.16404   3.22432   3.27328   3.30190
 Alpha virt. eigenvalues --    3.31295   3.33870   3.35321   3.37417   3.41107
 Alpha virt. eigenvalues --    3.45150   3.57035   3.65833   3.72099   3.75195
 Alpha virt. eigenvalues --    3.77790   3.96063   3.98761   3.99372   4.16566
 Alpha virt. eigenvalues --    4.17931   4.27350   4.30096   4.31298   4.31709
 Alpha virt. eigenvalues --    4.32599   4.33411   4.36261   4.38755   4.39416
 Alpha virt. eigenvalues --    4.44142   4.46691   4.47700   4.48905   4.54145
 Alpha virt. eigenvalues --    4.57236   4.59286   4.64761   4.65418   4.67424
 Alpha virt. eigenvalues --    4.74091   4.80857   4.83199   4.90897
          Condensed to atoms (all electrons):
              1          2          3          4          5          6
     1  C    8.580783  -0.554222   0.467128   1.463008  -3.725429  -0.125955
     2  C   -0.554222   5.946463  -0.035229  -0.853337   1.261697   0.071126
     3  S    0.467128  -0.035229  16.122150   0.744355  -1.267286   0.180913
     4  C    1.463008  -0.853337   0.744355   9.209953  -3.232412  -0.050609
     5  C   -3.725429   1.261697  -1.267286  -3.232412  12.393931  -0.018872
     6  C   -0.125955   0.071126   0.180913  -0.050609  -0.018872  10.972350
     7  C    0.159345  -0.174446  -0.182474  -0.857333   0.329765  -1.357465
     8  C   -0.128302   0.018964  -0.267755  -0.593633   0.527697  -2.635933
     9  C    0.223999  -0.039930   0.195839   0.907136  -0.743409  -1.494643
    10  N   -0.050225   0.001063   0.052697  -0.098274  -0.111596  -0.302339
    11  H   -0.172060   0.018144  -0.001714   0.028262  -0.039025  -0.081436
    12  C    0.021998  -0.027745   0.020621   0.056171  -0.133948   0.276173
    13  N    0.000249   0.000082   0.001549   0.012183  -0.002668  -0.005012
    14  C    0.002208  -0.001603   0.002240  -0.030300  -0.013361   0.247541
    15  C   -0.002281   0.000972  -0.000963   0.015982   0.011761  -0.093628
    16  C   -0.000371   0.000111  -0.000283   0.003505   0.000746  -0.039747
    17  N    0.000000  -0.000000   0.000001  -0.000013  -0.000001  -0.000086
    18  C   -0.000002   0.000000  -0.000002   0.000018  -0.000011  -0.000104
    19  C    0.000001   0.000000   0.000000   0.000002   0.000015  -0.000275
    20  C    0.000002  -0.000000   0.000002   0.000023   0.000050   0.000530
    21  N    0.000000  -0.000000  -0.000000  -0.000001  -0.000000   0.000006
    22  S    0.000000   0.000000  -0.000001  -0.000007   0.000003  -0.000117
    23  N   -0.000002  -0.000001   0.000005   0.000035  -0.000094   0.000197
    24  C    0.000079   0.000009  -0.000107  -0.001393   0.001655  -0.000407
    25  C   -0.002518   0.002919  -0.006482  -0.072365   0.031137  -0.090993
    26  N    0.001010  -0.000277   0.000195  -0.002392  -0.000876   0.035204
    27  S    0.008271  -0.001740   0.000442  -0.010139  -0.001322  -0.024592
    28  N    0.012668  -0.006995   0.003581  -0.042206  -0.024912  -0.038471
    29  C    0.026865   0.021453  -0.046807  -0.218274   0.190279   1.143144
    30  H    0.448126  -0.103602   0.043509   0.084173  -0.194665   0.006749
    31  H   -0.083686   0.340339  -0.029297  -0.018397   0.067848   0.009337
    32  H   -0.042047   0.054275   0.024856  -0.205225   0.483941  -0.034072
    33  H    0.002032  -0.005328   0.018408  -0.084878  -0.012222  -0.123749
    34  H   -0.005539   0.002954  -0.006924  -0.004086   0.014764  -0.052911
    35  H    0.000013  -0.000018  -0.000004  -0.000926  -0.000021   0.005226
    36  H   -0.000000   0.000000  -0.000000   0.000001   0.000000   0.000022
    37  H    0.000000   0.000000   0.000000  -0.000000   0.000000  -0.000005
              7          8          9         10         11         12
     1  C    0.159345  -0.128302   0.223999  -0.050225  -0.172060   0.021998
     2  C   -0.174446   0.018964  -0.039930   0.001063   0.018144  -0.027745
     3  S   -0.182474  -0.267755   0.195839   0.052697  -0.001714   0.020621
     4  C   -0.857333  -0.593633   0.907136  -0.098274   0.028262   0.056171
     5  C    0.329765   0.527697  -0.743409  -0.111596  -0.039025  -0.133948
     6  C   -1.357465  -2.635933  -1.494643  -0.302339  -0.081436   0.276173
     7  C   10.723353   1.068039  -0.405412  -0.173246   0.007249   0.343452
     8  C    1.068039   8.785576   0.255212  -0.003836   0.055607   0.164931
     9  C   -0.405412   0.255212  14.462840  -0.174768  -0.088746   4.353329
    10  N   -0.173246  -0.003836  -0.174768   7.196032   0.310501  -0.345365
    11  H    0.007249   0.055607  -0.088746   0.310501   0.680767   0.017172
    12  C    0.343452   0.164931   4.353329  -0.345365   0.017172  16.268111
    13  N    0.068984   0.038302  -0.213630   0.007604   0.009650   0.340348
    14  C    0.074101   0.095632   1.319421  -0.129560   0.056789   0.283447
    15  C   -0.021988  -0.000355   0.304767   0.048363  -0.017077   1.645839
    16  C    0.000970   0.026587   0.134444   0.013488   0.005444   1.358964
    17  N    0.000463   0.002315  -0.004998  -0.000329  -0.000167  -0.011582
    18  C   -0.000238  -0.002863   0.003214   0.000164   0.000303   0.043280
    19  C   -0.000006   0.001969  -0.013058   0.000080  -0.000455  -0.065813
    20  C    0.002111   0.001516   0.064640  -0.001014  -0.002314   0.325872
    21  N   -0.000007  -0.000070  -0.000714   0.000001  -0.000028  -0.009941
    22  S   -0.000047  -0.000427  -0.004917   0.000049   0.000042  -0.031699
    23  N   -0.000356   0.001405  -0.003565  -0.000754   0.000585  -0.024555
    24  C   -0.005037  -0.079819  -0.420191   0.005279  -0.027717  -1.394165
    25  C   -0.321690  -0.249497  -3.379975   0.177276  -0.070848  -7.814249
    26  N   -0.007058  -0.026073  -0.055185  -0.017590  -0.008001   0.122891
    27  S    0.003121   0.006753   0.031433  -0.041634  -0.047310  -0.139271
    28  N    0.201110   0.088626  -0.270143   0.033728   0.105708  -0.299727
    29  C   -3.352502  -1.752146  -8.821057   0.546437  -0.343188  -8.367803
    30  H    0.001356  -0.000690   0.006330   0.000740   0.003678   0.000677
    31  H   -0.002907   0.002179   0.001581  -0.000114   0.001226  -0.000764
    32  H   -0.017673  -0.004536  -0.027381   0.010547  -0.071513  -0.004472
    33  H    0.523070  -0.015929  -0.070974   0.044051   0.011389   0.002873
    34  H   -0.182604   0.488614  -0.114342   0.037573   0.003213   0.000168
    35  H   -0.008212  -0.017808  -0.024828  -0.000763  -0.001072  -0.084903
    36  H   -0.000031  -0.000315   0.000365   0.000014   0.000000   0.000446
    37  H    0.000002   0.000027  -0.000099  -0.000000  -0.000005  -0.001040
             13         14         15         16         17         18
     1  C    0.000249   0.002208  -0.002281  -0.000371   0.000000  -0.000002
     2  C    0.000082  -0.001603   0.000972   0.000111  -0.000000   0.000000
     3  S    0.001549   0.002240  -0.000963  -0.000283   0.000001  -0.000002
     4  C    0.012183  -0.030300   0.015982   0.003505  -0.000013   0.000018
     5  C   -0.002668  -0.013361   0.011761   0.000746  -0.000001  -0.000011
     6  C   -0.005012   0.247541  -0.093628  -0.039747  -0.000086  -0.000104
     7  C    0.068984   0.074101  -0.021988   0.000970   0.000463  -0.000238
     8  C    0.038302   0.095632  -0.000355   0.026587   0.002315  -0.002863
     9  C   -0.213630   1.319421   0.304767   0.134444  -0.004998   0.003214
    10  N    0.007604  -0.129560   0.048363   0.013488  -0.000329   0.000164
    11  H    0.009650   0.056789  -0.017077   0.005444  -0.000167   0.000303
    12  C    0.340348   0.283447   1.645839   1.358964  -0.011582   0.043280
    13  N    7.261759  -0.646368   0.457243   0.053685  -0.006013  -0.004336
    14  C   -0.646368  17.224383  -3.954285  -0.563835  -0.061286  -0.325580
    15  C    0.457243  -3.954285  17.147072   5.823178  -0.356717  -0.173683
    16  C    0.053685  -0.563835   5.823178  17.029460   0.168936  -1.693866
    17  N   -0.006013  -0.061286  -0.356717   0.168936   7.127508  -0.316677
    18  C   -0.004336  -0.325580  -0.173683  -1.693866  -0.316677   8.117330
    19  C   -0.005030   0.018406  -0.618686   1.590488   0.415070  -4.507840
    20  C   -0.006568  -0.085419  -2.998440  -5.323263  -0.198873   3.477763
    21  N    0.000176  -0.010712   0.118422   0.124484  -0.003270   0.067230
    22  S    0.000875  -0.057727  -0.144439  -0.256797   0.010029  -0.044872
    23  N    0.005115   0.120505   0.152504  -0.488261   0.013161   0.092318
    24  C    0.035277  -4.840422  -5.555708  -7.246628   0.397851   0.786415
    25  C   -0.015542  -1.628928  -3.434020  -3.153530   0.083741  -0.074593
    26  N   -0.006835  -0.029951  -0.562919  -0.306328   0.009979   0.015840
    27  S    0.004313  -0.003516  -0.122296  -0.124350   0.000856   0.001660
    28  N    0.018515  -0.033543  -0.233363  -0.010261   0.001727  -0.003552
    29  C   -0.042399  -2.041028  -0.425454  -0.083711  -0.013701   0.051413
    30  H    0.000005   0.000066  -0.000068  -0.000004   0.000000   0.000000
    31  H   -0.000002  -0.000036   0.000016   0.000002  -0.000000   0.000000
    32  H   -0.000512  -0.003757   0.003117   0.000172   0.000000  -0.000001
    33  H   -0.000425   0.000943   0.001702   0.000085   0.000003   0.000008
    34  H   -0.022921  -0.016202  -0.001863   0.000548   0.000072  -0.000199
    35  H   -0.151568   0.772104  -0.376248  -0.100198  -0.021323   0.003513
    36  H    0.000233  -0.032227  -0.013227  -0.072636  -0.134601   0.614045
    37  H   -0.000024   0.001359   0.002034   0.089389   0.020748  -0.270960
             19         20         21         22         23         24
     1  C    0.000001   0.000002   0.000000   0.000000  -0.000002   0.000079
     2  C    0.000000  -0.000000  -0.000000   0.000000  -0.000001   0.000009
     3  S    0.000000   0.000002  -0.000000  -0.000001   0.000005  -0.000107
     4  C    0.000002   0.000023  -0.000001  -0.000007   0.000035  -0.001393
     5  C    0.000015   0.000050  -0.000000   0.000003  -0.000094   0.001655
     6  C   -0.000275   0.000530   0.000006  -0.000117   0.000197  -0.000407
     7  C   -0.000006   0.002111  -0.000007  -0.000047  -0.000356  -0.005037
     8  C    0.001969   0.001516  -0.000070  -0.000427   0.001405  -0.079819
     9  C   -0.013058   0.064640  -0.000714  -0.004917  -0.003565  -0.420191
    10  N    0.000080  -0.001014   0.000001   0.000049  -0.000754   0.005279
    11  H   -0.000455  -0.002314  -0.000028   0.000042   0.000585  -0.027717
    12  C   -0.065813   0.325872  -0.009941  -0.031699  -0.024555  -1.394165
    13  N   -0.005030  -0.006568   0.000176   0.000875   0.005115   0.035277
    14  C    0.018406  -0.085419  -0.010712  -0.057727   0.120505  -4.840422
    15  C   -0.618686  -2.998440   0.118422  -0.144439   0.152504  -5.555708
    16  C    1.590488  -5.323263   0.124484  -0.256797  -0.488261  -7.246628
    17  N    0.415070  -0.198873  -0.003270   0.010029   0.013161   0.397851
    18  C   -4.507840   3.477763   0.067230  -0.044872   0.092318   0.786415
    19  C   20.235838  -7.910993  -0.766867  -0.064748  -0.103238  -2.677637
    20  C   -7.910993  20.385976  -0.152168  -0.137004   0.688049  -2.397722
    21  N   -0.766867  -0.152168   7.497705   0.037140  -0.162666   0.715065
    22  S   -0.064748  -0.137004   0.037140  15.655236  -0.084494   0.126646
    23  N   -0.103238   0.688049  -0.162666  -0.084494   8.080054  -0.574622
    24  C   -2.677637  -2.397722   0.715065   0.126646  -0.574622  23.461515
    25  C    0.294077  -0.308544   0.009520   0.108156   0.129466   3.888159
    26  N    0.062452   0.276330  -0.019633   0.024768  -0.227234   0.369878
    27  S    0.004367   0.033634   0.000791  -0.016772   0.017573   0.174534
    28  N    0.009633  -0.002896  -0.000586   0.002157  -0.032244   0.061322
    29  C   -0.089547   0.289918  -0.009011   0.001781  -0.081224   0.502872
    30  H   -0.000000  -0.000000   0.000000   0.000000   0.000000  -0.000003
    31  H    0.000000  -0.000000  -0.000000   0.000000  -0.000000   0.000000
    32  H    0.000011   0.000082  -0.000001  -0.000013  -0.000110   0.001032
    33  H   -0.000003   0.000009   0.000000   0.000000  -0.000002   0.000044
    34  H    0.000170  -0.000400   0.000001  -0.000002   0.000069  -0.000870
    35  H   -0.002153   0.007308  -0.000103  -0.000774  -0.003286  -0.025733
    36  H   -0.422228   0.204961  -0.000501   0.000279   0.002502   0.056667
    37  H    0.715623  -0.255244  -0.028588  -0.001686  -0.007881  -0.007326
             25         26         27         28         29         30
     1  C   -0.002518   0.001010   0.008271   0.012668   0.026865   0.448126
     2  C    0.002919  -0.000277  -0.001740  -0.006995   0.021453  -0.103602
     3  S   -0.006482   0.000195   0.000442   0.003581  -0.046807   0.043509
     4  C   -0.072365  -0.002392  -0.010139  -0.042206  -0.218274   0.084173
     5  C    0.031137  -0.000876  -0.001322  -0.024912   0.190279  -0.194665
     6  C   -0.090993   0.035204  -0.024592  -0.038471   1.143144   0.006749
     7  C   -0.321690  -0.007058   0.003121   0.201110  -3.352502   0.001356
     8  C   -0.249497  -0.026073   0.006753   0.088626  -1.752146  -0.000690
     9  C   -3.379975  -0.055185   0.031433  -0.270143  -8.821057   0.006330
    10  N    0.177276  -0.017590  -0.041634   0.033728   0.546437   0.000740
    11  H   -0.070848  -0.008001  -0.047310   0.105708  -0.343188   0.003678
    12  C   -7.814249   0.122891  -0.139271  -0.299727  -8.367803   0.000677
    13  N   -0.015542  -0.006835   0.004313   0.018515  -0.042399   0.000005
    14  C   -1.628928  -0.029951  -0.003516  -0.033543  -2.041028   0.000066
    15  C   -3.434020  -0.562919  -0.122296  -0.233363  -0.425454  -0.000068
    16  C   -3.153530  -0.306328  -0.124350  -0.010261  -0.083711  -0.000004
    17  N    0.083741   0.009979   0.000856   0.001727  -0.013701   0.000000
    18  C   -0.074593   0.015840   0.001660  -0.003552   0.051413   0.000000
    19  C    0.294077   0.062452   0.004367   0.009633  -0.089547  -0.000000
    20  C   -0.308544   0.276330   0.033634  -0.002896   0.289918  -0.000000
    21  N    0.009520  -0.019633   0.000791  -0.000586  -0.009011   0.000000
    22  S    0.108156   0.024768  -0.016772   0.002157   0.001781   0.000000
    23  N    0.129466  -0.227234   0.017573  -0.032244  -0.081224   0.000000
    24  C    3.888159   0.369878   0.174534   0.061322   0.502872  -0.000003
    25  C   16.097163   0.027038  -0.256897   0.613925   4.716634  -0.000137
    26  N    0.027038   7.829445   0.014112  -0.195628   0.166790   0.000026
    27  S   -0.256897   0.014112  15.803093  -0.228236  -0.093709   0.000361
    28  N    0.613925  -0.195628  -0.228236   7.853113  -0.146001   0.000516
    29  C    4.716634   0.166790  -0.093709  -0.146001  23.911634  -0.002350
    30  H   -0.000137   0.000026   0.000361   0.000516  -0.002350   0.619138
    31  H    0.000052  -0.000004  -0.000039  -0.000117   0.000364  -0.006996
    32  H    0.001351  -0.001125  -0.005732  -0.012194   0.060932  -0.028983
    33  H   -0.000110  -0.000124   0.000015   0.003456  -0.054572   0.000337
    34  H    0.017611   0.000286  -0.000317  -0.002231   0.086031  -0.000058
    35  H    0.085038   0.001278   0.002128   0.000218   0.073102  -0.000000
    36  H    0.004653   0.000335   0.000149  -0.000090   0.001150  -0.000000
    37  H   -0.001331   0.001001   0.000009   0.000057  -0.000624   0.000000
             31         32         33         34         35         36
     1  C   -0.083686  -0.042047   0.002032  -0.005539   0.000013  -0.000000
     2  C    0.340339   0.054275  -0.005328   0.002954  -0.000018   0.000000
     3  S   -0.029297   0.024856   0.018408  -0.006924  -0.000004  -0.000000
     4  C   -0.018397  -0.205225  -0.084878  -0.004086  -0.000926   0.000001
     5  C    0.067848   0.483941  -0.012222   0.014764  -0.000021   0.000000
     6  C    0.009337  -0.034072  -0.123749  -0.052911   0.005226   0.000022
     7  C   -0.002907  -0.017673   0.523070  -0.182604  -0.008212  -0.000031
     8  C    0.002179  -0.004536  -0.015929   0.488614  -0.017808  -0.000315
     9  C    0.001581  -0.027381  -0.070974  -0.114342  -0.024828   0.000365
    10  N   -0.000114   0.010547   0.044051   0.037573  -0.000763   0.000014
    11  H    0.001226  -0.071513   0.011389   0.003213  -0.001072   0.000000
    12  C   -0.000764  -0.004472   0.002873   0.000168  -0.084903   0.000446
    13  N   -0.000002  -0.000512  -0.000425  -0.022921  -0.151568   0.000233
    14  C   -0.000036  -0.003757   0.000943  -0.016202   0.772104  -0.032227
    15  C    0.000016   0.003117   0.001702  -0.001863  -0.376248  -0.013227
    16  C    0.000002   0.000172   0.000085   0.000548  -0.100198  -0.072636
    17  N   -0.000000   0.000000   0.000003   0.000072  -0.021323  -0.134601
    18  C    0.000000  -0.000001   0.000008  -0.000199   0.003513   0.614045
    19  C    0.000000   0.000011  -0.000003   0.000170  -0.002153  -0.422228
    20  C   -0.000000   0.000082   0.000009  -0.000400   0.007308   0.204961
    21  N   -0.000000  -0.000001   0.000000   0.000001  -0.000103  -0.000501
    22  S    0.000000  -0.000013   0.000000  -0.000002  -0.000774   0.000279
    23  N   -0.000000  -0.000110  -0.000002   0.000069  -0.003286   0.002502
    24  C    0.000000   0.001032   0.000044  -0.000870  -0.025733   0.056667
    25  C    0.000052   0.001351  -0.000110   0.017611   0.085038   0.004653
    26  N   -0.000004  -0.001125  -0.000124   0.000286   0.001278   0.000335
    27  S   -0.000039  -0.005732   0.000015  -0.000317   0.002128   0.000149
    28  N   -0.000117  -0.012194   0.003456  -0.002231   0.000218  -0.000090
    29  C    0.000364   0.060932  -0.054572   0.086031   0.073102   0.001150
    30  H   -0.006996  -0.028983   0.000337  -0.000058  -0.000000  -0.000000
    31  H    0.520416  -0.003383  -0.000152   0.000087  -0.000000   0.000000
    32  H   -0.003383   0.760039  -0.002490   0.000313   0.000045   0.000000
    33  H   -0.000152  -0.002490   0.637633  -0.003186   0.000030   0.000001
    34  H    0.000087   0.000313  -0.003186   0.584238  -0.001076  -0.000014
    35  H   -0.000000   0.000045   0.000030  -0.001076   0.618588  -0.002227
    36  H    0.000000   0.000000   0.000001  -0.000014  -0.002227   0.662489
    37  H    0.000000   0.000000   0.000000   0.000002  -0.000073  -0.023935
             37
     1  C    0.000000
     2  C    0.000000
     3  S    0.000000
     4  C   -0.000000
     5  C    0.000000
     6  C   -0.000005
     7  C    0.000002
     8  C    0.000027
     9  C   -0.000099
    10  N   -0.000000
    11  H   -0.000005
    12  C   -0.001040
    13  N   -0.000024
    14  C    0.001359
    15  C    0.002034
    16  C    0.089389
    17  N    0.020748
    18  C   -0.270960
    19  C    0.715623
    20  C   -0.255244
    21  N   -0.028588
    22  S   -0.001686
    23  N   -0.007881
    24  C   -0.007326
    25  C   -0.001331
    26  N    0.001001
    27  S    0.000009
    28  N    0.000057
    29  C   -0.000624
    30  H    0.000000
    31  H    0.000000
    32  H    0.000000
    33  H    0.000000
    34  H    0.000002
    35  H   -0.000073
    36  H   -0.023935
    37  H    0.593614
 Mulliken atomic charges:
              1
     1  C   -0.525146
     2  C    0.063901
     3  S   -0.033164
     4  C   -0.148605
     5  C    0.206838
     6  C   -0.377098
     7  C   -0.435760
     8  C    0.150036
     9  C    0.107416
    10  N   -0.034278
    11  H    0.656948
    12  C   -0.889722
    13  N   -0.186294
    14  C    0.290504
    15  C   -0.625263
    16  C   -0.960617
    17  N   -0.122824
    18  C    0.144868
    19  C   -0.099627
    20  C    0.022086
    21  N   -0.405674
    22  S    0.879383
    23  N   -0.508951
    24  C    0.671208
    25  C    0.594334
    26  N   -0.491624
    27  S    1.010256
    28  N   -0.426661
    29  C    0.194311
    30  H    0.121769
    31  H    0.202447
    32  H    0.064505
    33  H    0.128056
    34  H    0.179033
    35  H    0.254728
    36  H    0.153723
    37  H    0.174959
 Sum of Mulliken atomic charges =  -0.00000
 Mulliken charges with hydrogens summed into heavy atoms:
              1
     1  C   -0.403377
     2  C    0.266348
     3  S   -0.033164
     4  C   -0.148605
     5  C    0.271343
     6  C   -0.377098
     7  C   -0.307704
     8  C    0.329069
     9  C    0.107416
    10  N    0.622669
    12  C   -0.889722
    13  N   -0.186294
    14  C    0.545232
    15  C   -0.625263
    16  C   -0.960617
    17  N   -0.122824
    18  C    0.298591
    19  C    0.075332
    20  C    0.022086
    21  N   -0.405674
    22  S    0.879383
    23  N   -0.508951
    24  C    0.671208
    25  C    0.594334
    26  N   -0.491624
    27  S    1.010256
    28  N   -0.426661
    29  C    0.194311
 Sum of Mulliken charges with hydrogens summed into heavy atoms =  -0.00000
 Electronic spatial extent (au):  <R**2>=          17986.4455
 Charge=             -0.0000 electrons
 Dipole moment (field-independent basis, Debye):
    X=              2.8805    Y=             -2.7501    Z=             -0.0016  Tot=              3.9825
 Quadrupole moment (field-independent basis, Debye-Ang):
   XX=           -165.2266   YY=           -171.7574   ZZ=           -184.9924
   XY=             -8.5094   XZ=             -0.0607   YZ=              0.0316
 Traceless Quadrupole moment (field-independent basis, Debye-Ang):
   XX=              8.7656   YY=              2.2347   ZZ=            -11.0003
   XY=             -8.5094   XZ=             -0.0607   YZ=              0.0316
 Octapole moment (field-independent basis, Debye-Ang**2):
[...]
 ,-0.00060669,-0.00047946,0.00019797,0.00004757,-0.00001295,0.00008060,
 -0.02535012,0.00289556,-0.08855690,-0.08740328,0.02184233,0.01218193,0
 .01610706,-0.00409720,-0.00300793,0.00408988,0.00086258,-0.00599315,-0
 .00173185,0.00202612,0.00086752,-0.00083290,0.00037982,0.00121328,0.00
 023656,-0.00003762,-0.00007076,-0.00006320,0.00005449,0.00003148,-0.00
 005787,-0.00001823,0.00000095,0.00004813,0.00000529,0.00002263,-0.0000
 4325,0.00000204,-0.00002226,0.00001116,-0.00001068,0.00000594,-0.00000
 345,0.00000934,-0.00000428,0.00000425,-0.00000350,0.00000169,0.0000018
 6,0.00000297,-0.00000419,0.00000269,-0.00000225,0.00000632,0.00000041,
 0.00000434,-0.00000319,-0.00000122,-0.00000305,0.00000076,0.00000966,-
 0.00000298,0.00006015,0.00001003,-0.00001580,0.00004243,-0.00004425,-0
 .00000603,0.00014296,0.00008699,-0.00004108,-0.00013571,-0.00029531,0.
 00007318,-0.00027254,0.00034424,-0.00008246,0.00002403,0.00006986,-0.0
 0003367,0.00008972,0.00000495,-0.00002658,0.00009656,0.00003591,-0.000
 04602,0.08314699,0.00016337,-0.00005774,-0.00003937,-0.00016755,0.0002
 5283,-0.00003265,0.00042401,-0.00015784,0.00008521,-0.00031351,-0.0003
 9780,-0.00018922,-0.00019217,0.00005936,0.00005276,0.00225608,-0.00003
 751,-0.00053748,-0.08901020,-0.31616451,0.05158279,-0.01118447,-0.0119
 2324,0.00367573,0.00269829,-0.00287481,0.00050623,0.00035517,0.0005767
 1,0.00028829,0.00017589,0.00024356,0.00023495,-0.00101755,0.00006753,0
 .00031989,0.00019228,-0.00006785,-0.00001499,-0.00004639,0.00010904,0.
 00000425,0.00000011,-0.00010526,0.00000020,-0.00004824,0.00013028,0.00
 000274,0.00005095,-0.00003540,0.00002437,-0.00002165,0.00000817,-0.000
 02352,0.00001669,-0.00001200,0.00000835,-0.00000970,-0.00000805,-0.000
 00457,0.00001922,-0.00002008,0.00000939,-0.00001991,0.00000497,-0.0000
 1034,0.00001821,0.00000374,0.00000213,-0.00001236,-0.00002730,-0.00000
 698,-0.00012446,-0.00001876,0.00001067,0.00002956,-0.00009148,0.000010
 17,-0.00005673,-0.00001477,0.00001392,0.00007068,0.00003542,-0.0000198
 2,0.00014323,-0.00031243,-0.00004907,0.00000063,0.00004046,-0.00000754
 ,0.00002102,-0.00000303,-0.00000316,0.00001884,0.00001082,-0.00000235,
 0.09537184,0.33020113,-0.00007346,0.00011551,-0.00005534,-0.00016651,-
 0.00022288,-0.00043772,0.00008227,0.00024590,0.00087651,-0.00071861,-0
 .00012904,-0.00205045,0.00020286,-0.00009123,-0.00019153,-0.00037309,0
 .00445940,-0.00156269,0.02202657,0.05075966,-0.03838957,-0.00066767,-0
 .00085830,0.00111650,0.00086098,0.00014309,0.00473838,0.00187289,0.000
 60232,0.00336762,0.00025350,0.00043411,0.00210316,0.00011479,0.0002209
 6,0.00117287,0.00005617,0.00000280,0.00013770,-0.00001062,0.00002236,-
 0.00007387,0.00000344,-0.00002318,0.00001802,-0.00000339,0.00001598,0.
 00002192,0.00000390,-0.00000462,-0.00000411,0.00000197,0.00000219,-0.0
 0000370,0.00000230,-0.00000302,0.00000099,-0.00000059,-0.00000014,0.00
 000294,0.00000112,0.00000128,-0.00000221,-0.00000473,-0.00000814,-0.00
 000023,0.00000534,0.00000542,-0.00000066,-0.00000388,-0.00000090,-0.00
 000940,-0.00001450,0.00001360,-0.00004614,-0.00001076,0.00001925,-0.00
 001748,-0.00002344,-0.00001940,0.00001906,0.00002748,0.00006151,-0.000
 00429,-0.00008360,-0.00011292,-0.00048950,0.00003587,0.00002539,0.0001
 1014,0.00000118,0.00000047,-0.00000614,-0.00000068,0.00000957,0.000039
 11,-0.02279694,-0.05540782,0.03250017,-0.00003566,-0.00000187,-0.00000
 119,-0.00002803,0.00002438,-0.00000164,0.00000838,-0.00003040,0.000013
 18,-0.00014705,-0.00027784,0.00026604,-0.00004957,0.00011517,-0.000094
 96,-0.00027609,0.00117965,0.00080481,-0.00500747,-0.00302775,0.0016175
 0,-0.35117662,0.02167070,0.05514416,-0.00878636,0.00484909,0.00107351,
 -0.00054774,-0.00162550,0.00093068,-0.00008246,0.00056459,0.00034058,-
 0.00103276,0.00049168,-0.00034893,0.00026590,0.00095230,-0.00013772,0.
 00039785,-0.00005260,-0.00013867,-0.00001424,0.00013584,-0.00001059,0.
 00004519,-0.00001914,0.00001834,-0.00001125,0.00000341,-0.00000818,0.0
 0001045,0.00000432,0.00000872,-0.00000782,0.00000172,-0.00000308,0.000
 00826,0.00000199,0.00000469,-0.00000550,0.00000919,-0.00000272,0.00000
 310,-0.00000519,0.00000184,-0.00000041,0.00000132,-0.00000318,-0.00001
 334,0.00001981,0.00000047,-0.00011140,0.00001228,0.00002118,0.00004177
 ,-0.00003112,0.00000278,0.00002762,0.00002964,-0.00000847,0.00006019,-
 0.00007748,-0.00002537,-0.00011032,-0.00015496,0.00003931,-0.00000863,
 0.00001435,0.00000580,-0.00000591,0.00000016,0.00000140,0.00003052,0.0
 0000526,-0.00000384,0.00012075,0.00018440,-0.00059897,0.36646689,0.000
 09629,0.00003381,-0.00007833,0.00006400,-0.00004921,-0.00000642,-0.000
 07154,0.00013225,-0.00002036,0.00086600,0.00114146,-0.00025050,0.00012
 784,-0.00035875,0.00006409,0.00274507,-0.00528735,0.00085775,0.0229726
 5,0.00624726,-0.00467562,0.02474074,-0.05872131,-0.00087939,-0.0213020
 3,0.00923516,0.00275149,-0.00408876,-0.00438945,0.00175932,-0.00088441
 ,0.00115346,0.00030733,0.00001296,0.00098575,-0.00047842,0.00020913,-0
 .00039477,0.00005836,0.00041092,-0.00021520,-0.00010906,0.00006998,0.0
 0019204,-0.00005433,0.00006665,-0.00005023,0.00000971,-0.00001359,0.00
 002194,-0.00001870,0.00002512,-0.00000939,0.00001401,-0.00001108,0.000
 00859,-0.00000471,0.00000872,0.00000691,0.00000942,-0.00001410,0.00002
 143,-0.00000681,0.00001343,-0.00000404,0.00000849,-0.00000653,-0.00000
 161,-0.00000705,-0.00000934,0.00002964,0.00001063,-0.00009137,0.000046
 95,0.00002194,0.00009604,-0.00003707,-0.00001034,0.00010445,0.00012425
 ,-0.00004188,0.00005554,-0.00009470,-0.00001112,-0.00010058,-0.0001157
 1,0.00003410,0.00002423,-0.00003439,0.00000188,0.00001249,0.00000532,-
 0.00000142,0.00003495,0.00003952,-0.00001742,-0.00112841,0.00060722,-0
 .00027872,-0.02500155,0.04975864,-0.00007724,0.00002050,-0.00015318,-0
 .00001500,-0.00003499,0.00001335,-0.00000426,-0.00001445,-0.00000691,0
 .00001519,0.00005123,0.00101883,-0.00003582,-0.00003523,-0.00026533,0.
 00065440,0.00105712,0.00461140,-0.00183553,-0.00003951,0.00211225,0.05
 467831,-0.00043439,-0.04126550,0.00463596,-0.00192532,0.00014684,0.001
 26972,0.00142887,0.00306711,0.00053360,0.00000978,0.00203003,-0.000284
 03,-0.00058064,-0.00248500,-0.00006922,-0.00004958,0.00033524,-0.00018
 549,-0.00000872,-0.00034988,-0.00000015,-0.00011558,0.00006886,-0.0000
 0755,0.00007389,0.00014355,0.00001664,-0.00002032,0.00000284,0.0000021
 5,0.00000424,-0.00001874,0.00000875,-0.00000458,0.00000322,0.00000820,
 -0.00000506,0.00000423,0.00000476,0.00000456,0.00000002,-0.00001871,-0
 .00001730,-0.00000838,0.00000623,0.00001256,0.00000015,-0.00001345,0.0
 0000920,-0.00002710,0.00001375,0.00000298,-0.00000627,-0.00001469,0.00
 002578,0.00004087,0.00000117,-0.00002194,0.00001094,-0.00003724,0.0000
 0017,-0.00011076,0.00003296,0.00002520,-0.00005930,0.00000478,0.000012
 88,0.00002463,0.00000383,0.00000483,0.00001114,0.00002087,0.00002862,0
 .00006908,-0.00041581,-0.00048409,-0.00287855,-0.05889725,0.00103501,0
 .03398090,0.00000316,0.00003405,-0.00001180,-0.00005789,0.00001908,0.0
 0001016,0.00001247,-0.00000892,-0.00000383,0.00001495,-0.00003665,0.00
 000194,0.00000572,-0.00000599,-0.00000151,0.00002660,0.00011817,-0.000
 01489,-0.00010617,0.00003007,0.00002049,0.00001097,-0.00004877,0.00000
 892,-0.00014969,0.00020091,0.00007401,0.00007804,-0.00002835,-0.000039
 27,0.00001332,-0.00000311,0.00000823,0.00253994,-0.00037952,0.00063115
 ,-0.00338961,0.00881045,-0.00068605,-0.32578990,0.04436376,0.04195461,
 -0.01567713,0.00372457,0.00320222,-0.00109076,0.00161439,-0.00122455,0
 .00099193,0.00102770,-0.00012092,0.00040121,-0.00023500,0.00008343,0.0
 0000786,0.00014913,0.00011122,-0.00014547,0.00003235,-0.00009980,0.000
 02680,0.00001413,0.00004875,0.00000018,0.00001348,-0.00000337,0.000120
 79,0.00000289,0.00000870,-0.00013941,-0.00046284,-0.00004764,-0.000488
 04,-0.00274877,0.00122299,-0.00075163,0.00035954,0.00020099,-0.0002004
 2,-0.00020714,-0.00007164,-0.00004135,0.00011447,-0.00004828,0.0003856
 8,-0.00035461,-0.00006088,-0.00000467,0.00000130,0.00000113,-0.0000013
 0,-0.00000039,0.00000306,0.00000666,-0.00000101,-0.00000157,-0.0000040
 5,0.00001079,0.00000028,-0.00002597,-0.00002943,0.00000406,0.34343853,
 -0.00000270,-0.00000584,0.00000317,0.00002466,-0.00001899,-0.00000415,
 0.00000068,-0.00000641,0.00000281,-0.00006817,0.00000337,0.00000341,0.
 00001493,0.00000127,-0.00000338,0.00015191,-0.00005394,-0.00000678,-0.
 00002406,-0.00005210,0.00002524,0.00000577,-0.00003346,0.00000544,0.00
 094541,0.00044542,-0.00016428,-0.00008576,-0.00035683,0.00003017,-0.00
 004418,-0.00003754,0.00001799,0.00296317,-0.00400750,0.00097353,0.0346
 9282,-0.01611814,-0.00383644,0.04426511,-0.06046613,-0.00688698,-0.021
 87672,0.00676963,0.00418644,-0.00182765,0.00079778,-0.00042715,-0.0000
 1970,-0.00010025,-0.00033141,0.00050980,-0.00041990,0.00000065,0.00006
 428,0.00022153,0.00011473,-0.00021575,0.00003034,-0.00010366,0.0000793
 3,0.00003052,0.00005166,0.00002485,0.00006387,0.00001956,0.00006676,-0
 .00004066,0.00004891,-0.00010332,-0.00012182,-0.00000644,-0.00191556,-
 0.00375828,0.00164292,-0.00119877,0.00057865,0.00030212,-0.00042309,-0
 .00005691,-0.00000662,0.00021500,0.00037827,-0.00014871,-0.00009640,-0
 .00091572,-0.00002616,0.00000248,-0.00000109,0.00000015,0.00000275,0.0
 0000076,-0.00000097,-0.00000385,-0.00000093,0.00000095,0.00000976,-0.0
 0001570,-0.00000113,0.00003031,-0.00003231,-0.00001717,-0.05614450,0.0
 7726730,-0.00000192,0.00000301,0.00000128,0.00000368,-0.00000778,-0.00
 000078,0.00000068,-0.00000048,0.00001165,-0.00002768,0.00001460,-0.000
 01120,0.00001203,0.00000024,-0.00001005,0.00000992,-0.00001895,-0.0000
 3005,-0.00000116,0.00001378,0.00005372,-0.00000930,-0.00002837,0.00004
 196,0.00004407,0.00007305,0.00052071,-0.00004473,-0.00000208,-0.000211
 14,0.00000699,0.00002736,0.00003365,0.00081980,0.00141711,0.00674758,-
 0.00358964,0.00011120,-0.00010644,0.04136731,-0.00555855,-0.04937341,0
 .00671353,-0.00267559,0.00669164,-0.00119546,0.00066089,-0.00327292,0.
 00029840,0.00065914,0.00026406,-0.00034770,-0.00025810,-0.00022089,0.0
 0018542,-0.00002419,0.00004808,-0.00020815,-0.00001058,-0.00002320,0.0
 0003475,0.00004156,-0.00000473,-0.00016323,-0.00022512,-0.00013566,0.0
 0022784,0.00005751,0.00004098,-0.00016513,-0.00038190,-0.00000535,0.00
 105934,0.00185069,0.00686398,0.00040361,0.00023317,0.00089342,-0.00017
 212,-0.00022920,-0.00129303,-0.00001679,-0.00004105,-0.00029511,-0.000
 07805,-0.00021233,-0.00031684,0.00000152,0.00000048,0.00000124,0.00000
 034,-0.00000009,-0.00000123,-0.00000189,0.00000081,0.00000289,-0.00000
 097,-0.00000248,-0.00000305,-0.00000863,0.00000750,-0.00006601,-0.0451
 4353,0.00449807,0.03314837,0.00000219,0.00003182,-0.00001034,-0.000046
 59,0.00001238,0.00001154,0.00001074,-0.00001022,-0.00000501,0.00000038
 ,-0.00002301,0.00001136,0.00001337,-0.00000552,-0.00000142,0.00005829,
 0.00008930,-0.00002758,-0.00009989,0.00003258,0.00001580,-0.00000918,-
 0.00009500,0.00001799,-0.00001105,0.00017912,-0.00003100,0.00005389,-0
 .00004950,0.00000209,0.00000800,-0.00000690,-0.00000150,0.00009357,-0.
 00017923,-0.00001101,-0.00015922,0.00017878,0.00005451,-0.00004433,-0.
 00015606,-0.00004078,-0.00019622,-0.00007916,-0.00029414,0.00279120,0.
 00146998,-0.00172420,-0.01096899,0.00933478,-0.00470482,-0.25742578,0.
 00433053,-0.13083263,-0.00580907,0.00248935,-0.00732445,0.00298433,-0.
 00136199,-0.00373774,-0.00024144,0.00020193,-0.00072110,-0.00050631,-0
 .00043613,0.00045361,-0.00003730,0.00007472,0.00021463,0.00016421,-0.0
 0014972,0.00021468,0.00015825,0.00010550,-0.00005459,-0.00005070,-0.00
 005086,0.00004234,-0.00000275,-0.00000563,-0.00001206,-0.00004748,0.00
 004402,0.00000262,0.00002338,0.00004965,0.00002410,-0.00000368,0.00000
 062,-0.00000023,-0.00000099,-0.00000037,0.00000162,0.00000448,-0.00000
 122,-0.00000229,-0.00000154,0.00000528,-0.00000074,-0.00000234,-0.0000
 0495,0.00000011,-0.00002172,-0.00001623,0.00001588,0.27009145,-0.00000
 107,-0.00001807,0.00000590,0.00002606,-0.00000601,-0.00000677,-0.00000
 575,0.00000542,0.00000269,0.00000135,0.00001160,-0.00000682,-0.0000087
 3,0.00000310,0.00000164,-0.00003393,-0.00005512,0.00001719,0.00006095,
 -0.00002283,-0.00000880,0.00000987,0.00005964,-0.00001601,0.00000505,-
 0.00011441,0.00001631,-0.00003893,0.00002901,0.00000194,-0.00000274,0.
 00000604,0.00000064,-0.00007145,0.00011350,0.00001011,0.00009636,-0.00
 015496,-0.00002540,0.00002069,0.00015586,-0.00006757,0.00076020,0.0002
 8818,0.00027022,0.00356570,-0.00361189,0.00041610,0.03167874,-0.009753
 60,0.01792677,0.00356713,-0.05373125,0.00017393,-0.02226879,0.00554556
 ,-0.01384837,-0.00068572,-0.00421845,-0.00260776,-0.00099594,0.0004897
 4,-0.00076316,-0.00047416,-0.00011172,-0.00013147,0.00006091,0.0003885
 5,0.00019825,0.00006031,-0.00093777,-0.00012126,-0.00009611,-0.0003365
 3,0.00006139,0.00002893,0.00004564,0.00000678,-0.00000223,-0.00000297,
 0.00000004,0.00004721,-0.00005405,-0.00000749,0.00003632,-0.00000446,-
 0.00004089,0.00000179,-0.00000048,0.00000004,0.00000041,0.00000023,-0.
 00000094,-0.00000219,0.00000073,0.00000089,0.00000190,-0.00000347,0.00
 000067,0.00000257,0.00000120,0.00000226,0.00002890,0.00000142,0.000047
 77,-0.01542968,0.06541893,0.00000099,0.00001603,-0.00000439,-0.0000209
 3,0.00000374,0.00000471,0.00000494,-0.00000539,-0.00000137,-0.00001292
 ,-0.00000569,0.00000601,0.00001116,-0.00000256,-0.00000371,0.00003447,
 0.00001846,-0.00000903,-0.00004403,0.00001667,0.00000591,-0.00001034,-
 0.00004850,0.00000552,-0.00000080,0.00008506,-0.00000305,0.00002264,-0
 .00000369,-0.00000874,0.00000058,-0.00000980,0.00000154,0.00005592,-0.
 00008655,0.00002875,-0.00008513,0.00010309,-0.00002181,-0.00003473,-0.
 00012837,-0.00002870,-0.00024362,0.00026544,0.00033270,-0.00132030,-0.
 00128929,0.00498298,-0.00050174,0.00292344,-0.00050695,-0.13122540,0.0
 0161145,-0.12211663,-0.01166290,0.00102861,-0.00031027,-0.00372696,-0.
 00301305,0.00597172,-0.00084882,-0.00002803,0.00041278,0.00061201,0.00
 013324,-0.00104611,0.00009024,0.00011677,-0.00027155,0.00034169,0.0000
 7428,-0.00000198,0.00006606,0.00008839,-0.00004876,-0.00004067,-0.0000
 1879,0.00000688,0.00005326,-0.00000975,-0.00000205,-0.00003267,0.00004
 549,0.00000187,-0.00001060,0.00000233,-0.00001751,-0.00000079,0.000000
 10,0.00000023,-0.00000044,0.,0.00000101,0.00000225,-0.00000006,-0.0000
 0023,-0.00000122,0.00000270,0.00000070,-0.00000153,-0.00000123,0.00000
 116,-0.00004756,-0.00001371,0.00000243,0.14638545,-0.00238707,0.115491
 70,-0.00000013,-0.00001036,0.00000371,0.00001483,-0.00000297,-0.000003
 51,-0.00000350,0.00000279,0.00000131,-0.00000059,0.00000769,-0.0000026
 3,-0.00000467,0.00000167,0.00000109,-0.00001932,-0.00004015,0.00001042
 ,0.00003911,-0.00001192,-0.00000394,0.00000401,0.00003756,-0.00000423,
 0.00000619,-0.00006311,0.00002245,-0.00001828,0.00002668,0.00000131,-0
 .00000395,-0.00000637,-0.00000131,0.00000051,0.00005340,-0.00001893,0.
 00001147,-0.00002715,-0.00003846,0.00015620,0.00000263,0.00008164,-0.0
 0022134,-0.00043658,0.00099811,-0.00132094,-0.00012778,-0.00095731,0.0
 0220069,-0.00229169,-0.00463382,0.00992945,-0.01263889,0.00293923,-0.1
 0369047,0.11300975,-0.02383475,-0.00658521,0.02500390,-0.00141302,0.00
 158747,-0.00058276,0.00248478,-0.00048801,0.00048142,0.00013362,-0.001
 01136,0.00105311,-0.00095961,-0.00096370,-0.00156571,-0.00412825,-0.00
 018284,0.00006924,-0.00002885,0.00005299,0.00007477,0.00003515,0.00001
 731,-0.00000128,-0.00000289,-0.00000006,0.00003122,-0.00001359,-0.0000
 7106,-0.00008302,-0.00002594,0.00000107,-0.00000034,-0.00000040,0.0000
 0005,0.00000032,-0.00000080,-0.00000111,0.00000003,-0.00000056,0.00000
 072,-0.00000164,-0.00000075,0.00000010,0.00000048,-0.00000400,0.000000
 36,-0.00000338,-0.00002901,-0.00077118,0.00005607,0.00219243,0.1013351
 7,-0.00000159,-0.00001145,0.00000420,0.00001724,-0.00000526,-0.0000046
 7,-0.00000415,0.00000310,0.00000182,-0.00000001,0.00000954,-0.00000334
 ,-0.00000473,0.00000250,0.00000034,-0.00001865,-0.00002834,0.00000950,
 0.00003196,-0.00001215,-0.00000536,0.00000316,0.00003037,-0.00000363,0
 .00000540,-0.00005660,0.00000502,-0.00002189,0.00001172,0.00000118,-0.
 00000220,0.00000802,-0.00000095,-0.00000314,0.00007393,-0.00001100,0.0
 0004384,-0.00005073,0.00002289,0.00000030,0.00004779,-0.00001630,0.000
 09031,-0.00015318,0.00027098,-0.00104473,0.00057697,-0.00050470,-0.002
 18067,-0.00241403,-0.00321612,0.01369410,-0.01544945,0.00539276,0.1129
 6113,-0.29221639,0.02464780,-0.00068378,0.00153057,-0.00059026,-0.0000
 4103,0.00050216,0.00048728,0.00029870,0.00021543,0.00037629,-0.0003419
 7,0.00015532,-0.00039341,-0.00018446,0.00111101,-0.00075672,-0.0000852
 6,0.00000291,0.00006074,0.00004271,0.00002464,-0.00001235,-0.00001388,
 0.00000642,0.00000445,0.00002113,-0.00002472,-0.00000713,-0.00001812,-
 0.00003356,-0.00001512,0.00000143,-0.00000005,0.00000002,0.00000041,0.
 00000004,-0.00000048,-0.00000187,0.00000033,0.00000105,0.00000074,-0.0
 0000221,-0.00000001,0.00000126,0.00000268,-0.00000083,0.00002487,0.000
 03033,-0.00004112,-0.00056896,0.00057369,0.00051622,-0.12201763,0.3055
 3867,0.00000035,0.00000233,-0.00000134,-0.00000476,0.00000109,0.000000
 81,0.00000168,0.00000020,-0.00000073,0.00000312,-0.00000371,0.00000081
 ,-0.00000008,-0.00000098,-0.00000023,0.00000334,0.00001899,-0.00000473
 ,-0.00001254,0.00000492,0.00000032,-0.00000124,-0.00001101,0.00000006,
 -0.00000377,0.00001962,-0.00002238,0.00001152,-0.00001396,0.00000214,0
 .00000152,0.00000132,0.00000155,-0.00004527,-0.00002749,0.00001337,0.0
 0009175,-0.00000955,0.00001701,-0.00024258,0.00012527,-0.00003727,0.00
 096459,0.00057913,-0.00127043,-0.00086126,-0.00042565,-0.00047766,-0.0
 0437343,-0.00356333,0.00566791,0.00728976,-0.01078037,0.00416712,-0.02
 390116,0.02464180,-0.04426612,-0.00600822,0.01552367,0.00207082,0.0025
 1956,0.00016163,-0.00057080,0.00021473,0.00049985,-0.00036730,-0.00118
 572,0.00055858,-0.00003501,-0.00395025,-0.00177961,0.00216494,0.000079
 86,-0.00023529,0.00005733,-0.00005707,-0.00002439,-0.00001434,0.000042
 68,-0.00002523,-0.00001269,0.00001008,-0.00002218,0.00000584,0.0001116
 1,0.00006599,0.00002291,-0.00000007,0.00000007,0.00000034,0.00000004,0
 .,0.00000043,0.00000028,0.00000038,0.00000047,-0.00000030,0.00000070,0
 .00000083,-0.00000011,0.00000080,0.00000426,0.00003076,0.00005721,0.00
 001343,0.00206930,0.00087822,-0.00285577,0.02720131,-0.02621903,0.0357
 2408\\0.00000367,0.00000549,0.00000858,-0.00000500,-0.00000162,-0.0000
 0127,0.00000766,0.00000844,-0.00001109,-0.00000912,-0.00001223,0.00000
 694,0.00000540,-0.00000185,-0.00000617,0.00000284,-0.00000018,-0.00001
 282,0.00000470,0.00000721,0.00001091,0.00000027,0.00000093,-0.00000304
 ,-0.00000329,0.00000198,-0.00000478,-0.00000284,-0.00000610,-0.0000081
 2,-0.00000426,0.00000169,0.00001392,0.00001048,0.00000014,-0.00000124,
 -0.00000924,0.00000117,0.00000111,-0.00000213,-0.00000491,-0.00000714,
 0.00000966,0.00000139,-0.00000817,0.00000737,0.00000353,0.00001543,-0.
 00000614,0.00000932,0.00000215,0.00000371,-0.00001377,-0.00000619,0.00
 000466,0.00000899,0.00000493,-0.00000617,0.00000717,0.00000078,-0.0000
 0452,0.00000103,-0.00000461,-0.00000158,-0.00000605,0.00001241,-0.0000
 0243,0.00000997,-0.00000466,-0.00000409,-0.00001455,0.00000745,-0.0000
 0771,0.00000701,-0.00000874,0.00000167,-0.00001674,0.00000769,0.000010
 20,0.00000212,0.00000146,0.00000118,0.00001354,-0.00000057,-0.00000644
 ,-0.00001201,0.00000664,0.00000047,-0.00000062,0.00000028,-0.00000009,
 0.00000072,-0.00000286,0.00000230,-0.00000238,-0.00000162,-0.00000173,
 0.00000082,-0.00000489,-0.00000096,-0.00000119,-0.00000574,-0.00000013
 ,-0.00000113,-0.00000047,0.00000063,0.00000226,0.00000007,0.00000100,0
 .00000042,0.00000345\\\@


 WAR ES EIN GOTT DER DIESE ZEICHEN SCHRIEB?
          - LUDWIG BOLTZMANN, QUOTING GOETHE, ABOUT MAXWELL'S EQUATIONS.
 Job cpu time:  0 days 15 hours 56 minutes 40.9 seconds.
 File lengths (MBytes):  RWF=   1445 Int=      0 D2E=      0 Chk=     26 Scr=      1
 Normal termination of Gaussian 09 at Sun Dec 29 12:43:53 2013.
