 Entering Gaussian System, Link 0=g09
 Initial command:
 /opt/gaussian/g09/l1.exe /panfs/panfs.cluster/home/shuo/Gau-17161.inp -scrdir=/panfs/panfs.cluster/home/shuo/
 Default is to use a total of  12 processors:
                               12 via shared-memory
                                1 via Linda
 Entering Link 1 = /opt/gaussian/g09/l1.exe PID=     17162.
  
 Copyright (c) 1988,1990,1992,1993,1995,1998,2003,2009,2011,
            Gaussian, Inc.  All Rights Reserved.
  
 This is part of the Gaussian(R) 09 program.  It is based on
 the Gaussian(R) 03 system (copyright 2003, Gaussian, Inc.),
 the Gaussian(R) 98 system (copyright 1998, Gaussian, Inc.),
 the Gaussian(R) 94 system (copyright 1995, Gaussian, Inc.),
 the Gaussian 92(TM) system (copyright 1992, Gaussian, Inc.),
 the Gaussian 90(TM) system (copyright 1990, Gaussian, Inc.),
 the Gaussian 88(TM) system (copyright 1988, Gaussian, Inc.),
 the Gaussian 86(TM) system (copyright 1986, Carnegie Mellon
 University), and the Gaussian 82(TM) system (copyright 1983,
 Carnegie Mellon University). Gaussian is a federally registered
 trademark of Gaussian, Inc.
  
 This software contains proprietary and confidential information,
 including trade secrets, belonging to Gaussian, Inc.
  
 This software is provided under written license and may be
 used, copied, transmitted, or stored only in accord with that
 written license.
  
 The following legend is applicable only to US Government
 contracts under FAR:
  
                    RESTRICTED RIGHTS LEGEND
  
 Use, reproduction and disclosure by the US Government is
 subject to restrictions as set forth in subparagraphs (a)
 and (c) of the Commercial Computer Software - Restricted
 Rights clause in FAR 52.227-19.
  
 Gaussian, Inc.
 340 Quinnipiac St., Bldg. 40, Wallingford CT 06492
  
  
 ---------------------------------------------------------------
 Warning -- This program may not be used in any manner that
 competes with the business of Gaussian, Inc. or will provide
 assistance to any competitor of Gaussian, Inc.  The licensee
 of this program is prohibited from giving any competitor of
 Gaussian, Inc. access to this program.  By using this program,
 the user acknowledges that Gaussian, Inc. is engaged in the
 business of creating and licensing software in the field of
 computational chemistry and represents and warrants to the
 licensee that it is not a competitor of Gaussian, Inc. and that
 it will not use this program in any manner prohibited above.
 ---------------------------------------------------------------
  

 Cite this work as:
 Gaussian 09, Revision C.01,
 M. J. Frisch, G. W. Trucks, H. B. Schlegel, G. E. Scuseria, 
 M. A. Robb, J. R. Cheeseman, G. Scalmani, V. Barone, B. Mennucci, 
 G. A. Petersson, H. Nakatsuji, M. Caricato, X. Li, H. P. Hratchian, 
 A. F. Izmaylov, J. Bloino, G. Zheng, J. L. Sonnenberg, M. Hada, 
 M. Ehara, K. Toyota, R. Fukuda, J. Hasegawa, M. Ishida, T. Nakajima, 
 Y. Honda, O. Kitao, H. Nakai, T. Vreven, J. A. Montgomery, Jr., 
 J. E. Peralta, F. Ogliaro, M. Bearpark, J. J. Heyd, E. Brothers, 
 K. N. Kudin, V. N. Staroverov, T. Keith, R. Kobayashi, J. Normand, 
 K. Raghavachari, A. Rendell, J. C. Burant, S. S. Iyengar, J. Tomasi, 
 M. Cossi, N. Rega, J. M. Millam, M. Klene, J. E. Knox, J. B. Cross, 
 V. Bakken, C. Adamo, J. Jaramillo, R. Gomperts, R. E. Stratmann, 
 O. Yazyev, A. J. Austin, R. Cammi, C. Pomelli, J. W. Ochterski, 
 R. L. Martin, K. Morokuma, V. G. Zakrzewski, G. A. Voth, 
 P. Salvador, J. J. Dannenberg, S. Dapprich, A. D. Daniels, 
 O. Farkas, J. B. Foresman, J. V. Ortiz, J. Cioslowski, 
 and D. J. Fox, Gaussian, Inc., Wallingford CT, 2010.
 
 ******************************************
 Gaussian 09:  EM64L-G09RevC.01 23-Sep-2011
                29-Dec-2013 
 ******************************************
 %chk=89_C21H8N6OS3.chk
 %NProcShared=12
 Will use up to   12 processors via shared memory.
 %Mem=8000MB
 Default route:  MaxDisk=100GB
 --------------------------------------------
 #B3LYP/6-31++G(d,p) opt scf=direct freq test
 --------------------------------------------
 1/14=-1,18=20,19=15,26=3,38=1/1,3;
 2/9=110,12=2,17=6,18=5,40=1/2;
 3/5=1,6=6,7=1111,11=2,16=1,25=1,30=1,71=1,74=-5/1,2,3;
 4//1;
 5/5=2,38=5/2;
 6/7=2,8=2,9=2,10=2,28=1/1;
 7//1,2,3,16;
 1/14=-1,18=20,19=15/3(2);
 2/9=110/2;
 99//99;
 2/9=110/2;
 3/5=1,6=6,7=1111,11=2,16=1,25=1,30=1,71=1,74=-5/1,2,3;
 4/5=5,16=3/1;
 5/5=2,38=5/2;
 7//1,2,3,16;
 1/14=-1,18=20,19=15/3(-5);
 2/9=110/2;
 6/7=2,8=2,9=2,10=2,19=2,28=1/1;
 99/9=1/99;
 ----------------------------------------------------------------------
 Geom opt of No.89 candidate from the CEPDB database with SMILE code of
  [SiH2]1C=c2c(cc3c4cscc4c4c(sc5ccc6nsnc6c45)c3c2=C1)-c1ncncn1, HPC, 20
 131227, Shuo Dai, Gaussian09
 ----------------------------------------------------------------------
 Charge =  0 Multiplicity = 1
 Symbolic Z-Matrix:
 Si                    2.60105   0.07221  -0.21318 
 H                     2.51863   1.07882  -1.23205 
 H                     2.61538  -1.36403   0.16987 
 C                     0.62365   0.76598   0.97679 
 C                     1.15537   1.29624   2.00953 
 C                     0.61459   1.9037    3.13126 
 C                     1.32871   2.37791   4.12771 
 C                     2.72169   2.1527    3.88345 
 C                     3.49972   2.67697   4.92621 
 C                     3.12046   3.24665   5.98954 
 S                     2.61571   3.93848   7.23569 
 C                     4.81976   3.49928   6.63563 
 C                     4.76607   2.81708   5.32661 
 C                     5.52815   2.20328   4.25301 
 C                     4.71341   1.59704   3.0657 
 S                     5.90653   1.02638   2.05417 
 C                     7.23099   1.45044   3.0125 
 C                     8.48538   1.12098   2.52779 
 C                     9.58723   1.4412    3.26425 
 C                     9.40917   2.08951   4.4788 
 N                     10.46019   2.42442   5.23687 
 S                     9.83777   3.16537   6.57727 
 N                     8.13817   3.0785    6.21727 
 C                     8.11085   2.46193   5.03869 
 C                     6.94138   2.08939   4.19546 
 C                     3.20714   1.4291    2.68101 
 C                     2.1475    0.66164   1.28704 
 C                     0.94264  -0.00856   0.16824 
 C                    -0.81102   2.02348   3.12113 
 N                    -1.47176   1.22559   3.95039 
 C                    -2.77378   1.22395   3.72426 
 N                    -3.40957   1.89364   2.76022 
 C                    -2.61914   2.60844   1.96393 
 N                    -1.31221   2.71498   2.0882 
 H                    -0.49574   0.67921   1.05858 
 H                     0.85997   2.86491   4.98098 
 H                     3.34273   3.87189   7.15882 
 H                     5.76339   3.69791   7.12393 
 H                     8.57955   0.61395   1.57359 
 H                     10.56911   1.20282   2.9225 
 H                     0.49056  -0.58089  -0.99313 
 H                    -3.38151   0.62707   4.39467 
 H                    -3.0904    3.16246   1.15919 
 

 GradGradGradGradGradGradGradGradGradGradGradGradGradGradGradGradGradGrad
 Berny optimization.
 Initialization pass.
                           ----------------------------
                           !    Initial Parameters    !
                           ! (Angstroms and Degrees)  !
 --------------------------                            --------------------------
 ! Name  Definition              Value          Derivative Info.                !
 --------------------------------------------------------------------------------
 ! R1    R(1,2)                  1.4346         estimate D2E/DX2                !
 ! R2    R(1,3)                  1.4865         estimate D2E/DX2                !
 ! R3    R(1,27)                 1.6745         estimate D2E/DX2                !
 ! R4    R(1,28)                 1.7036         estimate D2E/DX2                !
 ! R5    R(4,5)                  1.2769         estimate D2E/DX2                !
 ! R6    R(4,27)                 1.5586         estimate D2E/DX2                !
 ! R7    R(4,28)                 1.1642         estimate D2E/DX2                !
 ! R8    R(4,35)                 1.1257         estimate D2E/DX2                !
 ! R9    R(5,6)                  1.3855         estimate D2E/DX2                !
 ! R10   R(5,27)                 1.3817         estimate D2E/DX2                !
 ! R11   R(6,7)                  1.3144         estimate D2E/DX2                !
 ! R12   R(6,29)                 1.4307         estimate D2E/DX2                !
 ! R13   R(7,8)                  1.4321         estimate D2E/DX2                !
 ! R14   R(7,36)                 1.0886         estimate D2E/DX2                !
 ! R15   R(8,9)                  1.4027         estimate D2E/DX2                !
 ! R16   R(8,26)                 1.485          estimate D2E/DX2                !
 ! R17   R(9,10)                 1.2645         estimate D2E/DX2                !
 ! R18   R(9,13)                 1.3355         estimate D2E/DX2                !
 ! R19   R(10,11)                1.512          estimate D2E/DX2                !
 ! R20   R(10,13)                1.8254         estimate D2E/DX2                !
 ! R21   R(10,37)                1.3444         estimate D2E/DX2                !
 ! R22   R(11,37)                0.7341         estimate D2E/DX2                !
 ! R23   R(12,13)                1.4771         estimate D2E/DX2                !
 ! R24   R(12,38)                1.0809         estimate D2E/DX2                !
 ! R25   R(13,14)                1.4526         estimate D2E/DX2                !
 ! R26   R(14,15)                1.5624         estimate D2E/DX2                !
 ! R27   R(14,25)                1.419          estimate D2E/DX2                !
 ! R28   R(15,16)                1.665          estimate D2E/DX2                !
 ! R29   R(15,26)                1.5637         estimate D2E/DX2                !
 ! R30   R(16,17)                1.6889         estimate D2E/DX2                !
 ! R31   R(17,18)                1.3846         estimate D2E/DX2                !
 ! R32   R(17,25)                1.3753         estimate D2E/DX2                !
 ! R33   R(18,19)                1.3634         estimate D2E/DX2                !
 ! R34   R(18,39)                1.0846         estimate D2E/DX2                !
 ! R35   R(19,20)                1.3882         estimate D2E/DX2                !
 ! R36   R(19,40)                1.0666         estimate D2E/DX2                !
 ! R37   R(20,21)                1.3385         estimate D2E/DX2                !
 ! R38   R(20,24)                1.4621         estimate D2E/DX2                !
 ! R39   R(21,22)                1.6532         estimate D2E/DX2                !
 ! R40   R(22,23)                1.7395         estimate D2E/DX2                !
 ! R41   R(23,24)                1.3304         estimate D2E/DX2                !
 ! R42   R(24,25)                1.4891         estimate D2E/DX2                !
 ! R43   R(26,27)                1.9118         estimate D2E/DX2                !
 ! R44   R(27,28)                1.7755         estimate D2E/DX2                !
 ! R45   R(28,41)                1.3714         estimate D2E/DX2                !
 ! R46   R(29,30)                1.327          estimate D2E/DX2                !
 ! R47   R(29,34)                1.3403         estimate D2E/DX2                !
 ! R48   R(30,31)                1.3215         estimate D2E/DX2                !
 ! R49   R(31,32)                1.3349         estimate D2E/DX2                !
 ! R50   R(31,42)                1.084          estimate D2E/DX2                !
 ! R51   R(32,33)                1.3303         estimate D2E/DX2                !
 ! R52   R(33,34)                1.3171         estimate D2E/DX2                !
 ! R53   R(33,43)                1.0847         estimate D2E/DX2                !
 ! A1    A(2,1,3)              149.4837         estimate D2E/DX2                !
 ! A2    A(2,1,27)             111.9469         estimate D2E/DX2                !
 ! A3    A(2,1,28)              97.8364         estimate D2E/DX2                !
 ! A4    A(3,1,27)              96.4219         estimate D2E/DX2                !
 ! A5    A(3,1,28)              84.5996         estimate D2E/DX2                !
 ! A6    A(5,4,28)             136.3759         estimate D2E/DX2                !
 ! A7    A(5,4,35)             112.7879         estimate D2E/DX2                !
 ! A8    A(27,4,35)            162.2839         estimate D2E/DX2                !
 ! A9    A(28,4,35)            105.7614         estimate D2E/DX2                !
 ! A10   A(4,5,6)              132.4024         estimate D2E/DX2                !
 ! A11   A(6,5,27)             154.8198         estimate D2E/DX2                !
 ! A12   A(5,6,7)              124.0463         estimate D2E/DX2                !
 ! A13   A(5,6,29)             114.828          estimate D2E/DX2                !
 ! A14   A(7,6,29)             121.0998         estimate D2E/DX2                !
 ! A15   A(6,7,8)              110.0247         estimate D2E/DX2                !
 ! A16   A(6,7,36)             121.4451         estimate D2E/DX2                !
 ! A17   A(8,7,36)             128.5292         estimate D2E/DX2                !
 ! A18   A(7,8,9)              110.7296         estimate D2E/DX2                !
 ! A19   A(7,8,26)             122.1906         estimate D2E/DX2                !
 ! A20   A(9,8,26)             127.0681         estimate D2E/DX2                !
 ! A21   A(8,9,10)             128.8394         estimate D2E/DX2                !
 ! A22   A(8,9,13)             142.0023         estimate D2E/DX2                !
 ! A23   A(9,10,37)            153.031          estimate D2E/DX2                !
 ! A24   A(11,10,13)           135.0662         estimate D2E/DX2                !
 ! A25   A(13,10,37)           106.0367         estimate D2E/DX2                !
 ! A26   A(13,12,38)           121.1283         estimate D2E/DX2                !
 ! A27   A(9,13,12)            110.4026         estimate D2E/DX2                !
 ! A28   A(9,13,14)            103.3878         estimate D2E/DX2                !
 ! A29   A(10,13,12)            66.5613         estimate D2E/DX2                !
 ! A30   A(10,13,14)           147.2248         estimate D2E/DX2                !
 ! A31   A(12,13,14)           146.2077         estimate D2E/DX2                !
 ! A32   A(13,14,15)           116.874          estimate D2E/DX2                !
 ! A33   A(13,14,25)           125.9009         estimate D2E/DX2                !
 ! A34   A(15,14,25)           117.2192         estimate D2E/DX2                !
 ! A35   A(14,15,16)           102.7668         estimate D2E/DX2                !
 ! A36   A(14,15,26)           136.9675         estimate D2E/DX2                !
 ! A37   A(16,15,26)           120.265          estimate D2E/DX2                !
 ! A38   A(15,16,17)            97.5372         estimate D2E/DX2                !
 ! A39   A(16,17,18)           116.878          estimate D2E/DX2                !
 ! A40   A(16,17,25)           116.0766         estimate D2E/DX2                !
 ! A41   A(18,17,25)           127.0453         estimate D2E/DX2                !
 ! A42   A(17,18,19)           119.1554         estimate D2E/DX2                !
 ! A43   A(17,18,39)           119.8597         estimate D2E/DX2                !
 ! A44   A(19,18,39)           120.9849         estimate D2E/DX2                !
 ! A45   A(18,19,20)           118.594          estimate D2E/DX2                !
 ! A46   A(18,19,40)           121.223          estimate D2E/DX2                !
 ! A47   A(20,19,40)           120.183          estimate D2E/DX2                !
 ! A48   A(19,20,21)           120.7742         estimate D2E/DX2                !
 ! A49   A(19,20,24)           124.602          estimate D2E/DX2                !
 ! A50   A(21,20,24)           114.6237         estimate D2E/DX2                !
 ! A51   A(20,21,22)           106.0047         estimate D2E/DX2                !
 ! A52   A(21,22,23)           100.2346         estimate D2E/DX2                !
 ! A53   A(22,23,24)           103.0941         estimate D2E/DX2                !
 ! A54   A(20,24,23)           116.0428         estimate D2E/DX2                !
 ! A55   A(20,24,25)           114.6327         estimate D2E/DX2                !
 ! A56   A(23,24,25)           129.3245         estimate D2E/DX2                !
 ! A57   A(14,25,17)           106.3733         estimate D2E/DX2                !
 ! A58   A(14,25,24)           137.6561         estimate D2E/DX2                !
 ! A59   A(17,25,24)           115.9706         estimate D2E/DX2                !
 ! A60   A(8,26,15)             93.6329         estimate D2E/DX2                !
 ! A61   A(8,26,27)            127.2169         estimate D2E/DX2                !
 ! A62   A(15,26,27)           139.1492         estimate D2E/DX2                !
 ! A63   A(1,27,4)              96.318          estimate D2E/DX2                !
 ! A64   A(1,27,5)             145.5554         estimate D2E/DX2                !
 ! A65   A(1,27,26)            130.1244         estimate D2E/DX2                !
 ! A66   A(4,27,26)            131.3127         estimate D2E/DX2                !
 ! A67   A(5,27,26)             80.3485         estimate D2E/DX2                !
 ! A68   A(5,27,28)             90.8934         estimate D2E/DX2                !
 ! A69   A(1,28,4)             112.9962         estimate D2E/DX2                !
 ! A70   A(1,28,41)             98.69           estimate D2E/DX2                !
 ! A71   A(4,28,41)            140.8469         estimate D2E/DX2                !
 ! A72   A(27,28,41)           156.1829         estimate D2E/DX2                !
 ! A73   A(6,29,30)            116.1933         estimate D2E/DX2                !
 ! A74   A(6,29,34)            114.9154         estimate D2E/DX2                !
 ! A75   A(30,29,34)           127.2757         estimate D2E/DX2                !
 ! A76   A(29,30,31)           112.6062         estimate D2E/DX2                !
 ! A77   A(30,31,32)           126.3125         estimate D2E/DX2                !
 ! A78   A(30,31,42)           116.5657         estimate D2E/DX2                !
 ! A79   A(32,31,42)           117.119          estimate D2E/DX2                !
 ! A80   A(31,32,33)           114.7604         estimate D2E/DX2                !
 ! A81   A(32,33,34)           125.2075         estimate D2E/DX2                !
 ! A82   A(32,33,43)           117.4103         estimate D2E/DX2                !
 ! A83   A(34,33,43)           117.372          estimate D2E/DX2                !
 ! A84   A(29,34,33)           113.7051         estimate D2E/DX2                !
 ! A85   L(9,10,11,12,-1)      182.0844         estimate D2E/DX2                !
 ! A86   L(26,27,28,5,-1)      171.2419         estimate D2E/DX2                !
 ! A87   L(9,10,11,12,-2)      179.284          estimate D2E/DX2                !
 ! A88   L(26,27,28,5,-2)      182.8954         estimate D2E/DX2                !
 ! D1    D(2,1,27,4)            71.9505         estimate D2E/DX2                !
 ! D2    D(2,1,27,5)            55.0718         estimate D2E/DX2                !
 ! D3    D(2,1,27,26)          -92.1938         estimate D2E/DX2                !
 ! D4    D(3,1,27,4)           -96.5748         estimate D2E/DX2                !
 ! D5    D(3,1,27,5)          -113.4535         estimate D2E/DX2                !
 ! D6    D(3,1,27,26)           99.281          estimate D2E/DX2                !
 ! D7    D(2,1,28,4)           -87.3241         estimate D2E/DX2                !
 ! D8    D(2,1,28,41)           69.1752         estimate D2E/DX2                !
 ! D9    D(3,1,28,4)           123.3063         estimate D2E/DX2                !
 ! D10   D(3,1,28,41)          -80.1944         estimate D2E/DX2                !
 ! D11   D(28,4,5,6)          -158.1146         estimate D2E/DX2                !
 ! D12   D(35,4,5,6)            -7.9065         estimate D2E/DX2                !
 ! D13   D(35,4,27,1)          132.0244         estimate D2E/DX2                !
 ! D14   D(35,4,27,26)         -64.1247         estimate D2E/DX2                !
 ! D15   D(5,4,28,1)           -33.9586         estimate D2E/DX2                !
 ! D16   D(5,4,28,41)         -175.3274         estimate D2E/DX2                !
 ! D17   D(35,4,28,1)          174.4636         estimate D2E/DX2                !
 ! D18   D(35,4,28,41)          33.0948         estimate D2E/DX2                !
 ! D19   D(4,5,6,7)            178.5232         estimate D2E/DX2                !
 ! D20   D(4,5,6,29)            -3.3162         estimate D2E/DX2                !
 ! D21   D(27,5,6,7)            18.3191         estimate D2E/DX2                !
 ! D22   D(27,5,6,29)         -163.5203         estimate D2E/DX2                !
 ! D23   D(6,5,27,1)          -173.4923         estimate D2E/DX2                !
 ! D24   D(6,5,27,26)          -18.29           estimate D2E/DX2                !
 ! D25   D(6,5,27,28)          158.8146         estimate D2E/DX2                !
 ! D26   D(5,6,7,8)             -0.8738         estimate D2E/DX2                !
 ! D27   D(5,6,7,36)           178.8068         estimate D2E/DX2                !
 ! D28   D(29,6,7,8)          -178.9241         estimate D2E/DX2                !
 ! D29   D(29,6,7,36)            0.7565         estimate D2E/DX2                !
 ! D30   D(5,6,29,30)          107.9749         estimate D2E/DX2                !
 ! D31   D(5,6,29,34)          -58.613          estimate D2E/DX2                !
 ! D32   D(7,6,29,30)          -73.805          estimate D2E/DX2                !
 ! D33   D(7,6,29,34)          119.607          estimate D2E/DX2                !
 ! D34   D(6,7,8,9)            178.8363         estimate D2E/DX2                !
 ! D35   D(6,7,8,26)            -2.3264         estimate D2E/DX2                !
 ! D36   D(36,7,8,9)            -0.8153         estimate D2E/DX2                !
 ! D37   D(36,7,8,26)          178.022          estimate D2E/DX2                !
 ! D38   D(7,8,9,10)             2.0941         estimate D2E/DX2                !
 ! D39   D(7,8,9,13)          -179.8963         estimate D2E/DX2                !
 ! D40   D(26,8,9,10)         -176.6728         estimate D2E/DX2                !
 ! D41   D(26,8,9,13)            1.3369         estimate D2E/DX2                !
 ! D42   D(7,8,26,15)          178.8297         estimate D2E/DX2                !
 ! D43   D(7,8,26,27)           -0.8673         estimate D2E/DX2                !
 ! D44   D(9,8,26,15)           -2.5332         estimate D2E/DX2                !
 ! D45   D(9,8,26,27)          177.7699         estimate D2E/DX2                !
 ! D46   D(8,9,10,37)         -178.5098         estimate D2E/DX2                !
 ! D47   D(8,9,13,12)         -178.7574         estimate D2E/DX2                !
 ! D48   D(8,9,13,14)            0.8812         estimate D2E/DX2                !
 ! D49   D(11,10,13,12)          0.6865         estimate D2E/DX2                !
 ! D50   D(11,10,13,14)        179.7983         estimate D2E/DX2                !
 ! D51   D(37,10,13,12)          0.9667         estimate D2E/DX2                !
 ! D52   D(37,10,13,14)       -179.9215         estimate D2E/DX2                !
 ! D53   D(38,12,13,9)         179.7157         estimate D2E/DX2                !
 ! D54   D(38,12,13,10)        179.4834         estimate D2E/DX2                !
 ! D55   D(38,12,13,14)          0.3479         estimate D2E/DX2                !
 ! D56   D(9,13,14,15)          -0.811          estimate D2E/DX2                !
 ! D57   D(9,13,14,25)        -179.8951         estimate D2E/DX2                !
 ! D58   D(10,13,14,15)          0.0452         estimate D2E/DX2                !
 ! D59   D(10,13,14,25)       -179.0389         estimate D2E/DX2                !
 ! D60   D(12,13,14,15)        178.5799         estimate D2E/DX2                !
 ! D61   D(12,13,14,25)         -0.5042         estimate D2E/DX2                !
 ! D62   D(13,14,15,16)        179.1175         estimate D2E/DX2                !
 ! D63   D(13,14,15,26)         -1.2229         estimate D2E/DX2                !
 ! D64   D(25,14,15,16)         -1.7168         estimate D2E/DX2                !
 ! D65   D(25,14,15,26)        177.9428         estimate D2E/DX2                !
 ! D66   D(13,14,25,17)       -179.8118         estimate D2E/DX2                !
 ! D67   D(13,14,25,24)          0.263          estimate D2E/DX2                !
 ! D68   D(15,14,25,17)          1.1069         estimate D2E/DX2                !
 ! D69   D(15,14,25,24)       -178.8183         estimate D2E/DX2                !
 ! D70   D(14,15,16,17)          1.394          estimate D2E/DX2                !
 ! D71   D(26,15,16,17)       -178.337          estimate D2E/DX2                !
 ! D72   D(14,15,26,8)           2.7233         estimate D2E/DX2                !
 ! D73   D(14,15,26,27)       -177.6456         estimate D2E/DX2                !
 ! D74   D(16,15,26,8)        -177.6611         estimate D2E/DX2                !
 ! D75   D(16,15,26,27)          1.97           estimate D2E/DX2                !
 ! D76   D(15,16,17,18)        179.0253         estimate D2E/DX2                !
 ! D77   D(15,16,17,25)         -0.9953         estimate D2E/DX2                !
 ! D78   D(16,17,18,19)       -179.9727         estimate D2E/DX2                !
 ! D79   D(16,17,18,39)         -0.0202         estimate D2E/DX2                !
 ! D80   D(25,17,18,19)          0.0504         estimate D2E/DX2                !
 ! D81   D(25,17,18,39)       -179.9971         estimate D2E/DX2                !
 ! D82   D(16,17,25,14)          0.0431         estimate D2E/DX2                !
 ! D83   D(16,17,25,24)        179.987          estimate D2E/DX2                !
 ! D84   D(18,17,25,14)       -179.9799         estimate D2E/DX2                !
 ! D85   D(18,17,25,24)         -0.0359         estimate D2E/DX2                !
 ! D86   D(17,18,19,20)         -0.0238         estimate D2E/DX2                !
 ! D87   D(17,18,19,40)        179.9863         estimate D2E/DX2                !
 ! D88   D(39,18,19,20)       -179.9757         estimate D2E/DX2                !
 ! D89   D(39,18,19,40)          0.0344         estimate D2E/DX2                !
 ! D90   D(18,19,20,21)       -179.9875         estimate D2E/DX2                !
 ! D91   D(18,19,20,24)         -0.0118         estimate D2E/DX2                !
 ! D92   D(40,19,20,21)          0.0025         estimate D2E/DX2                !
 ! D93   D(40,19,20,24)        179.9783         estimate D2E/DX2                !
 ! D94   D(19,20,21,22)       -179.997          estimate D2E/DX2                !
 ! D95   D(24,20,21,22)          0.025          estimate D2E/DX2                !
 ! D96   D(19,20,24,23)        179.9815         estimate D2E/DX2                !
 ! D97   D(19,20,24,25)          0.024          estimate D2E/DX2                !
 ! D98   D(21,20,24,23)         -0.0414         estimate D2E/DX2                !
 ! D99   D(21,20,24,25)       -179.9989         estimate D2E/DX2                !
 ! D100  D(20,21,22,23)         -0.0055         estimate D2E/DX2                !
 ! D101  D(21,22,23,24)         -0.0162         estimate D2E/DX2                !
 ! D102  D(22,23,24,20)          0.0327         estimate D2E/DX2                !
 ! D103  D(22,23,24,25)        179.9827         estimate D2E/DX2                !
 ! D104  D(20,24,25,14)        179.919          estimate D2E/DX2                !
 ! D105  D(20,24,25,17)         -0.0012         estimate D2E/DX2                !
 ! D106  D(23,24,25,14)         -0.0316         estimate D2E/DX2                !
 ! D107  D(23,24,25,17)       -179.9517         estimate D2E/DX2                !
 ! D108  D(8,26,27,1)          168.072          estimate D2E/DX2                !
 ! D109  D(8,26,27,4)            9.2666         estimate D2E/DX2                !
 ! D110  D(8,26,27,5)            6.1459         estimate D2E/DX2                !
 ! D111  D(15,26,27,1)         -11.4656         estimate D2E/DX2                !
 ! D112  D(15,26,27,4)        -170.271          estimate D2E/DX2                !
 ! D113  D(15,26,27,5)        -173.3918         estimate D2E/DX2                !
 ! D114  D(8,26,28,41)         168.2798         estimate D2E/DX2                !
 ! D115  D(15,26,28,41)        -13.0881         estimate D2E/DX2                !
 ! D116  D(5,27,28,41)         161.7838         estimate D2E/DX2                !
 ! D117  D(6,29,30,31)        -169.0191         estimate D2E/DX2                !
 ! D118  D(34,29,30,31)         -4.3485         estimate D2E/DX2                !
 ! D119  D(6,29,34,33)         168.3381         estimate D2E/DX2                !
 ! D120  D(30,29,34,33)          3.5009         estimate D2E/DX2                !
 ! D121  D(29,30,31,32)          2.0322         estimate D2E/DX2                !
 ! D122  D(29,30,31,42)       -177.3497         estimate D2E/DX2                !
 ! D123  D(30,31,32,33)          0.7226         estimate D2E/DX2                !
 ! D124  D(42,31,32,33)       -179.8985         estimate D2E/DX2                !
 ! D125  D(31,32,33,34)         -1.7739         estimate D2E/DX2                !
 ! D126  D(31,32,33,43)        179.4237         estimate D2E/DX2                !
 ! D127  D(32,33,34,29)         -0.1098         estimate D2E/DX2                !
 ! D128  D(43,33,34,29)        178.6931         estimate D2E/DX2                !
 --------------------------------------------------------------------------------
 Trust Radius=3.00D-01 FncErr=1.00D-07 GrdErr=1.00D-06
 Number of steps in this run=    258 maximum allowed number of steps=    258.
 GradGradGradGradGradGradGradGradGradGradGradGradGradGradGradGradGradGrad

                          Input orientation:                          
 ---------------------------------------------------------------------
 Center     Atomic      Atomic             Coordinates (Angstroms)
 Number     Number       Type             X           Y           Z
 ---------------------------------------------------------------------
      1         14           0        2.601050    0.072210   -0.213180
      2          1           0        2.518630    1.078820   -1.232050
      3          1           0        2.615380   -1.364030    0.169870
      4          6           0        0.623650    0.765980    0.976790
      5          6           0        1.155370    1.296240    2.009530
      6          6           0        0.614590    1.903700    3.131260
      7          6           0        1.328710    2.377910    4.127710
      8          6           0        2.721690    2.152700    3.883450
      9          6           0        3.499720    2.676970    4.926210
     10          6           0        3.120460    3.246650    5.989540
     11         16           0        2.615710    3.938480    7.235690
     12          6           0        4.819760    3.499280    6.635630
     13          6           0        4.766070    2.817080    5.326610
     14          6           0        5.528150    2.203280    4.253010
     15          6           0        4.713410    1.597040    3.065700
     16         16           0        5.906530    1.026380    2.054170
     17          6           0        7.230990    1.450440    3.012500
     18          6           0        8.485380    1.120980    2.527790
     19          6           0        9.587230    1.441200    3.264250
     20          6           0        9.409170    2.089510    4.478800
     21          7           0       10.460190    2.424420    5.236870
     22         16           0        9.837770    3.165370    6.577270
     23          7           0        8.138170    3.078500    6.217270
     24          6           0        8.110850    2.461930    5.038690
     25          6           0        6.941380    2.089390    4.195460
     26          6           0        3.207140    1.429100    2.681010
     27          6           0        2.147500    0.661640    1.287040
     28          6           0        0.942640   -0.008560    0.168240
     29          6           0       -0.811020    2.023480    3.121130
     30          7           0       -1.471760    1.225590    3.950390
     31          6           0       -2.773780    1.223950    3.724260
     32          7           0       -3.409570    1.893640    2.760220
     33          6           0       -2.619140    2.608440    1.963930
     34          7           0       -1.312210    2.714980    2.088200
     35          1           0       -0.495740    0.679210    1.058580
     36          1           0        0.859970    2.864910    4.980980
     37          1           0        3.342730    3.871890    7.158820
     38          1           0        5.763390    3.697910    7.123930
     39          1           0        8.579550    0.613950    1.573590
     40          1           0       10.569110    1.202820    2.922500
     41          1           0        0.490560   -0.580890   -0.993130
     42          1           0       -3.381510    0.627070    4.394670
     43          1           0       -3.090400    3.162460    1.159190
 ---------------------------------------------------------------------
                    Distance matrix (angstroms):
                    1          2          3          4          5
     1  Si   0.000000
     2  H    1.434626   0.000000
     3  H    1.486512   2.818201   0.000000
     4  C    2.409866   2.927079   3.025731   0.000000
     5  C    2.920390   3.523293   3.548664   1.276892   0.000000
     6  C    4.299495   4.831591   4.842628   2.436438   1.385543
     7  C    5.077246   5.641859   5.596618   3.608840   2.384689
     8  C    4.596234   5.230946   5.115600   3.843623   2.588138
     9  C    5.831442   6.437452   6.303531   5.246101   3.988661
    10  C    6.987173   7.563931   7.441911   6.124985   4.848315
    11  S    8.392492   8.938104   8.834162   7.294305   6.035460
    12  C    7.973311   8.547176   8.385531   7.556503   6.299360
    13  C    6.550641   7.147626   6.978475   6.347250   5.133530
    14  C    5.749454   6.356690   6.154832   6.070714   4.997712
    15  C    4.187866   4.853480   4.642790   4.666941   3.723657
    16  S    4.120378   4.720154   4.482891   5.397905   4.759027
    17  C    5.808690   6.353003   6.107835   6.947629   6.159780
    18  C    6.575574   7.052679   6.796467   8.021124   7.350398
    19  C    7.922964   8.385293   8.127189   9.275460   8.525937
    20  C    8.510856   9.006378   8.754964   9.549930   8.651693
    21  N    9.848960  10.330825  10.078089  10.846945   9.913031
    22  S   10.394612  10.904539  10.664575  11.046378   9.987090
    23  N    9.002675   9.543077   9.317099   9.448724   8.345120
    24  C    7.978145   8.515169   8.279104   8.685243   7.675503
    25  C    6.507195   7.073884   6.844396   7.212833   6.235807
    26  C    3.253434   3.988581   3.802312   3.165204   2.162937
    27  C    1.674454   2.580231   2.360152   1.558609   1.381677
    28  C    1.703622   2.372120   2.152989   1.164225   2.266739
    29  C    5.154348   5.561396   5.650255   2.870153   2.373020
    30  N    5.937456   6.542357   6.140291   3.666644   3.267069
    31  C    6.761563   7.252288   6.955169   4.393274   4.287627
    32  N    6.948832   7.193449   7.322728   4.551824   4.664665
    33  C    6.198601   6.241050   6.811708   3.858081   3.996358
    34  N    5.253017   5.326952   5.978652   2.963341   2.847449
    35  H    3.402342   3.806980   3.826709   1.125723   2.002797
    36  H    6.148970   6.674055   6.641700   4.527128   3.373055
    37  H    8.326707   8.881840   8.762951   7.433543   6.159034
    38  H    8.773784   9.338656   9.159266   8.532319   7.291019
    39  H    6.263265   6.694959   6.438490   7.979701   7.468200
    40  H    8.637172   9.060126   8.799290  10.143411   9.458369
    41  H    2.342868   2.631499   2.545729   2.390054   3.602993
    42  H    7.571735   8.165519   7.601059   5.267116   5.169135
    43  H    6.620094   6.443664   7.350088   4.423862   4.715127
                    6          7          8          9         10
     6  C    0.000000
     7  C    1.314441   0.000000
     8  C    2.251147   1.432053   0.000000
     9  C    3.484791   2.332450   1.402690   0.000000
    10  C    4.031459   2.726076   2.406524   1.264533   0.000000
    11  S    4.999116   3.708273   3.799705   2.776073   1.512049
    12  C    5.701749   4.442360   3.713445   2.311021   1.835449
    13  C    4.784204   3.666835   2.589131   1.335512   1.825387
    14  C    5.048875   4.204937   2.831139   2.189089   3.146606
    15  C    4.110798   3.632329   2.223606   2.469978   3.715850
    16  S    5.471238   5.204098   3.841623   4.094606   5.308382
    17  C    6.632970   6.077895   4.646021   4.369100   5.383827
    18  C    7.932601   7.440265   6.010190   5.747202   6.729380
    19  C    8.985536   8.356204   6.930027   6.430165   7.246100
    20  C    8.899159   8.093224   6.714225   5.955408   6.570326
    21  N   10.081695   9.198713   7.860659   6.971975   7.423895
    22  S    9.926422   8.889575   7.675986   6.567755   6.743463
    23  N    8.216317   7.157222   5.970099   4.831488   5.025689
    24  C    7.755245   6.843564   5.520258   4.617512   5.140418
    25  C    6.418354   5.620489   4.231683   3.567109   4.376917
    26  C    2.673815   2.553758   1.484965   2.585286   3.775894
    27  C    2.700680   3.418392   3.048655   4.374198   5.453662
    28  C    3.541729   4.639148   4.651758   6.032330   7.016183
    29  C    1.430669   2.391081   3.616334   4.718881   5.018013
    30  N    2.341722   3.033466   4.295234   5.270137   5.415838
    31  C    3.506389   4.280750   5.575671   6.550783   6.630601
    32  N    4.041242   4.955385   6.238678   7.283090   7.409483
    33  C    3.509463   4.507838   5.693568   6.798547   7.039592
    34  N    2.336388   3.353755   4.451003   5.586628   5.928886
    35  H    2.651077   3.953955   4.528015   5.908748   6.631969
    36  H    2.098952   1.088557   2.275482   2.646999   2.504543
    37  H    5.247643   3.933940   3.750914   2.537130   1.344450
    38  H    6.758013   5.512361   4.705351   3.316096   2.911281
    39  H    8.217687   7.887317   6.482108   6.426569   7.498892
    40  H    9.981347   9.392463   7.962895   7.494281   8.310617
    41  H    4.816551   5.973273   6.019260   7.396437   8.385948
    42  H    4.381188   5.032184   6.311731   7.199719   7.188979
    43  H    4.381836   5.381093   6.497815   7.606301   7.868555
                   11         12         13         14         15
    11  S    0.000000
    12  C    2.326114   0.000000
    13  C    3.086450   1.477096   0.000000
    14  C    4.515485   2.803268   1.452630   0.000000
    15  C    5.222212   4.046508   2.569627   1.562381   0.000000
    16  S    6.793966   5.318466   3.900784   2.522531   1.665047
    17  C    6.732495   4.810285   3.646730   2.237252   2.522406
    18  C    8.034653   5.997285   4.954131   3.590678   3.839758
    19  C    8.403025   6.191177   5.421251   4.246710   4.880351
    20  C    7.561100   5.263274   4.775617   3.889247   4.928442
    21  N    8.235504   5.909848   5.708348   5.034074   6.198711
    22  S    7.293104   5.029446   5.235227   4.990053   6.407016
    23  N    5.681048   3.371042   3.497524   3.381794   4.884270
    24  C    6.099473   3.802313   3.375883   2.711924   4.022850
    25  C    5.601210   3.527533   2.557539   1.418979   2.546098
    26  C    5.233726   4.746073   3.369859   2.908200   1.563662
    27  C    6.807594   6.618201   5.274557   4.754201   3.259217
    28  C    8.266023   8.316498   7.015101   6.527211   5.019157
    29  C    5.686766   6.799660   6.049618   6.441937   5.541142
    30  N    5.904268   7.208565   6.583111   7.074334   6.259152
    31  C    6.981792   8.444824   7.871145   8.376199   7.525351
    32  N    7.779152   9.236815   8.618596   9.066815   8.134131
    33  C    7.547457   8.829247   8.117418   8.472448   7.483523
    34  N    6.589549   7.674327   6.887903   7.192966   6.205916
    35  H    7.645956   8.204317   7.104450   6.986732   5.657401
    36  H    3.052686   4.338229   3.921653   4.770702   4.486066
    37  H    0.734099   1.610647   2.548630   4.000506   4.879276
    38  H    3.158837   1.080892   2.236262   3.245218   4.688853
    39  H    8.870133   6.934364   5.786326   4.360769   4.259096
    40  H    9.452196   7.219147   6.485434   5.308715   5.870702
    41  H    9.625718   9.674076   8.352562   7.787869   6.248995
    42  H    7.416433   8.973980   8.488093   9.049119   8.260432
    43  H    8.371723   9.626810   8.900045   9.207125   8.184422
                   16         17         18         19         20
    16  S    0.000000
    17  C    1.688910   0.000000
    18  C    2.623687   1.384551   0.000000
    19  C    3.896655   2.369669   1.363447   0.000000
    20  C    4.390622   2.702390   2.365984   1.388216   0.000000
    21  N    5.728867   4.040321   3.596935   2.370656   1.338461
    22  S    6.363046   4.737496   4.733580   3.743212   2.396821
    23  N    5.150031   3.707304   4.191026   3.674351   2.369772
    24  C    3.978340   2.429550   2.871069   2.523930   1.462125
    25  C    2.605001   1.375327   2.470400   2.878858   2.484003
    26  C    2.800325   4.037538   5.289445   6.406705   6.491022
    27  C    3.853807   5.425983   6.474502   7.737355   8.059652
    28  C    5.409994   7.054207   7.983499   9.296022   9.729592
    29  C    6.874452   8.063132   9.358932  10.415524  10.310185
    30  N    7.620663   8.756030  10.058796  11.082352  10.927956
    31  C    8.841720  10.032613  11.323022  12.371474  12.236944
    32  N    9.382983  10.652774  11.922284  13.014437  12.934913
    33  C    8.671684   9.973240  11.217880  12.330805  12.299354
    34  N    7.413686   8.685601   9.936138  11.036458  11.002462
    35  H    6.488512   8.007181   9.111216  10.349488  10.573273
    36  H    6.116713   6.816563   8.197946   9.007729   8.598968
    37  H    6.381806   6.178508   7.447200   7.750465   6.867393
    38  H    5.732367   4.910074   5.930793   5.883164   4.782821
    39  H    2.747015   2.142146   1.084641   2.134969   3.362409
    40  H    4.746028   3.348501   2.122363   1.066633   2.133952
    41  H    6.418885   8.099677   8.900022  10.245171  10.798827
    42  H    9.586714  10.733755  12.022989  13.043346  12.874288
    43  H    9.290241  10.625294  11.833824  12.965968  12.977299
                   21         22         23         24         25
    21  N    0.000000
    22  S    1.653205   0.000000
    23  N    2.603993   1.739479   0.000000
    24  C    2.357982   2.417501   1.330397   0.000000
    25  C    3.684943   3.901260   2.549188   1.489122   0.000000
    26  C    7.754342   7.884208   6.288141   5.538210   4.083392
    27  C    9.370665   9.664132   8.126285   7.271689   5.786075
    28  C   11.054147  11.413713   9.894259   9.011539   7.523615
    29  C   11.475072  11.253690   9.528229   9.136139   7.826764
    30  N   12.060831  11.771521  10.046033   9.723135   8.460918
    31  C   13.374120  13.075166  11.345709  11.033381   9.765006
    32  N   14.099141  13.844825  12.112200  11.757315  10.451813
    33  C   13.483875  13.295401  11.577201  11.162809   9.831210
    34  N   12.189666  12.028161  10.319450   9.877423   8.541291
    35  H   11.854799  11.975740  10.339878   9.648459   8.193862
    36  H    9.613726   9.123558   7.385542   7.262299   6.180778
    37  H    7.513142   6.559186   4.950983   5.405359   4.990901
    38  H    5.219454   4.145239   2.616349   3.374380   3.542730
    39  H    4.498247   5.755838   5.275660   3.954950   3.425599
    40  H    2.619252   4.212340   4.503682   3.479463   3.945486
    41  H   12.134179  12.598244  11.129553  10.183832   8.698560
    42  H   13.983291  13.636571  11.917819  11.655720  10.427853
    43  H   14.170062  14.017602  12.315519  11.874732  10.535987
                   26         27         28         29         30
    26  C    0.000000
    27  C    1.911801   0.000000
    28  C    3.675437   1.775548   0.000000
    29  C    4.085658   3.737825   3.990497   0.000000
    30  N    4.852303   4.528854   4.653720   1.326981   0.000000
    31  C    6.074690   5.520438   5.289247   2.203506   1.321512
    32  N    6.633470   5.879550   5.410957   2.626705   2.370212
    33  C    5.987536   5.193175   4.770688   2.224992   2.678578
    34  N    4.735972   4.102153   4.023464   1.340264   2.389872
    35  H    4.111683   2.653153   1.826108   2.482051   3.100599
    36  H    3.586171   4.489691   5.605901   2.638040   3.030916
    37  H    5.102587   6.797947   8.347846   6.080559   6.362094
    38  H    5.605484   7.507522   9.239003   7.877118   8.278352
    39  H    5.545596   6.438606   7.790053   9.621043  10.346599
    40  H    7.369404   8.595994  10.085748  11.411411  12.084686
    41  H    4.991911   3.080342   1.371393   5.040237   5.617158
    42  H    6.854939   6.342595   6.079886   3.190499   2.050062
    43  H    6.706675   5.805691   5.225204   3.215907   3.763278
                   31         32         33         34         35
    31  C    0.000000
    32  N    1.334948   0.000000
    33  C    2.244880   1.330337   0.000000
    34  N    2.652555   2.350559   1.317141   0.000000
    35  H    3.548529   3.586199   3.008391   2.423035   0.000000
    36  H    4.180459   4.909594   4.612220   3.620638   4.690464
    37  H    7.497965   8.297874   8.007939   6.979835   7.882892
    38  H    9.516381  10.317003   9.903502   8.740071   9.223759
    39  H   11.571326  12.115473  11.381609  10.125516   9.090126
    40  H   13.366973  13.996680  13.297540  12.006184  11.232955
    41  H    6.013911   5.951634   5.346612   4.858738   2.601952
    42  H    1.083998   2.067949   3.227310   3.736466   4.411336
    43  H    3.230736   2.067624   1.084726   2.055543   3.592898
                   36         37         38         39         40
    36  H    0.000000
    37  H    3.452694   0.000000
    38  H    5.415686   2.427155   0.000000
    39  H    8.733215   8.320652   6.946067   0.000000
    40  H   10.063165   8.791525   6.853644   2.474808   0.000000
    41  H    6.906518   9.716811  10.582888   8.570149  10.958602
    42  H    4.831339   7.961456  10.025374  12.289248  14.039892
    43  H    5.504547   8.825192  10.688986  11.952170  13.911566
                   41         42         43
    41  H    0.000000
    42  H    6.743922   0.000000
    43  H    5.609672   4.120835   0.000000
 Stoichiometry    C23H11N5S3Si
 Framework group  C1[X(C23H11N5S3Si)]
 Deg. of freedom   123
 Full point group                 C1      NOp   1
 Largest Abelian subgroup         C1      NOp   1
 Largest concise Abelian subgroup C1      NOp   1
                         Standard orientation:                         
 ---------------------------------------------------------------------
 Center     Atomic      Atomic             Coordinates (Angstroms)
 Number     Number       Type             X           Y           Z
 ---------------------------------------------------------------------
      1         14           0        2.392631   -3.790193    0.028045
      2          1           0        2.658835   -4.174707    1.384303
      3          1           0        2.402234   -4.118903   -1.421636
      4          6           0        3.903522   -1.912927    0.004847
      5          6           0        3.066774   -0.948677    0.027870
      6          6           0        3.226945    0.427576    0.027649
      7          6           0        2.230193    1.284453    0.026214
      8          6           0        0.981356    0.583948    0.004428
      9          6           0       -0.093646    1.484666    0.029263
     10          6           0       -0.069088    2.748960    0.029934
     11         16           0        0.015324    4.258526    0.049338
     12          6           0       -1.895375    2.931902    0.039128
     13          6           0       -1.428368    1.530601    0.030501
     14          6           0       -1.813131    0.129957    0.013579
     15          6           0       -0.656470   -0.919838   -0.019564
     16         16           0       -1.475009   -2.369732   -0.006113
     17          6           0       -3.041935   -1.739527   -0.005573
     18          6           0       -4.083480   -2.651694   -0.016372
     19          6           0       -5.367666   -2.193595   -0.016986
     20          6           0       -5.583930   -0.822370   -0.006201
     21          7           0       -6.826563   -0.325036   -0.006091
     22         16           0       -6.659294    1.319623    0.008154
     23          7           0       -4.925016    1.453855    0.015065
     24          6           0       -4.524482    0.185214    0.006211
     25          6           0       -3.141889   -0.367886    0.006064
     26          6           0        0.906399   -0.897539   -0.064114
     27          6           0        2.368122   -2.126218   -0.157374
     28          6           0        3.885762   -3.037140   -0.297227
     29          6           0        4.585406    0.874269    0.070799
     30          7           0        5.064402    1.401690   -1.048695
     31          6           0        6.373767    1.575888   -1.008524
     32          7           0        7.185305    1.241267   -0.002781
     33          6           0        6.580430    0.667721    1.034026
     34          7           0        5.284698    0.453309    1.133857
     35          1           0        4.961861   -1.567912   -0.162885
     36          1           0        2.404820    2.358740    0.045438
     37          1           0       -0.654710    3.958789    0.060016
     38          1           0       -2.949827    3.169501    0.036706
     39          1           0       -3.869959   -3.715075   -0.024970
     40          1           0       -6.194885   -2.866903   -0.025370
     41          1           0        4.684803   -4.151701   -0.294897
     42          1           0        6.827240    2.044741   -1.874313
     43          1           0        7.201315    0.369396    1.871961
 ---------------------------------------------------------------------
 Rotational constants (GHZ):      0.2265530      0.0637398      0.0504523
 Standard basis: 6-31++G(d,p) (6D, 7F)
 There are   690 symmetry adapted basis functions of A   symmetry.
 Integral buffers will be    131072 words long.
 Raffenetti 2 integral format.
 Two-electron integral symmetry is turned on.
   690 basis functions,  1208 primitive gaussians,   690 cartesian basis functions
   123 alpha electrons      123 beta electrons
       nuclear repulsion energy      3562.5455493685 Hartrees.
 NAtoms=   43 NActive=   43 NUniq=   43 SFac= 1.00D+00 NAtFMM=   60 NAOKFM=F Big=F
 One-electron integrals computed using PRISM.
 NBasis=   690 RedAO= T  NBF=   690
 NBsUse=   673 1.00D-06 NBFU=   673
 Harris functional with IExCor=  402 diagonalized for initial guess.
 ExpMin= 3.31D-02 ExpMax= 2.19D+04 ExpMxC= 3.30D+03 IAcc=3 IRadAn=         5 AccDes= 0.00D+00
 HarFok:  IExCor=  402 AccDes= 0.00D+00 IRadAn=         5 IDoV= 1
 ScaDFX=  1.000000  1.000000  1.000000  1.000000
 FoFCou: FMM=F IPFlag=           0 FMFlag=      100000 FMFlg1=           0
         NFxFlg=           0 DoJE=T BraDBF=F KetDBF=T FulRan=T
         Omega=  0.000000  0.000000  1.000000  0.000000  0.000000 ICntrl=     500 IOpCl=  0
         NMat0=    1 NMatS0=    1 NMatT0=    0 NMatD0=    1 NMtDS0=    0 NMtDT0=    0
         I1Cent=           4 NGrid=           0.
 Petite list used in FoFCou.
 Initial guess orbital symmetries:
       Occupied  (A) (A) (A) (A) (A) (A) (A) (A) (A) (A) (A) (A)
                 (A) (A) (A) (A) (A) (A) (A) (A) (A) (A) (A) (A)
                 (A) (A) (A) (A) (A) (A) (A) (A) (A) (A) (A) (A)
                 (A) (A) (A) (A) (A) (A) (A) (A) (A) (A) (A) (A)
                 (A) (A) (A) (A) (A) (A) (A) (A) (A) (A) (A) (A)
                 (A) (A) (A) (A) (A) (A) (A) (A) (A) (A) (A) (A)
                 (A) (A) (A) (A) (A) (A) (A) (A) (A) (A) (A) (A)
                 (A) (A) (A) (A) (A) (A) (A) (A) (A) (A) (A) (A)
                 (A) (A) (A) (A) (A) (A) (A) (A) (A) (A) (A) (A)
                 (A) (A) (A) (A) (A) (A) (A) (A) (A) (A) (A) (A)
                 (A) (A) (A)
       Virtual   (A) (A) (A) (A) (A) (A) (A) (A) (A) (A) (A) (A)
                 (A) (A) (A) (A) (A) (A) (A) (A) (A) (A) (A) (A)
                 (A) (A) (A) (A) (A) (A) (A) (A) (A) (A) (A) (A)
                 (A) (A) (A) (A) (A) (A) (A) (A) (A) (A) (A) (A)
                 (A) (A) (A) (A) (A) (A) (A) (A) (A) (A) (A) (A)
                 (A) (A) (A) (A) (A) (A) (A) (A) (A) (A) (A) (A)
                 (A) (A) (A) (A) (A) (A) (A) (A) (A) (A) (A) (A)
                 (A) (A) (A) (A) (A) (A) (A) (A) (A) (A) (A) (A)
                 (A) (A) (A) (A) (A) (A) (A) (A) (A) (A) (A) (A)
                 (A) (A) (A) (A) (A) (A) (A) (A) (A) (A) (A) (A)
                 (A) (A) (A) (A) (A) (A) (A) (A) (A) (A) (A) (A)
                 (A) (A) (A) (A) (A) (A) (A) (A) (A) (A) (A) (A)
                 (A) (A) (A) (A) (A) (A) (A) (A) (A) (A) (A) (A)
                 (A) (A) (A) (A) (A) (A) (A) (A) (A) (A) (A) (A)
                 (A) (A) (A) (A) (A) (A) (A) (A) (A) (A) (A) (A)
                 (A) (A) (A) (A) (A) (A) (A) (A) (A) (A) (A) (A)
                 (A) (A) (A) (A) (A) (A) (A) (A) (A) (A) (A) (A)
                 (A) (A) (A) (A) (A) (A) (A) (A) (A) (A) (A) (A)
                 (A) (A) (A) (A) (A) (A) (A) (A) (A) (A) (A) (A)
                 (A) (A) (A) (A) (A) (A) (A) (A) (A) (A) (A) (A)
                 (A) (A) (A) (A) (A) (A) (A) (A) (A) (A) (A) (A)
                 (A) (A) (A) (A) (A) (A) (A) (A) (A) (A) (A) (A)
                 (A) (A) (A) (A) (A) (A) (A) (A) (A) (A) (A) (A)
                 (A) (A) (A) (A) (A) (A) (A) (A) (A) (A) (A) (A)
                 (A) (A) (A) (A) (A) (A) (A) (A) (A) (A) (A) (A)
                 (A) (A) (A) (A) (A) (A) (A) (A) (A) (A) (A) (A)
                 (A) (A) (A) (A) (A) (A) (A) (A) (A) (A) (A) (A)
                 (A) (A) (A) (A) (A) (A) (A) (A) (A) (A) (A) (A)
                 (A) (A) (A) (A) (A) (A) (A) (A) (A) (A) (A) (A)
                 (A) (A) (A) (A) (A) (A) (A) (A) (A) (A) (A) (A)
                 (A) (A) (A) (A) (A) (A) (A) (A) (A) (A) (A) (A)
                 (A) (A) (A) (A) (A) (A) (A) (A) (A) (A) (A) (A)
                 (A) (A) (A) (A) (A) (A) (A) (A) (A) (A) (A) (A)
                 (A) (A) (A) (A) (A) (A) (A) (A) (A) (A) (A) (A)
                 (A) (A) (A) (A) (A) (A) (A) (A) (A) (A) (A) (A)
                 (A) (A) (A) (A) (A) (A) (A) (A) (A) (A) (A) (A)
                 (A) (A) (A) (A) (A) (A) (A) (A) (A) (A) (A) (A)
                 (A) (A) (A) (A) (A) (A) (A) (A) (A) (A) (A) (A)
                 (A) (A) (A) (A) (A) (A) (A) (A) (A) (A) (A) (A)
                 (A) (A) (A) (A) (A) (A) (A) (A) (A) (A) (A) (A)
                 (A) (A) (A) (A) (A) (A) (A) (A) (A) (A) (A) (A)
                 (A) (A) (A) (A) (A) (A) (A) (A) (A) (A) (A) (A)
                 (A) (A) (A) (A) (A) (A) (A) (A) (A) (A) (A) (A)
                 (A) (A) (A) (A) (A) (A) (A) (A) (A) (A) (A) (A)
                 (A) (A) (A) (A) (A) (A) (A) (A) (A) (A) (A) (A)
                 (A) (A) (A) (A) (A) (A) (A) (A) (A) (A)
 The electronic state of the initial guess is 1-A.
 Requested convergence on RMS density matrix=1.00D-08 within 128 cycles.
 Requested convergence on MAX density matrix=1.00D-06.
 Requested convergence on             energy=1.00D-06.
 No special actions if energy rises.
 EnCoef did     7 forward-backward iterations
 EnCoef did   100 forward-backward iterations
 Restarting incremental Fock formation.
 SCF Done:  E(RB3LYP) =  -2639.15434731     A.U. after   25 cycles
             Convg  =    0.5777D-08             -V/T =  2.0031

 **********************************************************************

            Population analysis using the SCF density.

 **********************************************************************

 Orbital symmetries:
       Occupied  (A) (A) (A) (A) (A) (A) (A) (A) (A) (A) (A) (A)
                 (A) (A) (A) (A) (A) (A) (A) (A) (A) (A) (A) (A)
                 (A) (A) (A) (A) (A) (A) (A) (A) (A) (A) (A) (A)
                 (A) (A) (A) (A) (A) (A) (A) (A) (A) (A) (A) (A)
                 (A) (A) (A) (A) (A) (A) (A) (A) (A) (A) (A) (A)
                 (A) (A) (A) (A) (A) (A) (A) (A) (A) (A) (A) (A)
                 (A) (A) (A) (A) (A) (A) (A) (A) (A) (A) (A) (A)
                 (A) (A) (A) (A) (A) (A) (A) (A) (A) (A) (A) (A)
                 (A) (A) (A) (A) (A) (A) (A) (A) (A) (A) (A) (A)
                 (A) (A) (A) (A) (A) (A) (A) (A) (A) (A) (A) (A)
                 (A) (A) (A)
       Virtual   (A) (A) (A) (A) (A) (A) (A) (A) (A) (A) (A) (A)
                 (A) (A) (A) (A) (A) (A) (A) (A) (A) (A) (A) (A)
                 (A) (A) (A) (A) (A) (A) (A) (A) (A) (A) (A) (A)
                 (A) (A) (A) (A) (A) (A) (A) (A) (A) (A) (A) (A)
                 (A) (A) (A) (A) (A) (A) (A) (A) (A) (A) (A) (A)
                 (A) (A) (A) (A) (A) (A) (A) (A) (A) (A) (A) (A)
                 (A) (A) (A) (A) (A) (A) (A) (A) (A) (A) (A) (A)
                 (A) (A) (A) (A) (A) (A) (A) (A) (A) (A) (A) (A)
                 (A) (A) (A) (A) (A) (A) (A) (A) (A) (A) (A) (A)
                 (A) (A) (A) (A) (A) (A) (A) (A) (A) (A) (A) (A)
                 (A) (A) (A) (A) (A) (A) (A) (A) (A) (A) (A) (A)
                 (A) (A) (A) (A) (A) (A) (A) (A) (A) (A) (A) (A)
                 (A) (A) (A) (A) (A) (A) (A) (A) (A) (A) (A) (A)
                 (A) (A) (A) (A) (A) (A) (A) (A) (A) (A) (A) (A)
                 (A) (A) (A) (A) (A) (A) (A) (A) (A) (A) (A) (A)
                 (A) (A) (A) (A) (A) (A) (A) (A) (A) (A) (A) (A)
                 (A) (A) (A) (A) (A) (A) (A) (A) (A) (A) (A) (A)
                 (A) (A) (A) (A) (A) (A) (A) (A) (A) (A) (A) (A)
                 (A) (A) (A) (A) (A) (A) (A) (A) (A) (A) (A) (A)
                 (A) (A) (A) (A) (A) (A) (A) (A) (A) (A) (A) (A)
                 (A) (A) (A) (A) (A) (A) (A) (A) (A) (A) (A) (A)
                 (A) (A) (A) (A) (A) (A) (A) (A) (A) (A) (A) (A)
                 (A) (A) (A) (A) (A) (A) (A) (A) (A) (A) (A) (A)
                 (A) (A) (A) (A) (A) (A) (A) (A) (A) (A) (A) (A)
                 (A) (A) (A) (A) (A) (A) (A) (A) (A) (A) (A) (A)
                 (A) (A) (A) (A) (A) (A) (A) (A) (A) (A) (A) (A)
                 (A) (A) (A) (A) (A) (A) (A) (A) (A) (A) (A) (A)
                 (A) (A) (A) (A) (A) (A) (A) (A) (A) (A) (A) (A)
                 (A) (A) (A) (A) (A) (A) (A) (A) (A) (A) (A) (A)
                 (A) (A) (A) (A) (A) (A) (A) (A) (A) (A) (A) (A)
                 (A) (A) (A) (A) (A) (A) (A) (A) (A) (A) (A) (A)
                 (A) (A) (A) (A) (A) (A) (A) (A) (A) (A) (A) (A)
                 (A) (A) (A) (A) (A) (A) (A) (A) (A) (A) (A) (A)
                 (A) (A) (A) (A) (A) (A) (A) (A) (A) (A) (A) (A)
                 (A) (A) (A) (A) (A) (A) (A) (A) (A) (A) (A) (A)
                 (A) (A) (A) (A) (A) (A) (A) (A) (A) (A) (A) (A)
                 (A) (A) (A) (A) (A) (A) (A) (A) (A) (A) (A) (A)
                 (A) (A) (A) (A) (A) (A) (A) (A) (A) (A) (A) (A)
                 (A) (A) (A) (A) (A) (A) (A) (A) (A) (A) (A) (A)
                 (A) (A) (A) (A) (A) (A) (A) (A) (A) (A) (A) (A)
                 (A) (A) (A) (A) (A) (A) (A) (A) (A) (A) (A) (A)
                 (A) (A) (A) (A) (A) (A) (A) (A) (A) (A) (A) (A)
                 (A) (A) (A) (A) (A) (A) (A) (A) (A) (A) (A) (A)
                 (A) (A) (A) (A) (A) (A) (A) (A) (A) (A) (A) (A)
                 (A) (A) (A) (A) (A) (A) (A) (A) (A) (A) (A) (A)
                 (A) (A) (A) (A) (A) (A) (A) (A) (A) (A)
 The electronic state is 1-A.
 Alpha  occ. eigenvalues --  -88.96798 -88.92171 -88.88328 -66.14715 -14.38333
 Alpha  occ. eigenvalues --  -14.37821 -14.37265 -14.36975 -14.36948 -10.29284
 Alpha  occ. eigenvalues --  -10.29107 -10.29012 -10.27964 -10.27655 -10.26264
 Alpha  occ. eigenvalues --  -10.24735 -10.24617 -10.23059 -10.22904 -10.22747
 Alpha  occ. eigenvalues --  -10.22370 -10.22229 -10.21798 -10.21700 -10.21604
 Alpha  occ. eigenvalues --  -10.21586 -10.21427 -10.20523 -10.20361 -10.19303
 Alpha  occ. eigenvalues --  -10.18905 -10.16784  -8.02134  -8.00524  -7.98351
 Alpha  occ. eigenvalues --   -5.98715  -5.98155  -5.97807  -5.97537  -5.95545
 Alpha  occ. eigenvalues --   -5.94882  -5.94730  -5.94338  -5.94126  -5.30813
 Alpha  occ. eigenvalues --   -3.66814  -3.66604  -3.66359  -1.05834  -1.03075
 Alpha  occ. eigenvalues --   -1.01801  -1.00936  -0.93844  -0.93413  -0.92680
 Alpha  occ. eigenvalues --   -0.90706  -0.89534  -0.86774  -0.84315  -0.79570
 Alpha  occ. eigenvalues --   -0.78281  -0.77381  -0.75239  -0.73606  -0.71109
 Alpha  occ. eigenvalues --   -0.70178  -0.69384  -0.67547  -0.65959  -0.64005
 Alpha  occ. eigenvalues --   -0.62395  -0.61480  -0.59698  -0.58432  -0.57655
 Alpha  occ. eigenvalues --   -0.56672  -0.55268  -0.54239  -0.52220  -0.51059
 Alpha  occ. eigenvalues --   -0.50555  -0.50146  -0.49770  -0.48932  -0.48679
 Alpha  occ. eigenvalues --   -0.47862  -0.47290  -0.46956  -0.45942  -0.45630
 Alpha  occ. eigenvalues --   -0.45206  -0.44851  -0.43088  -0.42655  -0.42252
 Alpha  occ. eigenvalues --   -0.41300  -0.40928  -0.39719  -0.39262  -0.38308
 Alpha  occ. eigenvalues --   -0.38190  -0.37184  -0.36273  -0.35614  -0.35057
 Alpha  occ. eigenvalues --   -0.34865  -0.34574  -0.34011  -0.32926  -0.32725
 Alpha  occ. eigenvalues --   -0.32209  -0.31041  -0.29538  -0.29113  -0.27644
 Alpha  occ. eigenvalues --   -0.27522  -0.26025  -0.24057  -0.23780  -0.22050
 Alpha  occ. eigenvalues --   -0.21985  -0.21609  -0.16540
 Alpha virt. eigenvalues --   -0.11441  -0.09142  -0.08910  -0.07672  -0.07075
 Alpha virt. eigenvalues --   -0.06725  -0.05238  -0.04193  -0.02971  -0.01918
 Alpha virt. eigenvalues --   -0.01277  -0.01040  -0.00590  -0.00510  -0.00292
 Alpha virt. eigenvalues --   -0.00138   0.00802   0.00929   0.01186   0.01537
 Alpha virt. eigenvalues --    0.01974   0.02328   0.02710   0.02762   0.03318
 Alpha virt. eigenvalues --    0.03637   0.03870   0.04127   0.04412   0.04739
 Alpha virt. eigenvalues --    0.04775   0.04876   0.05312   0.05585   0.05906
 Alpha virt. eigenvalues --    0.05968   0.06604   0.06978   0.07319   0.07685
 Alpha virt. eigenvalues --    0.07909   0.08139   0.08309   0.08662   0.08782
 Alpha virt. eigenvalues --    0.09261   0.09367   0.09492   0.09947   0.10318
 Alpha virt. eigenvalues --    0.10507   0.10605   0.10711   0.11222   0.11443
 Alpha virt. eigenvalues --    0.11464   0.11543   0.11762   0.11844   0.12192
 Alpha virt. eigenvalues --    0.12219   0.12487   0.12825   0.12959   0.13160
 Alpha virt. eigenvalues --    0.13427   0.13843   0.14076   0.14369   0.14517
 Alpha virt. eigenvalues --    0.14649   0.15162   0.15281   0.15466   0.15582
 Alpha virt. eigenvalues --    0.15996   0.16216   0.16464   0.16734   0.16843
 Alpha virt. eigenvalues --    0.17328   0.17495   0.17674   0.17835   0.18378
 Alpha virt. eigenvalues --    0.18423   0.18669   0.18756   0.18884   0.19297
 Alpha virt. eigenvalues --    0.19557   0.19835   0.19908   0.20137   0.20620
 Alpha virt. eigenvalues --    0.20928   0.21190   0.21437   0.21850   0.22056
 Alpha virt. eigenvalues --    0.22135   0.22350   0.22813   0.22901   0.23074
 Alpha virt. eigenvalues --    0.23450   0.23742   0.23875   0.24166   0.24505
 Alpha virt. eigenvalues --    0.24735   0.24988   0.25178   0.25386   0.25542
 Alpha virt. eigenvalues --    0.25753   0.26059   0.26182   0.26523   0.26780
 Alpha virt. eigenvalues --    0.26854   0.27414   0.27749   0.27803   0.28142
 Alpha virt. eigenvalues --    0.28194   0.28578   0.28691   0.28869   0.29201
 Alpha virt. eigenvalues --    0.29534   0.29785   0.30100   0.30432   0.30491
 Alpha virt. eigenvalues --    0.30809   0.31094   0.31254   0.31471   0.31847
 Alpha virt. eigenvalues --    0.32157   0.32508   0.32603   0.33143   0.33355
 Alpha virt. eigenvalues --    0.33518   0.33695   0.33814   0.34456   0.35047
 Alpha virt. eigenvalues --    0.35312   0.35704   0.36262   0.36385   0.36642
 Alpha virt. eigenvalues --    0.36949   0.37056   0.37462   0.38065   0.38564
 Alpha virt. eigenvalues --    0.38816   0.39238   0.39597   0.39947   0.40931
 Alpha virt. eigenvalues --    0.41357   0.41827   0.42186   0.42530   0.42699
 Alpha virt. eigenvalues --    0.43076   0.44806   0.45075   0.45564   0.45637
 Alpha virt. eigenvalues --    0.47428   0.47529   0.48486   0.48905   0.49156
 Alpha virt. eigenvalues --    0.49619   0.50085   0.50775   0.51073   0.51565
 Alpha virt. eigenvalues --    0.52016   0.52812   0.55009   0.55950   0.56334
 Alpha virt. eigenvalues --    0.57782   0.58151   0.59568   0.59597   0.61567
 Alpha virt. eigenvalues --    0.63288   0.63580   0.64455   0.64838   0.65585
 Alpha virt. eigenvalues --    0.65714   0.66255   0.67163   0.67264   0.67698
 Alpha virt. eigenvalues --    0.67746   0.68222   0.68592   0.68681   0.68996
 Alpha virt. eigenvalues --    0.69445   0.69669   0.70170   0.70602   0.71124
 Alpha virt. eigenvalues --    0.71822   0.72553   0.72909   0.73476   0.74328
 Alpha virt. eigenvalues --    0.74490   0.75112   0.75408   0.76162   0.76639
 Alpha virt. eigenvalues --    0.76796   0.77259   0.77653   0.77997   0.78261
 Alpha virt. eigenvalues --    0.78700   0.79174   0.79861   0.80446   0.80857
 Alpha virt. eigenvalues --    0.81639   0.82018   0.82583   0.82924   0.83141
 Alpha virt. eigenvalues --    0.83336   0.83618   0.85048   0.85398   0.85862
 Alpha virt. eigenvalues --    0.86848   0.87015   0.87905   0.88318   0.88444
 Alpha virt. eigenvalues --    0.89140   0.90309   0.90729   0.91211   0.91895
 Alpha virt. eigenvalues --    0.93250   0.93646   0.94284   0.94534   0.95539
 Alpha virt. eigenvalues --    0.95805   0.96232   0.96591   0.97066   0.97795
 Alpha virt. eigenvalues --    0.98620   0.99136   0.99642   0.99979   1.00337
 Alpha virt. eigenvalues --    1.01228   1.01789   1.02168   1.02826   1.03450
 Alpha virt. eigenvalues --    1.03700   1.04420   1.04813   1.06040   1.06619
 Alpha virt. eigenvalues --    1.07172   1.07207   1.07981   1.08641   1.08772
 Alpha virt. eigenvalues --    1.10422   1.11435   1.11879   1.12548   1.13617
 Alpha virt. eigenvalues --    1.14815   1.14965   1.15427   1.16157   1.16829
 Alpha virt. eigenvalues --    1.18218   1.18567   1.19818   1.20249   1.20511
 Alpha virt. eigenvalues --    1.20810   1.21571   1.21763   1.21839   1.22394
 Alpha virt. eigenvalues --    1.23371   1.23651   1.24168   1.24403   1.25055
 Alpha virt. eigenvalues --    1.25494   1.26899   1.27766   1.27852   1.28475
 Alpha virt. eigenvalues --    1.28717   1.28913   1.29586   1.30420   1.31175
 Alpha virt. eigenvalues --    1.32686   1.32856   1.33657   1.33795   1.34184
 Alpha virt. eigenvalues --    1.35168   1.36156   1.36653   1.37296   1.38205
 Alpha virt. eigenvalues --    1.38690   1.39085   1.40114   1.40766   1.41569
 Alpha virt. eigenvalues --    1.42099   1.42901   1.43942   1.44628   1.45717
 Alpha virt. eigenvalues --    1.45884   1.47321   1.50148   1.50768   1.51521
 Alpha virt. eigenvalues --    1.52594   1.53272   1.53906   1.54537   1.55828
 Alpha virt. eigenvalues --    1.56624   1.57206   1.57663   1.59033   1.60162
 Alpha virt. eigenvalues --    1.62629   1.64110   1.65213   1.65645   1.66246
 Alpha virt. eigenvalues --    1.69264   1.69687   1.70605   1.72796   1.73495
 Alpha virt. eigenvalues --    1.74736   1.75263   1.76613   1.77867   1.78593
 Alpha virt. eigenvalues --    1.78682   1.79365   1.79744   1.81395   1.82270
 Alpha virt. eigenvalues --    1.82915   1.84631   1.84976   1.85610   1.86312
 Alpha virt. eigenvalues --    1.87411   1.87496   1.89248   1.90426   1.90863
 Alpha virt. eigenvalues --    1.91885   1.93546   1.94224   1.95139   1.96897
 Alpha virt. eigenvalues --    1.98058   1.98378   1.98977   2.00017   2.00281
 Alpha virt. eigenvalues --    2.01021   2.03396   2.04471   2.07117   2.07805
 Alpha virt. eigenvalues --    2.08136   2.09340   2.10392   2.11060   2.11401
 Alpha virt. eigenvalues --    2.11928   2.12556   2.13282   2.13692   2.14113
 Alpha virt. eigenvalues --    2.16347   2.17326   2.20057   2.20608   2.21084
 Alpha virt. eigenvalues --    2.21248   2.22467   2.23067   2.24080   2.25112
 Alpha virt. eigenvalues --    2.26060   2.27419   2.27949   2.29001   2.29978
 Alpha virt. eigenvalues --    2.30852   2.31519   2.31835   2.31913   2.33192
 Alpha virt. eigenvalues --    2.33984   2.34441   2.36068   2.36508   2.36746
 Alpha virt. eigenvalues --    2.38341   2.38848   2.39133   2.40034   2.41065
 Alpha virt. eigenvalues --    2.41887   2.43062   2.45504   2.46202   2.46698
 Alpha virt. eigenvalues --    2.48051   2.49102   2.49197   2.50007   2.50383
 Alpha virt. eigenvalues --    2.50846   2.51517   2.52200   2.52493   2.54083
 Alpha virt. eigenvalues --    2.55240   2.55609   2.57209   2.58237   2.58953
 Alpha virt. eigenvalues --    2.59613   2.60767   2.61222   2.62200   2.62767
 Alpha virt. eigenvalues --    2.63398   2.64285   2.64765   2.66082   2.67866
 Alpha virt. eigenvalues --    2.68635   2.69169   2.69825   2.70528   2.71371
 Alpha virt. eigenvalues --    2.71506   2.73979   2.74965   2.75138   2.75973
 Alpha virt. eigenvalues --    2.77572   2.78443   2.79913   2.81300   2.82224
 Alpha virt. eigenvalues --    2.85223   2.88343   2.89003   2.91547   2.92090
 Alpha virt. eigenvalues --    2.94966   2.95976   2.98873   3.00817   3.02693
 Alpha virt. eigenvalues --    3.06866   3.08390   3.10011   3.13813   3.14798
 Alpha virt. eigenvalues --    3.15577   3.18006   3.19149   3.22880   3.25211
 Alpha virt. eigenvalues --    3.26591   3.27532   3.30221   3.33579   3.35319
 Alpha virt. eigenvalues --    3.42034   3.43508   3.47117   3.54825   3.60632
 Alpha virt. eigenvalues --    3.63674   3.75611   3.75942   3.92996   3.95920
 Alpha virt. eigenvalues --    4.02015   4.11794   4.18993   4.21170   4.21749
 Alpha virt. eigenvalues --    4.24174   4.28311   4.30394   4.33927   4.34934
 Alpha virt. eigenvalues --    4.36248   4.37375   4.39664   4.40888   4.42178
 Alpha virt. eigenvalues --    4.44601   4.45407   4.47745   4.49125   4.51422
 Alpha virt. eigenvalues --    4.53168   4.54686   4.59171   4.61082   4.68985
 Alpha virt. eigenvalues --    4.70597   4.76029   4.80074   4.89026   4.94535
          Condensed to atoms (all electrons):
              1          2          3          4          5          6
     1  Si  13.849268   0.211639   0.269370   0.686692   0.037429   0.215828
     2  H    0.211639   0.765264  -0.022208  -0.194994  -0.103333   0.045311
     3  H    0.269370  -0.022208   0.706169   0.617000   0.346548   0.004210
     4  C    0.686692  -0.194994   0.617000  27.433208  10.440020   1.978981
     5  C    0.037429  -0.103333   0.346548  10.440020  19.713660  -0.550271
     6  C    0.215828   0.045311   0.004210   1.978981  -0.550271  13.819081
     7  C   -0.055519   0.012340  -0.002146  -0.083042   1.029536  -1.085118
     8  C    0.107513   0.057898  -0.053497  -2.488797  -5.706671  -0.785760
     9  C   -0.058681   0.026804  -0.018122  -0.830725  -2.267850  -0.663508
    10  C   -0.001235  -0.003234   0.005264   0.213874  -1.090174   0.824549
    11  S    0.000302  -0.001115   0.001109   0.040303  -0.171266   0.398523
    12  C    0.016092  -0.001501   0.001329   0.117788  -0.180733   0.736176
    13  C    0.051097  -0.003892   0.000300   0.167958   0.222753  -0.055139
    14  C   -0.061978  -0.003495  -0.003666  -0.319808  -0.357135  -0.345461
    15  C    0.016344  -0.054942   0.006298  -0.323010   1.222015  -1.155547
    16  S   -0.194626   0.027828  -0.012951  -0.623416  -0.724888  -0.224258
    17  C   -0.028811   0.010761  -0.006862  -0.073081  -0.261274   0.024298
    18  C    0.003674  -0.000222   0.000658   0.016760   0.022744  -0.005435
    19  C    0.004812  -0.000573   0.000620   0.009597  -0.002841   0.006609
    20  C    0.000037   0.000558  -0.000708  -0.009964  -0.013103  -0.024970
    21  N    0.000003  -0.000001   0.000002   0.000009   0.000002  -0.000002
    22  S   -0.000045   0.000015  -0.000018  -0.000195  -0.000676  -0.000883
    23  N    0.000090  -0.000007   0.000004   0.000253   0.001415   0.000746
    24  C   -0.012140   0.003163  -0.003007  -0.069499  -0.187837  -0.138258
    25  C   -0.015145   0.002477  -0.004149  -0.084847   0.151129  -0.088040
    26  C   -0.833123   0.197006  -0.455746 -10.538282  -8.206171  -3.242899
    27  C    0.263170   0.201082  -0.450442 -10.544987  -7.910230   3.569148
    28  C   -0.827878  -0.135296   0.008640 -10.560789  -0.361814  -5.998143
    29  C    0.091613  -0.009252   0.004230   0.646774   0.009562   0.331513
    30  N   -0.001041   0.000263  -0.000064   0.104958   0.177363  -0.476689
    31  C    0.022002   0.001760  -0.004477  -0.113180  -0.013243   0.028595
    32  N    0.001067   0.001104  -0.000962  -0.006159  -0.000053   0.060896
    33  C   -0.005119  -0.007243   0.005578   0.412419  -0.020626  -0.104081
    34  N   -0.010788  -0.006893   0.005703   0.421873   0.416497  -0.483230
    35  H    0.076192  -0.013121   0.010599   0.208019  -0.196026   0.013633
    36  H    0.004382   0.000186  -0.000584   0.015707   0.107335   0.052692
    37  H   -0.000910   0.000399  -0.000350  -0.019054   0.049558  -0.134465
    38  H    0.000173  -0.000064   0.000066   0.003426  -0.003278   0.020001
    39  H   -0.001825   0.000060  -0.000013  -0.002129  -0.001199  -0.000583
    40  H    0.000055   0.000016  -0.000014   0.000037  -0.000185   0.000035
    41  H   -0.052677  -0.024892   0.003328  -0.099254   0.066005  -0.038632
    42  H    0.000112  -0.000005  -0.000029  -0.001746   0.002183  -0.012962
    43  H   -0.002538   0.000828  -0.000081   0.022538  -0.006626  -0.017358
              7          8          9         10         11         12
     1  Si  -0.055519   0.107513  -0.058681  -0.001235   0.000302   0.016092
     2  H    0.012340   0.057898   0.026804  -0.003234  -0.001115  -0.001501
     3  H   -0.002146  -0.053497  -0.018122   0.005264   0.001109   0.001329
     4  C   -0.083042  -2.488797  -0.830725   0.213874   0.040303   0.117788
     5  C    1.029536  -5.706671  -2.267850  -1.090174  -0.171266  -0.180733
     6  C   -1.085118  -0.785760  -0.663508   0.824549   0.398523   0.736176
     7  C   12.028710  -1.313845  -1.975842  -1.121880  -0.340878  -0.933096
     8  C   -1.313845  14.904765   3.294459   0.475748  -1.851435  -2.390612
     9  C   -1.975842   3.294459  12.457572  -0.258119  -1.008620  -2.935848
    10  C   -1.121880   0.475748  -0.258119  13.589618  -4.872984  -0.584485
    11  S   -0.340878  -1.851435  -1.008620  -4.872984  22.133919   2.494990
    12  C   -0.933096  -2.390612  -2.935848  -0.584485   2.494990  14.511026
    13  C    0.443585   0.590389  -0.119756  -0.106284  -0.626770  -4.351566
    14  C   -0.185249  -0.206328  -0.263696   0.300726  -0.223365   1.198853
    15  C   -0.112844   0.018815   0.838874  -0.255006  -0.097007  -1.253749
    16  S   -0.021983   0.361497   0.162686   0.034331   0.010899  -0.107305
    17  C    0.098346   0.022979  -0.429151   0.194797  -0.041050   0.134027
    18  C   -0.009531  -0.002854  -0.065897   0.026837  -0.002426  -0.075443
    19  C   -0.019769  -0.019388  -0.265577   0.087296   0.004127   0.033134
    20  C    0.141594   0.034782   0.443735   0.031520  -0.020729  -0.108704
    21  N   -0.000478  -0.002687  -0.001880  -0.000253   0.000129   0.005069
    22  S    0.002568  -0.003307   0.032396  -0.001319  -0.002689  -0.038048
    23  N   -0.005749  -0.015148  -0.006071  -0.032816   0.024501  -0.031253
    24  C    0.287828   0.087974   0.787521   0.245418  -0.130036  -0.946189
    25  C    0.525366  -0.150154  -0.005567  -0.668728   0.061630   0.375780
    26  C   -0.424182   0.783970  -0.196427  -0.695549   0.317113   0.886220
    27  C   -0.035631   3.251298  -0.516297   0.356373   0.041727   0.341257
    28  C   -1.050999  -3.326054  -0.316192  -0.355564  -0.038193  -0.066820
    29  C   -0.389945   0.376301  -0.461565  -0.099656  -0.054622  -0.010712
    30  N    0.361984  -0.118556  -0.002861  -0.008917  -0.004457  -0.001319
    31  C   -0.233448   0.103195  -0.000071  -0.016216  -0.004796  -0.003372
    32  N   -0.078745   0.002281  -0.008371  -0.002449  -0.001042  -0.000238
    33  C   -0.006331  -0.095515   0.013656   0.015335   0.003320   0.003202
    34  N    0.360553  -0.267920   0.016959   0.012731   0.001569   0.001978
    35  H   -0.123210  -0.158105  -0.029364  -0.007066   0.001870   0.001811
    36  H    0.407418  -0.210503  -0.101673  -0.036623  -0.115124   0.012940
    37  H    0.236520   0.388724   0.163108   0.824295  -0.963074  -0.919021
    38  H   -0.067353  -0.070360  -0.100705  -0.353017   0.361691   0.855208
    39  H   -0.001417  -0.000013   0.011239  -0.001736  -0.000091  -0.004085
    40  H   -0.000180  -0.000627  -0.002950   0.000799  -0.000044  -0.000317
    41  H   -0.003733  -0.016675  -0.001301  -0.001147  -0.000110  -0.000158
    42  H    0.001147   0.003488   0.000811   0.000482   0.000235  -0.000077
    43  H    0.021467   0.003356   0.002864   0.001432   0.000082   0.000148
             13         14         15         16         17         18
     1  Si   0.051097  -0.061978   0.016344  -0.194626  -0.028811   0.003674
     2  H   -0.003892  -0.003495  -0.054942   0.027828   0.010761  -0.000222
     3  H    0.000300  -0.003666   0.006298  -0.012951  -0.006862   0.000658
     4  C    0.167958  -0.319808  -0.323010  -0.623416  -0.073081   0.016760
     5  C    0.222753  -0.357135   1.222015  -0.724888  -0.261274   0.022744
     6  C   -0.055139  -0.345461  -1.155547  -0.224258   0.024298  -0.005435
     7  C    0.443585  -0.185249  -0.112844  -0.021983   0.098346  -0.009531
     8  C    0.590389  -0.206328   0.018815   0.361497   0.022979  -0.002854
     9  C   -0.119756  -0.263696   0.838874   0.162686  -0.429151  -0.065897
    10  C   -0.106284   0.300726  -0.255006   0.034331   0.194797   0.026837
    11  S   -0.626770  -0.223365  -0.097007   0.010899  -0.041050  -0.002426
    12  C   -4.351566   1.198853  -1.253749  -0.107305   0.134027  -0.075443
    13  C   11.796883  -0.859018   0.229913  -0.105206  -0.586768   0.256560
    14  C   -0.859018   9.423109   0.210945  -0.272429  -0.835078  -0.556916
    15  C    0.229913   0.210945  10.085934  -0.365001  -1.129237  -0.248028
    16  S   -0.105206  -0.272429  -0.365001  17.572787   0.455793   0.363408
    17  C   -0.586768  -0.835078  -1.129237   0.455793  11.332571   0.020502
    18  C    0.256560  -0.556916  -0.248028   0.363408   0.020502   8.085763
    19  C    0.513924  -1.224189  -0.333997  -0.012095  -3.511839   1.493541
    20  C   -1.270307  -2.352184  -0.069681   0.107037   4.597855  -0.658026
    21  N    0.014896   0.079642   0.006025  -0.002073  -0.030554   0.021900
    22  S    0.018608  -0.071090  -0.002151  -0.012256  -0.039173  -0.012132
    23  N    0.189416   0.041711   0.021605  -0.011612  -0.067950   0.024625
    24  C    0.341554  -0.105735  -0.259606  -0.043021  -1.380789  -0.969007
    25  C   -0.351107   2.180535  -0.241730  -0.482881  -2.059232  -1.212580
    26  C   -1.005315   1.298508  -0.366309   0.896584   0.456083  -0.198202
    27  C    0.102323  -0.887949  -1.057616  -0.299178  -0.032199  -0.041365
    28  C   -0.123644   0.193366   1.233790  -0.123172  -0.042968  -0.000672
    29  C    0.180205  -0.029169  -0.093721  -0.025736  -0.013710   0.001113
    30  N   -0.000157  -0.004442  -0.005955  -0.003902  -0.000022  -0.000029
    31  C   -0.001087   0.003229   0.000069   0.000118  -0.000033  -0.000008
[...]
 1401,0.30075813,0.00004263,0.00003070,0.00004320,-0.00001066,-0.000005
 72,-0.00001330,-0.00000798,-0.00000877,-0.00001050,-0.00000530,-0.0000
 0027,-0.00000005,0.00003878,-0.00001407,-0.00002048,0.00000708,0.00001
 838,0.00004282,-0.00005877,0.00000182,-0.00000509,0.00001894,0.0000059
 8,0.00002405,-0.00003581,-0.00001914,-0.00005506,0.00004206,0.00000018
 ,0.00001696,-0.00000813,0.00000289,0.00000150,-0.00002775,0.00001204,0
 .00002014,0.00000463,0.00000170,0.00001083,0.00015214,0.00004131,0.000
 12794,-0.00017984,-0.00018904,-0.00046300,-0.00046926,0.00028361,0.000
 58061,-0.00096692,-0.00117845,-0.00332482,-0.01669146,0.00438644,0.008
 52736,-0.31374879,0.04478339,0.08200346,-0.00088450,0.00002525,-0.0002
 2278,0.00060098,-0.00015201,-0.00015641,0.00002338,0.00018525,0.000458
 83,0.00013355,-0.00010092,-0.00024855,0.00091603,-0.00000543,-0.000214
 21,0.00010140,-0.00006110,-0.00007452,0.00002818,0.00003614,0.00010919
 ,-0.00004494,-0.00000350,-0.00001387,0.00000403,-0.00000917,-0.0000102
 7,0.00001937,0.00000042,0.00000101,-0.00001600,0.,0.00000491,0.0000100
 2,-0.00000100,-0.00000113,-0.00000802,0.00000036,-0.00000233,0.0000076
 3,-0.00000067,0.00000303,-0.00001256,0.00000324,-0.00000320,-0.0000009
 6,-0.00000020,-0.00000044,-0.00000274,0.00000022,-0.00000105,0.0000015
 9,-0.00000055,0.00000028,0.00000222,0.00000029,-0.00000118,0.00093262,
 -0.00017225,0.00007506,0.33010177,0.00001137,0.00000959,0.00003596,0.0
 0001533,0.00000754,0.00001705,-0.00001519,-0.00001919,-0.00002625,-0.0
 0000332,0.00001056,-0.00000494,-0.00000798,-0.00003595,0.00003370,-0.0
 0002584,-0.00001018,-0.00001280,0.00002652,0.00003543,0.00000152,-0.00
 004165,-0.00002532,-0.00004396,0.00002722,0.00005024,0.00001716,0.0000
 0061,-0.00004252,-0.00000162,-0.00000622,0.00000239,0.00000659,0.00000
 162,0.00003956,-0.00000199,0.00000355,-0.00010435,0.00001411,-0.000046
 11,-0.00024449,0.00018092,-0.00008142,-0.00000183,-0.00008548,-0.00017
 412,0.00089754,-0.00011242,-0.00097835,0.00623734,-0.00367511,-0.00756
 237,0.00498281,0.00226819,0.04495415,-0.04490114,-0.02301477,0.0123018
 4,0.00130937,-0.00327137,-0.00020223,-0.00120406,0.00191214,0.00018762
 ,-0.00045195,0.00006026,0.00053451,0.00004507,-0.00071179,-0.00086627,
 0.00244085,-0.00283490,-0.00010376,-0.00078052,0.00002810,-0.00003148,
 -0.00032545,0.00018981,0.00000049,0.00004935,-0.00001602,0.00000073,-0
 .00001465,0.00000458,0.00003037,0.00000689,-0.00000846,-0.00001441,0.0
 0000079,0.00000934,0.00001019,-0.00000373,-0.00000169,-0.00000755,0.00
 000303,-0.00000028,0.00000666,-0.00000379,0.00000090,-0.00001367,0.,-0
 .00000665,-0.00000108,0.00000443,-0.00000169,-0.00000103,-0.00001029,0
 .00000451,-0.00000008,0.00000267,-0.00000084,-0.00000702,0.00002575,-0
 .00000340,-0.00002041,-0.00450553,0.00242296,-0.04789778,0.03652171,0.
 00004215,0.00004054,0.00005305,-0.00001522,-0.00001166,-0.00002760,0.0
 0000231,-0.00000310,-0.00000343,-0.00000847,-0.00000327,0.00000522,-0.
 00001302,0.00003612,0.00001142,-0.00003917,-0.00001150,-0.00003677,0.0
 0004335,0.00000082,0.00004358,-0.00009264,-0.00002981,-0.00007079,0.00
 003911,0.00000413,0.00004706,0.00002843,0.00000294,-0.00002418,-0.0000
 1270,0.00000500,0.00001424,-0.00001430,0.00000758,0.00004850,0.0000062
 8,0.00000816,-0.00008855,-0.00008668,0.00017999,0.00008670,-0.00022910
 ,-0.00007737,-0.00017147,-0.00048390,-0.00010849,0.00070843,-0.0028787
 7,-0.00365606,-0.00076663,-0.01867856,0.00314274,0.00956923,0.08236017
 ,-0.02305120,-0.08005236,0.02779596,-0.00414506,-0.00434368,-0.0002694
 0,0.00190981,0.00229343,0.00046717,0.00006456,-0.00029294,0.00120375,-
 0.00076060,-0.00127404,-0.00219968,-0.00277355,-0.00283740,-0.00015493
 ,0.00001741,-0.00076360,-0.00001159,0.00019689,0.00004156,0.00000862,-
 0.00001870,0.00002094,0.00000319,0.00000041,-0.00001028,0.00005148,-0.
 00001228,-0.00000177,-0.00002339,0.00000378,0.00001426,0.00001330,0.00
 000013,-0.00000345,-0.00001344,0.00000127,0.00000221,0.00001703,-0.000
 00332,0.00000041,-0.00002777,0.00000479,-0.00001160,-0.00000107,-0.000
 00182,0.00000144,-0.00000511,0.00000538,-0.00000198,-0.00000206,0.0000
 0072,-0.00000078,-0.00002124,-0.00000349,0.00001911,0.00041700,0.00240
 953,-0.00003920,-0.08720796,0.02662993,0.07784203,-0.00047641,-0.00616
 281,-0.01072653,-0.00077062,-0.00014299,0.00048139,-0.00072417,0.00051
 081,0.00009749,0.01040222,0.01074242,0.01910617,-0.00267976,0.00179019
 ,0.00212953,0.00080851,0.00024775,0.00034329,0.00009093,0.00005776,0.0
 0027428,-0.00048806,-0.00013663,-0.00042377,0.00019437,0.00016328,0.00
 036028,-0.00023116,-0.00008300,-0.00025230,-0.00003649,0.00001496,0.00
 007153,0.00011780,-0.00010299,-0.00017958,0.00008460,0.00003263,0.0000
 9666,-0.00003712,-0.00001190,-0.00001699,0.00003129,0.00006849,0.00016
 375,-0.00001020,0.00007101,0.00006924,0.00016817,-0.00007571,-0.000076
 10,0.00001128,-0.00003003,-0.00006871,-0.00003707,0.00000957,0.0000155
 5,-0.00002642,0.00000548,0.00001670,-0.00002455,0.00000630,0.00001096,
 -0.00000629,-0.00001550,-0.00003422,-0.00001084,-0.00000579,-0.0000138
 8,0.00005817,0.00000397,-0.00000400,-0.00011582,-0.00003068,-0.0000837
 2,0.00118420,-0.00024582,-0.00033313,-0.00355802,-0.00097820,-0.001936
 50,-0.09135420,-0.05591516,-0.10161012,0.00021575,-0.00007606,-0.00006
 402,-0.00002547,0.00002433,0.00000432,0.00002165,0.00000558,0.00001406
 ,-0.00000606,0.00001038,-0.00003230,-0.00000743,0.00000290,0.00002697,
 -0.00002288,-0.00012469,-0.00009557,0.00127772,-0.00058707,-0.00053975
 ,0.00006426,0.00002279,0.00009334,-0.00000816,0.00000968,-0.00000594,0
 .00002129,-0.00000343,-0.00000454,0.00000608,0.00000289,0.00000873,-0.
 00000750,-0.00000275,-0.00000712,0.08592129,0.00161794,0.00076140,0.00
 026314,0.00005272,-0.00004783,0.00027405,-0.00029040,-0.00038519,-0.00
 024487,-0.00627222,-0.00184342,-0.01056078,0.00210454,0.00725587,-0.00
 475415,-0.00046858,0.00001938,-0.00074059,0.00034216,-0.00063345,0.000
 31103,-0.00021748,0.00021228,0.00000851,0.00001842,-0.00025364,0.00019
 407,-0.00000584,-0.00009236,0.00002301,0.00000614,0.00002600,0.0000099
 9,-0.00001978,0.00003403,-0.00004441,0.00003107,0.00001227,-0.00004669
 ,-0.00003420,0.00003050,0.00002914,-0.00000692,0.00003953,-0.00003345,
 0.00000543,-0.00010551,0.00001319,-0.00001010,0.00008372,-0.00001486,0
 .00001611,-0.00000726,-0.00000363,-0.00001026,0.00000053,-0.00000581,-
 0.00000268,0.,0.00001045,-0.00000643,-0.00000035,0.00000091,0.00000356
 ,0.00000305,-0.00000750,-0.00000159,-0.00000610,0.00000481,-0.00000443
 ,-0.00002198,0.00000416,0.00002633,-0.00001154,-0.00000527,-0.00001827
 ,0.00085060,-0.00058208,0.00050466,-0.00016950,0.00074195,-0.04775773,
 -0.09365656,-0.11646525,-0.00000677,0.00038108,-0.00022509,-0.00001823
 ,-0.00008166,0.00000314,0.00005837,-0.00001889,0.00006442,0.00008520,0
 .00005574,-0.00010375,-0.00022325,-0.00010143,-0.00002939,0.00032550,-
 0.00009819,-0.00012529,-0.00074941,-0.00496945,0.00385260,-0.00002066,
 -0.00013390,-0.00000319,-0.00001021,-0.00000247,0.00000173,0.00000480,
 0.00001355,-0.00000551,0.00000006,0.00000229,0.00000015,-0.00000005,0.
 00000139,-0.00000145,0.05092725,0.09286310,0.00264427,-0.00018165,0.00
 051188,-0.00030661,-0.00001838,-0.00033378,-0.00012017,0.00010935,-0.0
 0000042,-0.01125854,-0.00911508,-0.01269912,0.00307229,-0.00521103,0.0
 0118488,-0.00090470,-0.00042403,-0.00028360,0.00019043,0.00022403,-0.0
 0047814,0.00018539,-0.00007286,0.00015005,-0.00001455,0.00010236,-0.00
 021877,0.00002554,0.00007835,0.00009388,0.00003147,-0.00002620,-0.0000
 4652,-0.00001729,-0.00000136,0.00003239,-0.00004678,-0.00001393,0.0000
 2424,-0.00000760,-0.00001614,-0.00001492,0.00000494,-0.00002383,0.0000
 1226,-0.00006408,0.00004070,-0.00004118,-0.00000790,-0.00003121,0.0000
 3787,0.00002137,-0.00000026,-0.00000837,-0.00001416,-0.00000553,-0.000
 00591,-0.00000926,0.00000739,0.00000657,-0.00001644,0.00000615,0.00001
 041,0.00000103,-0.00001102,-0.00001516,0.00000923,0.00000234,-0.000005
 98,0.00001503,0.00001536,0.00000594,-0.00000477,0.00000122,-0.00000077
 ,-0.00013729,-0.00044047,0.00040456,0.00069950,0.00042188,0.00021570,-
 0.08720834,-0.11730056,-0.23827326,-0.00042940,-0.00016120,0.00011752,
 0.00019493,0.00003013,-0.00005236,-0.00011629,0.00001322,-0.00005001,0
 .00003345,-0.00004279,0.00010182,0.00004436,0.00006299,-0.00005071,-0.
 00000255,0.00006509,0.00021635,0.00045199,0.00370246,-0.00079090,-0.00
 007919,0.00003817,-0.00011394,0.00000572,-0.00000260,-0.00000083,-0.00
 000896,-0.00000614,0.00000418,0.00000009,0.00000008,0.00000203,-0.0000
 0118,-0.00000142,-0.00000036,0.09312317,0.12819219,0.25035287,0.000005
 27,-0.00002635,-0.00003905,-0.00000624,0.00000416,0.00001219,-0.000008
 09,0.00001246,0.00001275,-0.00001654,-0.00003424,-0.00003305,-0.000418
 93,-0.00010506,-0.00019431,0.00007916,0.00020923,0.00136739,-0.0000532
 7,-0.00000839,-0.00003594,0.00001442,0.00005908,0.00011373,0.00002836,
 -0.00008677,-0.00016572,-0.00002219,0.00008048,0.00020474,0.00003894,-
 0.00003229,-0.00008822,-0.00003590,0.00002129,0.00001488,-0.00007165,0
 .00000385,-0.00001802,-0.00000265,-0.00000498,-0.00000471,0.00000199,-
 0.00000420,0.00000774,0.00000681,0.00000055,-0.00000451,-0.00001634,0.
 00000338,0.00000471,0.00001501,-0.00000529,-0.00000738,-0.00001202,-0.
 00000050,-0.00000425,-0.00000873,0.00000392,0.00000914,-0.00000844,0.0
 0000263,0.00000422,-0.00000339,-0.00000487,-0.00001088,0.00000771,-0.0
 0000222,-0.00000411,0.00001153,0.00000133,0.00000852,-0.00000369,0.000
 00061,-0.00000185,0.00000564,-0.00001385,-0.00004142,-0.00004440,0.000
 10856,0.00010561,0.00001848,0.00001846,0.00002963,-0.00477101,0.001973
 86,-0.00080479,-0.02364359,0.00490509,0.03028874,-0.10244114,0.0122462
 8,0.10757621,0.01003054,-0.00192669,-0.02326115,-0.00115748,0.00130545
 ,-0.00456988,0.00064466,-0.00085567,0.00066443,0.00000937,0.00000872,0
 .00000442,-0.00002112,0.00001192,0.00007731,0.00003222,-0.00001057,-0.
 00000573,-0.00000571,0.00000031,0.00000034,0.00000026,0.00000034,0.000
 00114,-0.00000046,-0.00000044,-0.00000091,-0.00000256,0.00000544,0.000
 00533,0.12142462,0.00000011,0.00001195,-0.00000314,0.00000178,-0.00000
 214,-0.00000550,0.00000291,0.00000006,0.00000752,-0.00008025,-0.000019
 81,-0.00010272,0.00010433,-0.00017615,0.00015795,-0.00000463,-0.000270
 69,-0.00020809,-0.00007984,0.00000887,-0.00014930,-0.00004482,0.000097
 08,0.00000996,0.00001202,0.00000219,0.00001965,-0.00000535,0.00000443,
 -0.00000087,-0.00000242,0.00000168,-0.00000021,-0.00000087,-0.00000468
 ,-0.00000133,0.00000523,0.00000049,-0.00000674,0.00000450,0.00000475,0
 .00000841,-0.00001539,-0.00001397,0.00001111,0.00000059,-0.00000202,-0
 .00000533,0.00000010,-0.00000270,-0.00000095,-0.00000352,0.00000068,0.
 00000081,0.00000196,0.00000081,0.00000093,0.00000125,-0.00000055,-0.00
 000067,0.00000227,-0.00000137,-0.00000158,-0.00000007,0.00000205,0.000
 00245,-0.00000108,-0.00000114,0.00000086,-0.00000181,0.00000135,-0.000
 00125,0.00000031,-0.00000089,0.00000144,0.00000727,-0.00001330,-0.0000
 1215,0.00001865,0.00003080,-0.00004703,0.00008810,-0.00001354,-0.00000
 043,0.00211953,0.01141999,-0.00043774,0.00389787,0.00233410,-0.0036149
 1,0.01203614,-0.05350712,-0.02539450,-0.00053475,0.00455602,0.00109340
 ,0.00126225,0.01083818,0.00001991,-0.00098744,-0.00610489,0.00023781,0
 .00002312,0.00001417,0.00005843,-0.00003860,-0.00003706,0.00007787,0.0
 0000057,-0.00000181,-0.00000001,0.00000102,0.00000118,-0.00000085,-0.0
 0000016,0.00000022,-0.00000037,0.00000034,0.00000025,0.00000009,-0.000
 00556,0.00000525,-0.00000318,-0.01770978,0.03129410,-0.00005030,0.0000
 1388,0.00000677,0.00001455,-0.00000027,-0.00000423,0.00001212,-0.00000
 628,-0.00000214,0.00000499,-0.00002468,-0.00000738,-0.00001394,0.00007
 219,0.00008261,0.00010494,-0.00004848,-0.00000616,0.00003428,0.0000154
 5,-0.00003721,0.00003212,-0.00003472,-0.00006570,-0.00001315,0.0000258
 9,0.00004848,0.00000707,-0.00001942,-0.00004949,-0.00002853,0.00000248
 ,0.00002674,0.00001320,-0.00000013,0.00000472,0.00001332,-0.00000100,0
 .00000098,0.00000648,-0.00000306,-0.00000749,0.00000009,0.00000014,0.0
 0000048,-0.00000654,0.00000293,0.00000613,0.00002364,-0.00000331,-0.00
 000575,-0.00002076,0.00000443,0.00000845,0.00001470,0.00000175,0.00000
 653,0.00001043,-0.00000549,-0.00001194,0.00001411,-0.00000326,-0.00000
 691,-0.00000139,0.00000578,0.00001372,-0.00000643,0.00000172,0.0000035
 8,-0.00001130,-0.00000209,-0.00000660,-0.00000072,-0.00000144,-0.00000
 201,-0.00000864,0.00000217,0.00001482,0.00002054,0.00000078,0.00000438
 ,0.00001756,-0.00000856,-0.00000972,-0.00167371,-0.00023372,0.00294941
 ,0.00293267,-0.00023816,0.00458609,0.10707482,-0.02546106,-0.27848615,
 0.00501683,-0.00234053,-0.02838957,-0.00460489,-0.00003802,-0.00174120
 ,0.00083617,0.00021555,0.00010414,-0.00001399,0.00001837,0.00000466,-0
 .00000397,-0.00002700,-0.00002091,0.00000184,0.00000533,-0.00000261,0.
 00000203,-0.00000069,-0.00000055,-0.00000035,-0.00000064,-0.00000157,0
 .00000072,0.00000055,0.00000091,-0.00000119,-0.00000175,-0.00000159,-0
 .11039273,0.02821968,0.30190143,0.00000279,-0.00002739,-0.00007470,-0.
 00000660,0.00000327,0.00002190,-0.00000439,0.00000976,0.00001649,-0.00
 013137,0.00007036,0.00001854,0.00002687,-0.00007665,-0.00009599,-0.000
 11292,-0.00015725,-0.00132052,-0.00036242,0.00012034,0.00022080,-0.000
 02165,-0.00007547,-0.00005573,-0.00003260,-0.00000459,-0.00002853,-0.0
 0000590,0.00001220,0.00004544,0.00002082,-0.00000599,-0.00002215,-0.00
 001261,-0.00000022,-0.00000778,-0.00001266,0.00000285,0.00000071,-0.00
 001017,-0.00000094,-0.00000648,0.00003120,-0.00000029,-0.00000050,0.00
 000576,0.00000111,0.00000070,-0.00003248,0.00000210,0.00000654,0.00002
 372,-0.00000335,-0.00000830,-0.00001553,-0.00000348,-0.00000753,-0.000
 00847,0.00000525,0.00001121,-0.00001286,0.00000244,0.00000596,0.000001
 70,-0.00000504,-0.00001194,0.00000567,-0.00000220,-0.00000272,0.000008
 77,0.00000413,0.00000591,0.00000095,0.00000128,0.00000531,-0.00001825,
 -0.00001792,-0.00002869,0.00001436,0.00003855,0.00008770,0.00000252,0.
 00001799,0.00007331,-0.00439665,0.00220227,0.00160872,0.00042079,-0.00
 091927,-0.00054229,0.00014374,0.00169107,0.00411816,0.01185993,-0.0001
 2200,0.01747783,-0.13632981,0.00486246,-0.12881680,-0.02766943,0.00295
 868,-0.02577628,-0.00005697,-0.00003278,-0.00013750,0.00003308,0.00000
 027,-0.00002074,0.00000037,-0.00000209,-0.00000009,-0.00000326,0.00000
 068,-0.00000144,-0.00000004,0.00000107,0.00000154,-0.00000069,-0.00000
 023,-0.00000112,-0.00001230,0.00001979,0.00001651,0.00040052,-0.000075
 88,0.00064332,0.15626649,-0.00001258,0.00001248,-0.00003112,0.00001260
 ,0.00000061,0.00000310,0.00000384,-0.00000321,0.00000137,0.00006834,-0
 .00016740,-0.00014516,-0.00001150,0.00006811,-0.00000101,-0.00001322,-
 0.00015469,0.00013757,-0.00000682,-0.00011308,0.00002715,0.00006418,0.
 00000911,0.00001837,-0.00000412,-0.00001296,-0.00002309,0.00000572,0.0
 0000074,0.00000975,0.00000466,-0.00000038,0.00000133,-0.00000501,0.000
 00448,0.00000477,-0.00000395,0.00001633,-0.00000712,-0.00000034,-0.000
 00438,-0.00000831,0.00001001,-0.00000008,0.00000592,-0.00000500,0.0000
 0213,0.00000349,0.00000285,0.00000141,0.00000145,-0.00000249,-0.000001
 67,0.00000189,0.00000100,0.00000056,0.00000043,0.00000082,-0.00000112,
 -0.00000207,0.00000083,-0.00000017,0.00000044,-0.00000047,0.00000061,0
 .00000063,0.00000004,-0.00000078,0.00000071,-0.00000037,-0.00000020,-0
 .00000091,0.00000018,0.00000215,-0.00000104,-0.00002807,-0.00001547,0.
 00002657,-0.00000232,0.00001375,-0.00001303,0.00007104,0.00000698,0.00
 001484,0.00202176,0.01119967,-0.00081362,-0.00088288,-0.00601236,0.000
 39906,0.00174287,0.01077830,-0.00118641,-0.00148255,0.00423638,-0.0042
 6551,0.00520016,-0.05074394,0.00751392,0.00383588,0.00263192,0.0038853
 1,0.00002983,0.00007038,0.00012091,0.00003291,-0.00001422,0.00001673,-
 0.00000312,0.00000328,-0.00000137,-0.00000109,-0.00000403,0.00000175,0
 .00000008,0.00000040,-0.00000026,0.00000015,0.00000039,0.,0.00000631,-
 0.00001087,-0.00000259,-0.00015525,-0.00045685,-0.00010530,-0.01049491
 ,0.02865769,0.00005056,-0.00001548,0.00000192,-0.00001629,0.,0.0000028
 8,-0.00001248,0.00000563,0.00000091,-0.00000420,0.00006290,0.00002720,
 -0.00000214,-0.00000742,-0.00008281,-0.00010304,0.00000515,0.00018723,
 0.00008943,0.00002654,0.00005051,-0.00003563,0.00003839,0.00004163,0.0
 0000988,-0.00001322,-0.00001116,-0.00000242,0.00000750,0.00001084,0.00
 001333,-0.00000218,-0.00000813,-0.00000367,-0.00000400,-0.00000955,0.0
 0000071,0.00000170,0.00000611,-0.00000655,0.00000254,0.00000692,0.0000
 0218,-0.00000268,-0.00000147,0.00000630,-0.00000198,-0.00000472,-0.000
 02149,0.00000221,0.00000461,0.00001907,-0.00000358,-0.00000798,-0.0000
 1304,-0.00000216,-0.00000606,-0.00000839,0.00000460,0.00001082,-0.0000
 1253,0.00000294,0.00000576,0.00000207,-0.00000506,-0.00001168,0.000004
 70,-0.00000149,-0.00000273,0.00000900,0.00000291,0.00000466,0.00000005
 ,0.00000104,0.00000349,0.00000707,-0.00000465,-0.00000814,-0.00001947,
 -0.00000186,-0.00001081,-0.00004008,0.00000556,0.00000544,0.00257997,-
 0.00079077,0.00246352,-0.00078717,0.00040886,0.00030020,0.00418895,-0.
 00118047,-0.00293176,-0.01073405,-0.00030830,-0.03020064,-0.12835342,0
 .00724178,-0.24698669,0.00147557,0.00007799,0.00840995,-0.00005482,-0.
 00004026,0.00001075,0.00001830,0.00000428,0.00000482,-0.00000436,-0.00
 000102,0.00000146,-0.00000103,0.00000064,0.00000038,0.00000038,0.00000
 070,0.00000154,-0.00000051,-0.00000041,-0.00000086,0.00000257,0.000002
 10,0.00000121,-0.00082454,0.00007058,-0.00090813,0.13258120,-0.0055895
 4,0.26962859\\-0.00002112,0.00000533,0.00000103,0.00001204,-0.00000070
 ,0.00000592,0.00000246,-0.00000077,-0.00000729,0.00003255,-0.00000877,
 -0.00003810,0.00000862,-0.00000323,-0.00001964,-0.00000794,0.00000391,
 0.00003137,-0.00000612,-0.00000849,-0.00001881,0.00000773,0.00000586,0
 .00001443,0.00003212,-0.00001414,-0.00001431,-0.00000244,-0.00000565,-
 0.00000835,-0.00003044,-0.00000732,-0.00000299,0.00001042,-0.00000683,
 -0.00000139,-0.00003218,0.00003083,0.00001828,-0.00001912,-0.00001239,
 -0.00000619,0.00000518,0.00000283,0.00000252,-0.00000029,0.00000004,0.
 00000343,0.00000290,0.00000198,0.00000561,-0.00000108,0.00000155,0.000
 00126,0.00000196,0.00000445,0.00000519,-0.00000109,0.00000511,0.000002
 84,0.00000465,-0.00000440,0.00000317,-0.00000621,-0.00000056,-0.000004
 10,-0.00000416,0.00000241,0.00000410,-0.00000026,-0.00000305,0.0000064
 7,0.00000455,-0.00000249,0.00000298,0.00001896,0.00000596,-0.00000777,
 -0.00002792,0.00000197,0.00001599,-0.00000787,0.00003316,-0.00000028,0
 .00001763,-0.00000135,-0.00000139,-0.00000388,-0.00000529,-0.00000038,
 0.00000154,0.00001354,-0.00001170,-0.00000763,-0.00000014,0.00000582,0
 .00001893,-0.00000930,-0.00000897,-0.00001366,0.00000129,-0.00000515,0
 .00000321,-0.00000481,-0.00000019,-0.00000141,-0.00000163,-0.00000003,
 0.00001686,0.00000254,0.00000628,-0.00000298,-0.00000009,0.00000121,0.
 00000173,0.00000135,0.00000313,-0.00000004,0.00000035,0.00000379,-0.00
 000515,-0.00001672,0.00001758,-0.00000142,-0.00000761,-0.00000476,0.00
 000038,0.00000124,-0.00000060\\\@


 LORD, MAN... WERE YE BUT WHYLES WHERE I AM, 
 THE GENTILES YE WAD NE'ER ENVY 'EM.         
 IT'S TRUE, THEY NEEDNA STARVE OR SWEAT,     
 THRO' WINTER'S CAULD OR SIMMER'S HEAT...    
 THEY'VE NAE SAIR WARK TO CRAZE THEIR BANES, 
 AND FILL AULD AGE WITH GRIPS AN' GRANES...  
                                             
 BUT HUMAN BODIES ARE SIC FOOLS              
 FOR A' THEIR COLLEGES AND SCHOOLS,          
 THAT WHEN NAE REAL ILLS PERPLEX THEM,       
 THEY MAK ENOW THEMSELVES TO VEX THEM,       
 AN' AYE THE LESS THEY HAE TO STURT THEM,    
 IN LIKE PROPORTION LESS WILL HURT THEM....  
                                             
                (ROBERT BURNS 'THE TWA DOGS')
 Job cpu time:  1 days  5 hours 31 minutes 27.9 seconds.
 File lengths (MBytes):  RWF=   2161 Int=      0 D2E=      0 Chk=     35 Scr=      1
 Normal termination of Gaussian 09 at Mon Dec 30 11:07:36 2013.
