 Entering Gaussian System, Link 0=g09
 Initial command:
 /opt/gaussian/g09/l1.exe /panfs/panfs.cluster/home/shuo/Gau-15251.inp -scrdir=/panfs/panfs.cluster/home/shuo/
 Default is to use a total of  12 processors:
                               12 via shared-memory
                                1 via Linda
 Entering Link 1 = /opt/gaussian/g09/l1.exe PID=     15252.
  
 Copyright (c) 1988,1990,1992,1993,1995,1998,2003,2009,2011,
            Gaussian, Inc.  All Rights Reserved.
  
 This is part of the Gaussian(R) 09 program.  It is based on
 the Gaussian(R) 03 system (copyright 2003, Gaussian, Inc.),
 the Gaussian(R) 98 system (copyright 1998, Gaussian, Inc.),
 the Gaussian(R) 94 system (copyright 1995, Gaussian, Inc.),
 the Gaussian 92(TM) system (copyright 1992, Gaussian, Inc.),
 the Gaussian 90(TM) system (copyright 1990, Gaussian, Inc.),
 the Gaussian 88(TM) system (copyright 1988, Gaussian, Inc.),
 the Gaussian 86(TM) system (copyright 1986, Carnegie Mellon
 University), and the Gaussian 82(TM) system (copyright 1983,
 Carnegie Mellon University). Gaussian is a federally registered
 trademark of Gaussian, Inc.
  
 This software contains proprietary and confidential information,
 including trade secrets, belonging to Gaussian, Inc.
  
 This software is provided under written license and may be
 used, copied, transmitted, or stored only in accord with that
 written license.
  
 The following legend is applicable only to US Government
 contracts under FAR:
  
                    RESTRICTED RIGHTS LEGEND
  
 Use, reproduction and disclosure by the US Government is
 subject to restrictions as set forth in subparagraphs (a)
 and (c) of the Commercial Computer Software - Restricted
 Rights clause in FAR 52.227-19.
  
 Gaussian, Inc.
 340 Quinnipiac St., Bldg. 40, Wallingford CT 06492
  
  
 ---------------------------------------------------------------
 Warning -- This program may not be used in any manner that
 competes with the business of Gaussian, Inc. or will provide
 assistance to any competitor of Gaussian, Inc.  The licensee
 of this program is prohibited from giving any competitor of
 Gaussian, Inc. access to this program.  By using this program,
 the user acknowledges that Gaussian, Inc. is engaged in the
 business of creating and licensing software in the field of
 computational chemistry and represents and warrants to the
 licensee that it is not a competitor of Gaussian, Inc. and that
 it will not use this program in any manner prohibited above.
 ---------------------------------------------------------------
  

 Cite this work as:
 Gaussian 09, Revision C.01,
 M. J. Frisch, G. W. Trucks, H. B. Schlegel, G. E. Scuseria, 
 M. A. Robb, J. R. Cheeseman, G. Scalmani, V. Barone, B. Mennucci, 
 G. A. Petersson, H. Nakatsuji, M. Caricato, X. Li, H. P. Hratchian, 
 A. F. Izmaylov, J. Bloino, G. Zheng, J. L. Sonnenberg, M. Hada, 
 M. Ehara, K. Toyota, R. Fukuda, J. Hasegawa, M. Ishida, T. Nakajima, 
 Y. Honda, O. Kitao, H. Nakai, T. Vreven, J. A. Montgomery, Jr., 
 J. E. Peralta, F. Ogliaro, M. Bearpark, J. J. Heyd, E. Brothers, 
 K. N. Kudin, V. N. Staroverov, T. Keith, R. Kobayashi, J. Normand, 
 K. Raghavachari, A. Rendell, J. C. Burant, S. S. Iyengar, J. Tomasi, 
 M. Cossi, N. Rega, J. M. Millam, M. Klene, J. E. Knox, J. B. Cross, 
 V. Bakken, C. Adamo, J. Jaramillo, R. Gomperts, R. E. Stratmann, 
 O. Yazyev, A. J. Austin, R. Cammi, C. Pomelli, J. W. Ochterski, 
 R. L. Martin, K. Morokuma, V. G. Zakrzewski, G. A. Voth, 
 P. Salvador, J. J. Dannenberg, S. Dapprich, A. D. Daniels, 
 O. Farkas, J. B. Foresman, J. V. Ortiz, J. Cioslowski, 
 and D. J. Fox, Gaussian, Inc., Wallingford CT, 2010.
 
 ******************************************
 Gaussian 09:  EM64L-G09RevC.01 23-Sep-2011
                29-Dec-2013 
 ******************************************
 %chk=37_C22H10N4S3SeSi.chk
 %NProcShared=12
 Will use up to   12 processors via shared memory.
 %Mem=8000MB
 Default route:  MaxDisk=100GB
 --------------------------------------------
 #B3LYP/6-31++G(d,p) opt scf=direct freq test
 --------------------------------------------
 1/14=-1,18=20,19=15,26=3,38=1/1,3;
 2/9=110,12=2,17=6,18=5,40=1/2;
 3/5=1,6=6,7=1111,11=2,16=1,25=1,30=1,71=1,74=-5/1,2,3;
 4//1;
 5/5=2,38=5/2;
 6/7=2,8=2,9=2,10=2,28=1/1;
 7//1,2,3,16;
 1/14=-1,18=20,19=15/3(2);
 2/9=110/2;
 99//99;
 2/9=110/2;
 3/5=1,6=6,7=1111,11=2,16=1,25=1,30=1,71=1,74=-5/1,2,3;
 4/5=5,16=3/1;
 5/5=2,38=5/2;
 7//1,2,3,16;
 1/14=-1,18=20,19=15/3(-5);
 2/9=110/2;
 6/7=2,8=2,9=2,10=2,19=2,28=1/1;
 99/9=1/99;
 ----------------------------------------------------------------------
 Geom opt of No.37 candidate from the CEPDB database with SMILE code of
  C1C(=Cc2c1c1c3nsnc3c3C=C[SiH2]c3c1c1nsnc21)c1scc2[SiH2]C=Cc12, HPC, 2
 0131227, Shuo Dai, Gaussian09
 ----------------------------------------------------------------------
 Charge =  0 Multiplicity = 1
 Symbolic Z-Matrix:
 C                    -2.57345  -2.70524  -10.70623 
 C                    -4.12038  -2.53247  -10.94842 
 C                    -4.75563  -3.18416  -9.95374 
 C                    -3.77393  -3.55518  -8.89235 
 C                    -2.61754  -4.05114  -9.58477 
 C                    -1.77217  -4.87665  -8.67671 
 C                    -1.76195  -6.37846  -8.51036 
 N                    -2.41517  -7.33498  -9.23677 
 S                    -2.00131  -8.87217  -8.6396 
 N                    -1.04275  -8.46495  -7.34131 
 C                    -1.03063  -7.14745  -7.43156 
 C                    -0.32408  -6.29602  -6.51875 
 C                     0.63719  -6.69714  -5.46232 
 C                     0.32975  -6.8064   -4.10213 
 Si                   -0.16332  -4.7416   -4.4001 
 H                    -1.05525  -3.66981  -4.00195 
 H                     1.17768  -4.11302  -4.10435 
 C                    -0.66649  -4.97079  -6.4899 
 C                    -1.42908  -4.25916  -7.42478 
 C                    -1.98649  -2.98092  -7.2777 
 N                    -1.49651  -1.98293  -6.51444 
 S                    -2.24863  -0.57506  -7.02522 
 N                    -3.43131  -1.19909  -8.03205 
 C                    -3.18688  -2.50845  -7.99497 
 C                    -4.94005  -2.06333  -12.0144 
 S                    -5.62524  -3.26805  -13.09211 
 C                    -6.61317  -2.13936  -13.91363 
 C                    -6.39706  -0.90707  -13.39045 
 Si                   -7.05733   0.75757  -13.7874 
 H                    -8.5253    0.74503  -13.56594 
 H                    -6.5525    1.09142  -15.14218 
 C                    -6.03353   1.47365  -12.38133 
 C                    -5.32181   0.506    -11.75155 
 C                    -5.47701  -0.81926  -12.31083 
 H                    -2.29604  -1.74083  -10.22259 
 H                    -2.02164  -2.74852  -11.64761 
 H                    -5.76422  -3.56981  -9.98416 
 H                     1.56084  -6.13223  -5.51072 
 H                     0.54664  -7.91915  -4.40376 
 H                    -7.26428  -2.44611  -14.71992 
 H                    -6.0787    2.53277  -12.17887 
 H                    -4.68596   0.71771  -10.89911 
 

 GradGradGradGradGradGradGradGradGradGradGradGradGradGradGradGradGradGrad
 Berny optimization.
 Initialization pass.
                           ----------------------------
                           !    Initial Parameters    !
                           ! (Angstroms and Degrees)  !
 --------------------------                            --------------------------
 ! Name  Definition              Value          Derivative Info.                !
 --------------------------------------------------------------------------------
 ! R1    R(1,2)                  1.5753         estimate D2E/DX2                !
 ! R2    R(1,5)                  1.7524         estimate D2E/DX2                !
 ! R3    R(1,35)                 1.114          estimate D2E/DX2                !
 ! R4    R(1,36)                 1.092          estimate D2E/DX2                !
 ! R5    R(2,3)                  1.3482         estimate D2E/DX2                !
 ! R6    R(2,25)                 1.4242         estimate D2E/DX2                !
 ! R7    R(3,4)                  1.4926         estimate D2E/DX2                !
 ! R8    R(3,37)                 1.0802         estimate D2E/DX2                !
 ! R9    R(4,5)                  1.4362         estimate D2E/DX2                !
 ! R10   R(4,24)                 1.4985         estimate D2E/DX2                !
 ! R11   R(5,6)                  1.4902         estimate D2E/DX2                !
 ! R12   R(6,7)                  1.511          estimate D2E/DX2                !
 ! R13   R(6,19)                 1.4375         estimate D2E/DX2                !
 ! R14   R(7,8)                  1.3672         estimate D2E/DX2                !
 ! R15   R(7,11)                 1.5133         estimate D2E/DX2                !
 ! R16   R(8,9)                  1.7002         estimate D2E/DX2                !
 ! R17   R(9,10)                 1.6644         estimate D2E/DX2                !
 ! R18   R(10,11)                1.3206         estimate D2E/DX2                !
 ! R19   R(11,12)                1.4344         estimate D2E/DX2                !
 ! R20   R(12,13)                1.4836         estimate D2E/DX2                !
 ! R21   R(12,18)                1.3691         estimate D2E/DX2                !
 ! R22   R(13,14)                1.3988         estimate D2E/DX2                !
 ! R23   R(13,38)                1.0838         estimate D2E/DX2                !
 ! R24   R(14,15)                2.1437         estimate D2E/DX2                !
 ! R25   R(14,39)                1.1731         estimate D2E/DX2                !
 ! R26   R(15,16)                1.4501         estimate D2E/DX2                !
 ! R27   R(15,17)                1.5103         estimate D2E/DX2                !
 ! R28   R(15,18)                2.1617         estimate D2E/DX2                !
 ! R29   R(18,19)                1.4007         estimate D2E/DX2                !
 ! R30   R(19,20)                1.4022         estimate D2E/DX2                !
 ! R31   R(20,21)                1.3486         estimate D2E/DX2                !
 ! R32   R(20,24)                1.476          estimate D2E/DX2                !
 ! R33   R(21,22)                1.6759         estimate D2E/DX2                !
 ! R34   R(22,23)                1.6739         estimate D2E/DX2                !
 ! R35   R(23,24)                1.3325         estimate D2E/DX2                !
 ! R36   R(25,26)                1.7556         estimate D2E/DX2                !
 ! R37   R(25,34)                1.387          estimate D2E/DX2                !
 ! R38   R(26,27)                1.7102         estimate D2E/DX2                !
 ! R39   R(27,28)                1.3561         estimate D2E/DX2                !
 ! R40   R(27,40)                1.0808         estimate D2E/DX2                !
 ! R41   R(28,29)                1.8343         estimate D2E/DX2                !
 ! R42   R(28,34)                1.4212         estimate D2E/DX2                !
 ! R43   R(29,30)                1.4846         estimate D2E/DX2                !
 ! R44   R(29,31)                1.4838         estimate D2E/DX2                !
 ! R45   R(29,32)                1.8809         estimate D2E/DX2                !
 ! R46   R(32,33)                1.3563         estimate D2E/DX2                !
 ! R47   R(32,41)                1.0792         estimate D2E/DX2                !
 ! R48   R(33,34)                1.4468         estimate D2E/DX2                !
 ! R49   R(33,42)                1.0843         estimate D2E/DX2                !
 ! A1    A(2,1,5)               99.0858         estimate D2E/DX2                !
 ! A2    A(2,1,35)             102.4944         estimate D2E/DX2                !
 ! A3    A(2,1,36)             111.5936         estimate D2E/DX2                !
 ! A4    A(5,1,35)             113.1617         estimate D2E/DX2                !
 ! A5    A(5,1,36)             122.271          estimate D2E/DX2                !
 ! A6    A(35,1,36)            106.4235         estimate D2E/DX2                !
 ! A7    A(1,2,3)              107.2332         estimate D2E/DX2                !
 ! A8    A(1,2,25)             135.7572         estimate D2E/DX2                !
 ! A9    A(3,2,25)             116.1212         estimate D2E/DX2                !
 ! A10   A(2,3,4)              109.5656         estimate D2E/DX2                !
 ! A11   A(2,3,37)             126.2797         estimate D2E/DX2                !
 ! A12   A(4,3,37)             123.0495         estimate D2E/DX2                !
 ! A13   A(3,4,5)              105.8173         estimate D2E/DX2                !
 ! A14   A(3,4,24)             120.6545         estimate D2E/DX2                !
 ! A15   A(5,4,24)             102.3862         estimate D2E/DX2                !
 ! A16   A(1,5,4)               93.6447         estimate D2E/DX2                !
 ! A17   A(1,5,6)              143.2378         estimate D2E/DX2                !
 ! A18   A(4,5,6)              110.7494         estimate D2E/DX2                !
 ! A19   A(5,6,7)              128.4258         estimate D2E/DX2                !
 ! A20   A(5,6,19)             115.3494         estimate D2E/DX2                !
 ! A21   A(7,6,19)             109.2354         estimate D2E/DX2                !
 ! A22   A(6,7,8)              129.3174         estimate D2E/DX2                !
 ! A23   A(6,7,11)             125.9314         estimate D2E/DX2                !
 ! A24   A(8,7,11)             104.7226         estimate D2E/DX2                !
 ! A25   A(7,8,9)              109.2452         estimate D2E/DX2                !
 ! A26   A(8,9,10)             101.1251         estimate D2E/DX2                !
 ! A27   A(9,10,11)            101.3068         estimate D2E/DX2                !
 ! A28   A(7,11,10)            123.452          estimate D2E/DX2                !
 ! A29   A(7,11,12)            112.96           estimate D2E/DX2                !
 ! A30   A(10,11,12)           123.588          estimate D2E/DX2                !
 ! A31   A(11,12,13)           127.7229         estimate D2E/DX2                !
 ! A32   A(11,12,18)           117.6977         estimate D2E/DX2                !
 ! A33   A(13,12,18)           114.1275         estimate D2E/DX2                !
 ! A34   A(12,13,14)           124.8304         estimate D2E/DX2                !
 ! A35   A(12,13,38)           112.3012         estimate D2E/DX2                !
 ! A36   A(14,13,38)           105.751          estimate D2E/DX2                !
 ! A37   A(13,14,15)            80.8019         estimate D2E/DX2                !
 ! A38   A(13,14,39)            77.4925         estimate D2E/DX2                !
 ! A39   A(15,14,39)           156.9876         estimate D2E/DX2                !
 ! A40   A(14,15,16)           144.6104         estimate D2E/DX2                !
 ! A41   A(14,15,17)            99.7553         estimate D2E/DX2                !
 ! A42   A(14,15,18)            94.9216         estimate D2E/DX2                !
 ! A43   A(16,15,17)           100.6469         estimate D2E/DX2                !
 ! A44   A(16,15,18)           101.5736         estimate D2E/DX2                !
 ! A45   A(17,15,18)           116.1116         estimate D2E/DX2                !
 ! A46   A(12,18,15)            93.7145         estimate D2E/DX2                !
 ! A47   A(12,18,19)           127.8714         estimate D2E/DX2                !
 ! A48   A(15,18,19)           135.8976         estimate D2E/DX2                !
 ! A49   A(6,19,18)            119.5372         estimate D2E/DX2                !
 ! A50   A(6,19,20)            112.8337         estimate D2E/DX2                !
 ! A51   A(18,19,20)           127.5567         estimate D2E/DX2                !
 ! A52   A(19,20,21)           126.1242         estimate D2E/DX2                !
 ! A53   A(19,20,24)           124.3404         estimate D2E/DX2                !
 ! A54   A(21,20,24)           109.4897         estimate D2E/DX2                !
 ! A55   A(20,21,22)           106.6259         estimate D2E/DX2                !
 ! A56   A(21,22,23)           100.7912         estimate D2E/DX2                !
 ! A57   A(22,23,24)           102.7082         estimate D2E/DX2                !
 ! A58   A(4,24,20)            112.7067         estimate D2E/DX2                !
 ! A59   A(4,24,23)            126.7164         estimate D2E/DX2                !
 ! A60   A(20,24,23)           118.5056         estimate D2E/DX2                !
 ! A61   A(2,25,26)            117.2609         estimate D2E/DX2                !
 ! A62   A(2,25,34)            132.705          estimate D2E/DX2                !
 ! A63   A(26,25,34)           109.4624         estimate D2E/DX2                !
 ! A64   A(25,26,27)            93.8676         estimate D2E/DX2                !
 ! A65   A(26,27,28)           108.8045         estimate D2E/DX2                !
 ! A66   A(26,27,40)           121.2682         estimate D2E/DX2                !
 ! A67   A(28,27,40)           129.9205         estimate D2E/DX2                !
 ! A68   A(27,28,29)           133.1429         estimate D2E/DX2                !
 ! A69   A(27,28,34)           116.8973         estimate D2E/DX2                !
 ! A70   A(29,28,34)           109.9595         estimate D2E/DX2                !
 ! A71   A(28,29,30)           108.4198         estimate D2E/DX2                !
 ! A72   A(28,29,31)           106.2187         estimate D2E/DX2                !
 ! A73   A(28,29,32)            89.3007         estimate D2E/DX2                !
 ! A74   A(30,29,31)           118.3267         estimate D2E/DX2                !
 ! A75   A(30,29,32)           115.4611         estimate D2E/DX2                !
 ! A76   A(31,29,32)           114.3106         estimate D2E/DX2                !
 ! A77   A(29,32,33)           111.1691         estimate D2E/DX2                !
 ! A78   A(29,32,41)           119.41           estimate D2E/DX2                !
 ! A79   A(33,32,41)           129.4205         estimate D2E/DX2                !
 ! A80   A(32,33,34)           114.6917         estimate D2E/DX2                !
 ! A81   A(32,33,42)           122.2392         estimate D2E/DX2                !
 ! A82   A(34,33,42)           123.0687         estimate D2E/DX2                !
 ! A83   A(25,34,28)           110.9497         estimate D2E/DX2                !
 ! A84   A(25,34,33)           134.2217         estimate D2E/DX2                !
 ! A85   A(28,34,33)           114.8157         estimate D2E/DX2                !
 ! D1    D(5,1,2,3)             16.9781         estimate D2E/DX2                !
 ! D2    D(5,1,2,25)          -151.3119         estimate D2E/DX2                !
 ! D3    D(35,1,2,3)           -99.3445         estimate D2E/DX2                !
 ! D4    D(35,1,2,25)           92.3656         estimate D2E/DX2                !
 ! D5    D(36,1,2,3)           147.1301         estimate D2E/DX2                !
 ! D6    D(36,1,2,25)          -21.1599         estimate D2E/DX2                !
 ! D7    D(2,1,5,4)            -39.1262         estimate D2E/DX2                !
 ! D8    D(2,1,5,6)           -171.8462         estimate D2E/DX2                !
 ! D9    D(35,1,5,4)            68.7352         estimate D2E/DX2                !
 ! D10   D(35,1,5,6)           -63.9849         estimate D2E/DX2                !
 ! D11   D(36,1,5,4)          -161.9302         estimate D2E/DX2                !
 ! D12   D(36,1,5,6)            65.3497         estimate D2E/DX2                !
 ! D13   D(1,2,3,4)             11.572          estimate D2E/DX2                !
 ! D14   D(1,2,3,37)          -156.6228         estimate D2E/DX2                !
 ! D15   D(25,2,3,4)          -177.5021         estimate D2E/DX2                !
 ! D16   D(25,2,3,37)           14.303          estimate D2E/DX2                !
 ! D17   D(1,2,25,26)           96.8744         estimate D2E/DX2                !
 ! D18   D(1,2,25,34)          -92.8522         estimate D2E/DX2                !
 ! D19   D(3,2,25,26)          -70.6573         estimate D2E/DX2                !
 ! D20   D(3,2,25,34)           99.6161         estimate D2E/DX2                !
 ! D21   D(2,3,4,5)            -43.3314         estimate D2E/DX2                !
 ! D22   D(2,3,4,24)            71.9499         estimate D2E/DX2                !
 ! D23   D(37,3,4,5)           125.3211         estimate D2E/DX2                !
 ! D24   D(37,3,4,24)         -119.3976         estimate D2E/DX2                !
 ! D25   D(3,4,5,1)             47.6582         estimate D2E/DX2                !
 ! D26   D(3,4,5,6)           -160.3889         estimate D2E/DX2                !
 ! D27   D(24,4,5,1)           -79.554          estimate D2E/DX2                !
 ! D28   D(24,4,5,6)            72.3989         estimate D2E/DX2                !
 ! D29   D(3,4,24,20)         -164.0908         estimate D2E/DX2                !
 ! D30   D(3,4,24,23)           -0.8609         estimate D2E/DX2                !
 ! D31   D(5,4,24,20)          -47.0543         estimate D2E/DX2                !
 ! D32   D(5,4,24,23)          116.1756         estimate D2E/DX2                !
 ! D33   D(1,5,6,7)           -135.7246         estimate D2E/DX2                !
 ! D34   D(1,5,6,19)            77.0107         estimate D2E/DX2                !
 ! D35   D(4,5,6,7)             95.9078         estimate D2E/DX2                !
 ! D36   D(4,5,6,19)           -51.3568         estimate D2E/DX2                !
 ! D37   D(5,6,7,8)              7.4096         estimate D2E/DX2                !
 ! D38   D(5,6,7,11)          -170.3422         estimate D2E/DX2                !
 ! D39   D(19,6,7,8)           156.239          estimate D2E/DX2                !
 ! D40   D(19,6,7,11)          -21.5128         estimate D2E/DX2                !
 ! D41   D(5,6,19,18)          178.3357         estimate D2E/DX2                !
 ! D42   D(5,6,19,20)            1.2017         estimate D2E/DX2                !
 ! D43   D(7,6,19,18)           24.9952         estimate D2E/DX2                !
 ! D44   D(7,6,19,20)         -152.1388         estimate D2E/DX2                !
 ! D45   D(6,7,8,9)            178.1841         estimate D2E/DX2                !
 ! D46   D(11,7,8,9)            -3.698          estimate D2E/DX2                !
 ! D47   D(6,7,11,10)         -179.1783         estimate D2E/DX2                !
 ! D48   D(6,7,11,12)            0.8254         estimate D2E/DX2                !
 ! D49   D(8,7,11,10)            2.6199         estimate D2E/DX2                !
 ! D50   D(8,7,11,12)         -177.3764         estimate D2E/DX2                !
 ! D51   D(7,8,9,10)             3.7773         estimate D2E/DX2                !
 ! D52   D(8,9,10,11)           -2.057          estimate D2E/DX2                !
 ! D53   D(9,10,11,7)           -0.0141         estimate D2E/DX2                !
 ! D54   D(9,10,11,12)         179.9817         estimate D2E/DX2                !
 ! D55   D(7,11,12,13)        -171.0743         estimate D2E/DX2                !
 ! D56   D(7,11,12,18)          17.1396         estimate D2E/DX2                !
 ! D57   D(10,11,12,13)          8.9294         estimate D2E/DX2                !
 ! D58   D(10,11,12,18)       -162.8566         estimate D2E/DX2                !
 ! D59   D(11,12,13,14)       -100.1796         estimate D2E/DX2                !
 ! D60   D(11,12,13,38)        129.8175         estimate D2E/DX2                !
 ! D61   D(18,12,13,14)         71.8532         estimate D2E/DX2                !
 ! D62   D(18,12,13,38)        -58.1498         estimate D2E/DX2                !
 ! D63   D(11,12,18,15)        149.6806         estimate D2E/DX2                !
 ! D64   D(11,12,18,19)        -14.492          estimate D2E/DX2                !
 ! D65   D(13,12,18,15)        -23.2065         estimate D2E/DX2                !
 ! D66   D(13,12,18,19)        172.6208         estimate D2E/DX2                !
 ! D67   D(12,13,14,15)        -59.0153         estimate D2E/DX2                !
 ! D68   D(12,13,14,39)        113.2906         estimate D2E/DX2                !
 ! D69   D(38,13,14,15)         73.562          estimate D2E/DX2                !
 ! D70   D(38,13,14,39)       -114.1321         estimate D2E/DX2                !
 ! D71   D(13,14,15,16)        146.1461         estimate D2E/DX2                !
 ! D72   D(13,14,15,17)        -89.4016         estimate D2E/DX2                !
 ! D73   D(13,14,15,18)         28.1816         estimate D2E/DX2                !
 ! D74   D(39,14,15,16)        126.6131         estimate D2E/DX2                !
 ! D75   D(39,14,15,17)       -108.9346         estimate D2E/DX2                !
 ! D76   D(39,14,15,18)          8.6486         estimate D2E/DX2                !
 ! D77   D(14,15,18,12)         -3.3381         estimate D2E/DX2                !
 ! D78   D(14,15,18,19)        158.6411         estimate D2E/DX2                !
 ! D79   D(16,15,18,12)       -151.863          estimate D2E/DX2                !
 ! D80   D(16,15,18,19)         10.1163         estimate D2E/DX2                !
 ! D81   D(17,15,18,12)        100.0535         estimate D2E/DX2                !
 ! D82   D(17,15,18,19)        -97.9673         estimate D2E/DX2                !
 ! D83   D(12,18,19,6)          -9.6327         estimate D2E/DX2                !
 ! D84   D(12,18,19,20)        167.0348         estimate D2E/DX2                !
 ! D85   D(15,18,19,6)        -166.6113         estimate D2E/DX2                !
 ! D86   D(15,18,19,20)         10.0563         estimate D2E/DX2                !
 ! D87   D(6,19,20,21)        -153.9409         estimate D2E/DX2                !
 ! D88   D(6,19,20,24)          23.3382         estimate D2E/DX2                !
 ! D89   D(18,19,20,21)         29.2048         estimate D2E/DX2                !
 ! D90   D(18,19,20,24)       -153.5161         estimate D2E/DX2                !
 ! D91   D(19,20,21,22)        163.8783         estimate D2E/DX2                !
 ! D92   D(24,20,21,22)        -13.7387         estimate D2E/DX2                !
 ! D93   D(19,20,24,4)           1.0122         estimate D2E/DX2                !
 ! D94   D(19,20,24,23)       -163.728          estimate D2E/DX2                !
 ! D95   D(21,20,24,4)         178.6811         estimate D2E/DX2                !
 ! D96   D(21,20,24,23)         13.9409         estimate D2E/DX2                !
 ! D97   D(20,21,22,23)         10.1177         estimate D2E/DX2                !
 ! D98   D(21,22,23,24)         -2.3151         estimate D2E/DX2                !
 ! D99   D(22,23,24,4)        -168.3599         estimate D2E/DX2                !
 ! D100  D(22,23,24,20)         -5.9911         estimate D2E/DX2                !
 ! D101  D(2,25,26,27)         172.1155         estimate D2E/DX2                !
 ! D102  D(34,25,26,27)         -0.318          estimate D2E/DX2                !
 ! D103  D(2,25,34,28)        -171.2782         estimate D2E/DX2                !
 ! D104  D(2,25,34,33)           7.3048         estimate D2E/DX2                !
 ! D105  D(26,25,34,28)         -0.4435         estimate D2E/DX2                !
 ! D106  D(26,25,34,33)        178.1395         estimate D2E/DX2                !
 ! D107  D(25,26,27,28)          1.0108         estimate D2E/DX2                !
 ! D108  D(25,26,27,40)       -179.8518         estimate D2E/DX2                !
 ! D109  D(26,27,28,29)        178.3108         estimate D2E/DX2                !
 ! D110  D(26,27,28,34)         -1.5071         estimate D2E/DX2                !
 ! D111  D(40,27,28,29)         -0.7278         estimate D2E/DX2                !
 ! D112  D(40,27,28,34)        179.4544         estimate D2E/DX2                !
 ! D113  D(27,28,29,30)         62.1151         estimate D2E/DX2                !
 ! D114  D(27,28,29,31)        -66.0351         estimate D2E/DX2                !
 ! D115  D(27,28,29,32)        178.7998         estimate D2E/DX2                !
 ! D116  D(34,28,29,30)       -118.0577         estimate D2E/DX2                !
 ! D117  D(34,28,29,31)        113.7921         estimate D2E/DX2                !
 ! D118  D(34,28,29,32)         -1.373          estimate D2E/DX2                !
 ! D119  D(27,28,34,25)          1.3042         estimate D2E/DX2                !
 ! D120  D(27,28,34,33)       -177.577          estimate D2E/DX2                !
 ! D121  D(29,28,34,25)       -178.5544         estimate D2E/DX2                !
 ! D122  D(29,28,34,33)          2.5644         estimate D2E/DX2                !
 ! D123  D(28,29,32,33)         -0.1053         estimate D2E/DX2                !
 ! D124  D(28,29,32,41)       -179.8855         estimate D2E/DX2                !
 ! D125  D(30,29,32,33)        110.0265         estimate D2E/DX2                !
 ! D126  D(30,29,32,41)        -69.7537         estimate D2E/DX2                !
 ! D127  D(31,29,32,33)       -107.6224         estimate D2E/DX2                !
 ! D128  D(31,29,32,41)         72.5974         estimate D2E/DX2                !
 ! D129  D(29,32,33,34)          1.5798         estimate D2E/DX2                !
 ! D130  D(29,32,33,42)       -178.6422         estimate D2E/DX2                !
 ! D131  D(41,32,33,34)       -178.6681         estimate D2E/DX2                !
 ! D132  D(41,32,33,42)          1.1099         estimate D2E/DX2                !
 ! D133  D(32,33,34,25)        178.6732         estimate D2E/DX2                !
 ! D134  D(32,33,34,28)         -2.7848         estimate D2E/DX2                !
 ! D135  D(42,33,34,25)         -1.1028         estimate D2E/DX2                !
 ! D136  D(42,33,34,28)        177.4393         estimate D2E/DX2                !
 --------------------------------------------------------------------------------
 Trust Radius=3.00D-01 FncErr=1.00D-07 GrdErr=1.00D-06
 Number of steps in this run=    252 maximum allowed number of steps=    252.
 GradGradGradGradGradGradGradGradGradGradGradGradGradGradGradGradGradGrad

                          Input orientation:                          
 ---------------------------------------------------------------------
 Center     Atomic      Atomic             Coordinates (Angstroms)
 Number     Number       Type             X           Y           Z
 ---------------------------------------------------------------------
      1          6           0       -2.573450   -2.705240  -10.706230
      2          6           0       -4.120380   -2.532470  -10.948420
      3          6           0       -4.755630   -3.184160   -9.953740
      4          6           0       -3.773930   -3.555180   -8.892350
      5          6           0       -2.617540   -4.051140   -9.584770
      6          6           0       -1.772170   -4.876650   -8.676710
      7          6           0       -1.761950   -6.378460   -8.510360
      8          7           0       -2.415170   -7.334980   -9.236770
      9         16           0       -2.001310   -8.872170   -8.639600
     10          7           0       -1.042750   -8.464950   -7.341310
     11          6           0       -1.030630   -7.147450   -7.431560
     12          6           0       -0.324080   -6.296020   -6.518750
     13          6           0        0.637190   -6.697140   -5.462320
     14          6           0        0.329750   -6.806400   -4.102130
     15         14           0       -0.163320   -4.741600   -4.400100
     16          1           0       -1.055250   -3.669810   -4.001950
     17          1           0        1.177680   -4.113020   -4.104350
     18          6           0       -0.666490   -4.970790   -6.489900
     19          6           0       -1.429080   -4.259160   -7.424780
     20          6           0       -1.986490   -2.980920   -7.277700
     21          7           0       -1.496510   -1.982930   -6.514440
     22         16           0       -2.248630   -0.575060   -7.025220
     23          7           0       -3.431310   -1.199090   -8.032050
     24          6           0       -3.186880   -2.508450   -7.994970
     25          6           0       -4.940050   -2.063330  -12.014400
     26         16           0       -5.625240   -3.268050  -13.092110
     27          6           0       -6.613170   -2.139360  -13.913630
     28          6           0       -6.397060   -0.907070  -13.390450
     29         14           0       -7.057330    0.757570  -13.787400
     30          1           0       -8.525300    0.745030  -13.565940
     31          1           0       -6.552500    1.091420  -15.142180
     32          6           0       -6.033530    1.473650  -12.381330
     33          6           0       -5.321810    0.506000  -11.751550
     34          6           0       -5.477010   -0.819260  -12.310830
     35          1           0       -2.296040   -1.740830  -10.222590
     36          1           0       -2.021640   -2.748520  -11.647610
     37          1           0       -5.764220   -3.569810   -9.984160
     38          1           0        1.560840   -6.132230   -5.510720
     39          1           0        0.546640   -7.919150   -4.403760
     40          1           0       -7.264280   -2.446110  -14.719920
     41          1           0       -6.078700    2.532770  -12.178870
     42          1           0       -4.685960    0.717710  -10.899110
 ---------------------------------------------------------------------
                    Distance matrix (angstroms):
                    1          2          3          4          5
     1  C    0.000000
     2  C    1.575277   0.000000
     3  C    2.357438   1.348195   0.000000
     4  C    2.335318   2.322367   1.492628   0.000000
     5  C    1.752445   2.534646   2.336498   1.436196   0.000000
     6  C    3.078315   4.021186   3.660104   2.408283   1.490198
     7  C    4.355792   5.128154   4.609666   3.487820   2.702371
     8  N    4.859924   5.376020   4.818828   4.031345   3.308423
     9  S    6.529114   7.071980   6.454975   5.610387   4.951304
    10  N    6.843975   7.594562   6.963980   5.828457   5.195652
    11  C    5.730357   6.573652   5.995389   4.750159   4.091666
    12  C    5.957210   6.942491   6.412602   5.004762   4.438460
    13  C    7.330898   8.371155   7.848337   6.410538   5.881256
    14  C    8.298326   9.216389   8.557047   7.096255   6.807152
    15  Si   7.051437   7.963609   7.372777   5.884251   5.777606
    16  H    6.941376   7.677370   7.025131   5.596461   5.809823
    17  H    7.722541   8.798231   8.383455   6.910468   6.666523
    18  C    5.152344   6.144360   5.649009   4.175153   3.772343
    19  C    3.806858   4.758213   4.314765   2.854413   2.474119
    20  C    3.489318   4.269517   3.856246   2.476249   2.620337
    21  N    4.387782   5.181396   4.888108   3.648708   3.867962
    22  S    4.265326   4.767221   4.654963   3.833253   4.332496
    23  N    3.186793   3.279929   3.063857   2.531534   3.347738
    24  C    2.786746   3.097558   2.598911   1.498520   2.287248
    25  C    2.779236   1.424172   2.352996   3.651390   3.904938
    26  S    3.914409   2.720494   3.257702   4.598671   4.686248
    27  C    5.189121   3.893714   4.496976   5.939620   6.193464
    28  C    5.005841   3.713315   4.437387   5.841764   6.217166
    29  Si   6.449019   5.244983   5.960873   7.303564   7.778016
    30  H    7.450290   6.082494   6.534289   7.931568   8.588049
    31  H    7.065771   6.052719   6.959112   8.268719   8.533149
    32  C    5.678137   4.665016   5.405684   6.524408   7.071990
    33  C    4.354106   3.364632   4.143665   5.202321   5.724992
    34  C    3.816061   2.575208   3.415994   4.698058   5.104216
    35  H    1.113980   2.117012   2.864448   2.691758   2.418204
    36  H    1.092046   2.222668   3.245563   3.363433   2.511419
    37  H    3.383767   2.169811   1.080234   2.270136   3.208237
    38  H    7.471943   8.648879   8.266156   6.821758   6.195779
    39  H    8.754482   9.676258   9.018674   7.606510   7.198361
    40  H    6.179057   4.910782   5.436406   6.882816   7.109014
    41  H    6.472418   5.568274   6.275747   7.292209   7.877617
    42  H    4.026970   3.299391   4.015366   4.807959   5.361696
                    6          7          8          9         10
     6  C    0.000000
     7  C    1.511029   0.000000
     8  N    2.602019   1.367223   0.000000
     9  S    4.002257   2.508503   1.700249   0.000000
    10  N    3.897595   2.497472   2.598680   1.664398   0.000000
    11  C    2.693847   1.513269   2.282740   2.318672   1.320643
    12  C    2.961143   2.457799   3.583257   3.734656   2.428446
    13  C    4.410386   3.892040   4.895939   4.667713   3.078629
    14  C    5.391548   4.898044   5.846239   5.503624   3.889323
    15  Si   4.571218   4.704165   5.932101   6.197836   4.825707
    16  H    4.880965   5.306785   6.533467   7.033305   5.843359
    17  H    5.494654   5.760778   7.044951   7.302327   5.860675
    18  C    2.452250   2.695149   4.023999   4.650131   3.616023
    19  C    1.437475   2.404313   3.703559   4.804487   4.224321
    20  C    2.365788   3.621208   4.793700   6.046637   5.565005
    21  N    3.622846   4.834753   6.074492   7.227223   6.550282
    22  S    4.632290   6.010154   7.114437   8.456325   7.987767
    23  N    4.085680   5.462730   6.335064   7.828804   7.679522
    24  C    2.841574   4.156083   5.043114   6.505233   6.364311
    25  C    5.393552   6.403043   6.471518   8.147746   8.832183
    26  S    6.076965   6.752192   6.458182   8.022710   9.004370
    27  C    7.638938   8.408307   8.154182   9.716757  10.688221
    28  C    7.704967   8.673848   8.627081  10.263333  11.062653
    29  Si   9.262640  10.334947  10.380137  12.033083  12.758610
    30  H   10.055477  11.047439  11.016441  12.622274  13.399937
    31  H   10.013577  11.078335  11.090337  12.738524  13.510556
    32  C    8.497630   9.740967  10.028597  11.717309  12.210056
    33  C    7.143354   8.400816   8.732333  10.424012  10.873754
    34  C    6.587494   7.690900   7.828111   9.508301  10.139791
    35  H    3.535188   4.972383   5.681597   7.310864   7.422015
    36  H    3.662980   4.804814   5.196406   6.822582   7.223574
    37  H    4.399286   5.106737   5.094235   6.639454   7.296529
    38  H    4.765389   4.483236   5.580207   5.475954   3.946052
    39  H    5.735136   4.956559   5.698382   5.034147   3.384266
    40  H    8.520046   9.181375   8.802264  10.293852  11.374434
    41  H    9.258014  10.559466  10.929314  12.618407  13.027380
    42  H    6.687757   8.038133   8.530280  10.211686  10.500103
                   11         12         13         14         15
    11  C    0.000000
    12  C    1.434353   0.000000
    13  C    2.619601   1.483571   0.000000
    14  C    3.612763   2.555002   1.398776   0.000000
    15  Si   3.966118   2.632630   2.365008   2.143666   0.000000
    16  H    4.884343   3.710239   3.763211   3.430227   1.450102
    17  H    5.015449   3.584704   2.968819   2.823701   1.510252
    18  C    2.399410   1.369055   2.394950   3.172287   2.161706
    19  C    2.915652   2.488115   3.750262   4.541136   3.314149
    20  C    4.277536   3.785433   4.897917   5.484844   3.834648
    21  N    5.265968   4.469604   5.280474   5.693885   3.722645
    22  S    6.696637   6.057210   6.946256   7.349973   5.347881
    23  N    6.442580   6.158218   7.306487   7.812283   6.034915
    24  C    5.146568   4.971975   6.211518   6.781833   5.201150
    25  C    7.882529   8.332167   9.772797  10.624101   9.379117
    26  S    8.258451   8.971062  10.449420  11.349078  10.370871
    27  C    9.912767  10.560053  12.031863  12.893833  11.784713
    28  C   10.161165  10.636829  12.077286  12.896703  11.592650
    29  Si  11.798608  12.162362  13.567804  14.338307  12.879815
    30  H   12.493676  12.903460  14.318023  14.999990  13.566077
    31  H   12.562790  12.951102  14.354546  15.219186  13.792680
    32  C   11.128908  11.284300  12.614793  13.326504  11.695671
    33  C    9.780176   9.931112  11.267179  11.996873  10.401497
    34  C    9.144592   9.491880  10.901147  11.702438  10.305324
    35  H    6.214712   6.193288   7.471882   8.367485   6.888723
    36  H    6.173149   6.463101   7.805049   8.884238   7.742876
    37  H    6.459268   7.002600   8.438322   9.066987   7.995305
    38  H    3.381718   2.143799   1.083787   1.988520   2.477914
    39  H    3.500125   2.804619   1.619277   1.173130   3.255899
    40  H   10.680879  11.412597  12.892154  13.762953  12.735446
    41  H   11.904899  11.962447  13.244110  13.911221  12.182670
    42  H    9.340561   9.349115  10.624246  11.312317   9.617456
                   16         17         18         19         20
    16  H    0.000000
    17  H    2.278793   0.000000
    18  C    2.834357   3.134897   0.000000
    19  C    3.493257   4.223957   1.400700   0.000000
    20  C    3.474524   4.622096   2.514480   1.402225   0.000000
    21  N    3.058248   4.182955   3.101103   2.452445   1.348566
    22  S    4.487961   5.726102   4.702359   3.795247   2.433234
    23  N    5.290730   6.720164   4.924244   3.706984   2.414843
    24  C    4.672988   6.063081   3.831543   2.545577   1.476022
    25  C    9.048304  10.207680   7.565497   6.181682   5.657015
    26  S   10.182202  11.303695   8.430759   7.121003   6.865152
    27  C   11.466218  12.681272   9.924302   8.571669   8.133262
    28  C   11.149511  12.405098   9.847377   8.456155   7.817909
    29  Si  12.303727  13.612476  11.265454   9.865481   9.059024
    30  H   12.913650  14.396880  12.020892  10.635417   9.807176
    31  H   13.303901  14.445607  12.093695  10.697495   9.964058
    32  C   11.020547  12.317501  10.249140   8.867551   7.891056
    33  C    9.782496  11.048004   8.907985   7.522037   6.580145
    34  C    9.834383  11.067071   8.617397   7.217488   6.495298
    35  H    6.629999   7.424748   5.198178   3.862816   3.210299
    36  H    7.761366   8.306520   5.777273   4.523876   4.376227
    37  H    7.613884   9.113573   6.337148   5.081247   4.684331
    38  H    3.896643   2.490361   2.696059   4.013931   5.063252
    39  H    4.558990   3.869688   3.810051   5.140580   6.249992
    40  H   12.446862  13.665124  10.846109   9.516080   9.139350
    41  H   11.426682  12.728686  10.860930   9.505296   8.436138
    42  H    8.944451  10.192497   8.243561   6.888212   5.837946
                   21         22         23         24         25
    21  N    0.000000
    22  S    1.675911   0.000000
    23  N    2.580891   1.673873   0.000000
    24  C    2.307703   2.357695   1.332496   0.000000
    25  C    6.489529   5.860939   4.345379   4.407670   0.000000
    26  S    7.871702   7.447204   5.890512   5.701178   1.755646
    27  C    8.997371   8.303399   6.752875   6.848812   2.532229
    28  C    8.511896   7.604989   6.131346   6.479265   2.313726
    29  Si   9.556621   8.403962   7.078177   7.694122   3.947642
    30  H   10.323241   9.160799   7.768673   8.373743   4.811256
    31  H   10.461958   9.337317   8.095814   8.681536   4.726040
    32  C    8.182475   6.870997   5.729863   6.572723   3.720291
    33  C    6.946583   5.740324   4.507328   5.268465   2.610802
    34  C    7.127177   6.198366   4.757848   5.169594   1.387050
    35  H    3.801084   3.403593   2.526022   2.518954   3.210199
    36  H    5.216447   5.112919   4.178538   3.841510   3.020122
    37  H    5.724552   5.484818   3.856620   3.424331   2.659062
    38  H    5.250860   6.905643   7.457515   6.468703  10.055614
    39  H    6.623303   8.283794   8.610911   7.490770  11.059667
    40  H   10.040498   9.373686   7.808606   7.864733   3.587256
    41  H    8.571685   7.133593   6.175076   7.161113   4.737901
    42  H    6.057341   4.755928   3.669919   4.592317   3.007094
                   26         27         28         29         30
    26  S    0.000000
    27  C    1.710217   0.000000
    28  C    2.501787   1.356082   0.000000
    29  Si   4.328964   2.933499   1.834272   0.000000
    30  H    4.973899   3.478050   2.699933   1.484634   0.000000
    31  H    4.905872   3.457015   2.662082   1.483825   2.548815
    32  C    4.812029   3.967085   2.611188   1.880949   2.853613
    33  C    4.016544   3.652414   2.416386   2.687006   3.689376
    34  C    2.574673   2.366958   1.421190   2.676577   3.648887
    35  H    4.652969   5.693875   5.248701   6.451337   7.494076
    36  H    3.916941   5.156362   5.056949   6.498426   7.627744
    37  H    3.125656   4.267041   4.369609   5.904489   6.250644
    38  H   10.831470  12.384117  12.358018  13.792956  14.625782
    39  H   11.628081  13.232780  13.347091  14.871400  15.534273
    40  H    2.451898   1.080807   2.210929   3.343051   3.620113
    41  H    5.889749   5.012370   3.660844   2.587744   3.332541
    42  H    4.645189   4.578681   3.431406   3.737272   4.674747
                   31         32         33         34         35
    31  H    0.000000
    32  C    2.835088   0.000000
    33  C    3.654270   1.356287   0.000000
    34  C    3.581050   2.360534   1.446788   0.000000
    35  H    7.095171   5.381624   4.067093   3.915177   0.000000
    36  H    6.890998   5.870292   4.636143   4.012666   1.766753
    37  H    6.996686   5.590657   4.464484   3.614057   3.928141
    38  H   14.518004  12.756534  11.418622  11.135550   7.507439
    39  H   15.713110  13.970145  12.625842  12.215341   8.950489
    40  H    3.633050   4.727395   4.615123   3.412432   6.738457
    41  H    3.329141   1.079243   2.205285   3.408159   6.033175
    42  H    4.650513   2.141113   1.084334   2.231813   3.494827
                   36         37         38         39         40
    36  H    0.000000
    37  H    4.177139   0.000000
    38  H    7.870519   8.957353   0.000000
    39  H    9.263090   9.480748   2.333891   0.000000
    40  H    6.084062   5.093163  13.277032  14.049477   0.000000
    41  H    6.680868   6.492852  13.338254  14.614722   5.714174
    42  H    4.435494   4.514710  10.722823  12.006874   5.590714
                   41         42
    41  H    0.000000
    42  H    2.621441   0.000000
 Stoichiometry    C21H12N4S3Si2
 Framework group  C1[X(C21H12N4S3Si2)]
 Deg. of freedom   120
 Full point group                 C1      NOp   1
 Largest Abelian subgroup         C1      NOp   1
 Largest concise Abelian subgroup C1      NOp   1
                         Standard orientation:                         
 ---------------------------------------------------------------------
 Center     Atomic      Atomic             Coordinates (Angstroms)
 Number     Number       Type             X           Y           Z
 ---------------------------------------------------------------------
      1          6           0       -1.181615    0.061300    1.358167
      2          6           0       -2.247149    0.354178    0.235511
      3          6           0       -1.579533    0.459951   -0.930993
      4          6           0       -0.175566   -0.012642   -0.748041
      5          6           0        0.266430    0.546691    0.498734
      6          6           0        1.754605    0.554093    0.575997
      7          6           0        2.706433    1.680769    0.247614
      8          7           0        2.432299    2.984000   -0.061803
      9         16           0        3.892283    3.824240   -0.292643
     10          7           0        5.000649    2.593610   -0.127433
     11          6           0        4.212406    1.570498    0.148271
     12          6           0        4.692798    0.239812    0.384632
     13          6           0        6.099673   -0.201637    0.548361
     14          6           0        6.870578   -0.801113   -0.453092
     15         14           0        5.265578   -2.219148   -0.361144
     16          1           0        4.452122   -3.135806   -1.136271
     17          1           0        5.808962   -3.152574    0.694467
     18          6           0        3.790049   -0.786293    0.304224
     19          6           0        2.391920   -0.702487    0.291094
     20          6           0        1.478108   -1.713716   -0.038448
     21          7           0        1.666792   -3.039234    0.122893
     22         16           0        0.156546   -3.756294    0.006016
     23          7           0       -0.761717   -2.466299   -0.536715
     24          6           0        0.122859   -1.470332   -0.570150
     25          6           0       -3.623696    0.718148    0.205370
     26         16           0       -4.000937    2.422384    0.016786
     27          6           0       -5.678203    2.148739   -0.174890
     28          6           0       -5.918440    0.817998   -0.073034
     29         14           0       -7.451030   -0.188076   -0.132499
     30          1           0       -8.074319   -0.014894   -1.468784
     31          1           0       -8.240234    0.187670    1.066546
     32          6           0       -6.412011   -1.741552    0.079923
     33          6           0       -5.092956   -1.439736    0.172190
     34          6           0       -4.791816   -0.025430    0.124780
     35          1           0       -1.265133   -1.041956    1.487786
     36          1           0       -1.470320    0.507025    2.312390
     37          1           0       -1.913906    0.985642   -1.813460
     38          1           0        6.238613   -0.813150    1.432297
     39          1           0        7.413692    0.226698   -0.295404
     40          1           0       -6.365784    2.967584   -0.332585
     41          1           0       -6.898345   -2.704576    0.108722
     42          1           0       -4.330682   -2.203783    0.276843
 ---------------------------------------------------------------------
 Rotational constants (GHZ):      0.2401240      0.0606514      0.0493007
 Standard basis: 6-31++G(d,p) (6D, 7F)
 There are   662 symmetry adapted basis functions of A   symmetry.
 Integral buffers will be    131072 words long.
 Raffenetti 2 integral format.
 Two-electron integral symmetry is turned on.
   662 basis functions,  1176 primitive gaussians,   662 cartesian basis functions
   121 alpha electrons      121 beta electrons
       nuclear repulsion energy      3372.8619845463 Hartrees.
 NAtoms=   42 NActive=   42 NUniq=   42 SFac= 1.00D+00 NAtFMM=   60 NAOKFM=F Big=F
 One-electron integrals computed using PRISM.
 NBasis=   662 RedAO= T  NBF=   662
 NBsUse=   655 1.00D-06 NBFU=   655
 Harris functional with IExCor=  402 diagonalized for initial guess.
 ExpMin= 3.31D-02 ExpMax= 2.19D+04 ExpMxC= 3.30D+03 IAcc=3 IRadAn=         5 AccDes= 0.00D+00
 HarFok:  IExCor=  402 AccDes= 0.00D+00 IRadAn=         5 IDoV= 1
 ScaDFX=  1.000000  1.000000  1.000000  1.000000
 FoFCou: FMM=F IPFlag=           0 FMFlag=      100000 FMFlg1=           0
         NFxFlg=           0 DoJE=T BraDBF=F KetDBF=T FulRan=T
         Omega=  0.000000  0.000000  1.000000  0.000000  0.000000 ICntrl=     500 IOpCl=  0
         NMat0=    1 NMatS0=    1 NMatT0=    0 NMatD0=    1 NMtDS0=    0 NMtDT0=    0
         I1Cent=           4 NGrid=           0.
 Petite list used in FoFCou.
 Initial guess orbital symmetries:
       Occupied  (A) (A) (A) (A) (A) (A) (A) (A) (A) (A) (A) (A)
                 (A) (A) (A) (A) (A) (A) (A) (A) (A) (A) (A) (A)
                 (A) (A) (A) (A) (A) (A) (A) (A) (A) (A) (A) (A)
                 (A) (A) (A) (A) (A) (A) (A) (A) (A) (A) (A) (A)
                 (A) (A) (A) (A) (A) (A) (A) (A) (A) (A) (A) (A)
                 (A) (A) (A) (A) (A) (A) (A) (A) (A) (A) (A) (A)
                 (A) (A) (A) (A) (A) (A) (A) (A) (A) (A) (A) (A)
                 (A) (A) (A) (A) (A) (A) (A) (A) (A) (A) (A) (A)
                 (A) (A) (A) (A) (A) (A) (A) (A) (A) (A) (A) (A)
                 (A) (A) (A) (A) (A) (A) (A) (A) (A) (A) (A) (A)
                 (A)
       Virtual   (A) (A) (A) (A) (A) (A) (A) (A) (A) (A) (A) (A)
                 (A) (A) (A) (A) (A) (A) (A) (A) (A) (A) (A) (A)
                 (A) (A) (A) (A) (A) (A) (A) (A) (A) (A) (A) (A)
                 (A) (A) (A) (A) (A) (A) (A) (A) (A) (A) (A) (A)
                 (A) (A) (A) (A) (A) (A) (A) (A) (A) (A) (A) (A)
                 (A) (A) (A) (A) (A) (A) (A) (A) (A) (A) (A) (A)
                 (A) (A) (A) (A) (A) (A) (A) (A) (A) (A) (A) (A)
                 (A) (A) (A) (A) (A) (A) (A) (A) (A) (A) (A) (A)
                 (A) (A) (A) (A) (A) (A) (A) (A) (A) (A) (A) (A)
                 (A) (A) (A) (A) (A) (A) (A) (A) (A) (A) (A) (A)
                 (A) (A) (A) (A) (A) (A) (A) (A) (A) (A) (A) (A)
                 (A) (A) (A) (A) (A) (A) (A) (A) (A) (A) (A) (A)
                 (A) (A) (A) (A) (A) (A) (A) (A) (A) (A) (A) (A)
                 (A) (A) (A) (A) (A) (A) (A) (A) (A) (A) (A) (A)
                 (A) (A) (A) (A) (A) (A) (A) (A) (A) (A) (A) (A)
                 (A) (A) (A) (A) (A) (A) (A) (A) (A) (A) (A) (A)
                 (A) (A) (A) (A) (A) (A) (A) (A) (A) (A) (A) (A)
                 (A) (A) (A) (A) (A) (A) (A) (A) (A) (A) (A) (A)
                 (A) (A) (A) (A) (A) (A) (A) (A) (A) (A) (A) (A)
                 (A) (A) (A) (A) (A) (A) (A) (A) (A) (A) (A) (A)
                 (A) (A) (A) (A) (A) (A) (A) (A) (A) (A) (A) (A)
                 (A) (A) (A) (A) (A) (A) (A) (A) (A) (A) (A) (A)
                 (A) (A) (A) (A) (A) (A) (A) (A) (A) (A) (A) (A)
                 (A) (A) (A) (A) (A) (A) (A) (A) (A) (A) (A) (A)
                 (A) (A) (A) (A) (A) (A) (A) (A) (A) (A) (A) (A)
                 (A) (A) (A) (A) (A) (A) (A) (A) (A) (A) (A) (A)
                 (A) (A) (A) (A) (A) (A) (A) (A) (A) (A) (A) (A)
                 (A) (A) (A) (A) (A) (A) (A) (A) (A) (A) (A) (A)
                 (A) (A) (A) (A) (A) (A) (A) (A) (A) (A) (A) (A)
                 (A) (A) (A) (A) (A) (A) (A) (A) (A) (A) (A) (A)
                 (A) (A) (A) (A) (A) (A) (A) (A) (A) (A) (A) (A)
                 (A) (A) (A) (A) (A) (A) (A) (A) (A) (A) (A) (A)
                 (A) (A) (A) (A) (A) (A) (A) (A) (A) (A) (A) (A)
                 (A) (A) (A) (A) (A) (A) (A) (A) (A) (A) (A) (A)
                 (A) (A) (A) (A) (A) (A) (A) (A) (A) (A) (A) (A)
                 (A) (A) (A) (A) (A) (A) (A) (A) (A) (A) (A) (A)
                 (A) (A) (A) (A) (A) (A) (A) (A) (A) (A) (A) (A)
                 (A) (A) (A) (A) (A) (A) (A) (A) (A) (A) (A) (A)
                 (A) (A) (A) (A) (A) (A) (A) (A) (A) (A) (A) (A)
                 (A) (A) (A) (A) (A) (A) (A) (A) (A) (A) (A) (A)
                 (A) (A) (A) (A) (A) (A) (A) (A) (A) (A) (A) (A)
                 (A) (A) (A) (A) (A) (A) (A) (A) (A) (A) (A) (A)
                 (A) (A) (A) (A) (A) (A) (A) (A) (A) (A) (A) (A)
                 (A) (A) (A) (A) (A) (A) (A) (A) (A) (A) (A) (A)
                 (A) (A) (A) (A) (A) (A)
 The electronic state of the initial guess is 1-A.
 Requested convergence on RMS density matrix=1.00D-08 within 128 cycles.
 Requested convergence on MAX density matrix=1.00D-06.
 Requested convergence on             energy=1.00D-06.
 No special actions if energy rises.
 EnCoef did     2 forward-backward iterations
 EnCoef did     2 forward-backward iterations
 EnCoef did     6 forward-backward iterations
 EnCoef did     4 forward-backward iterations
 Restarting incremental Fock formation.
 SCF Done:  E(RB3LYP) =  -2799.42656176     A.U. after   28 cycles
             Convg  =    0.4058D-08             -V/T =  2.0058

 **********************************************************************

            Population analysis using the SCF density.

 **********************************************************************

 Orbital symmetries:
       Occupied  (A) (A) (A) (A) (A) (A) (A) (A) (A) (A) (A) (A)
                 (A) (A) (A) (A) (A) (A) (A) (A) (A) (A) (A) (A)
                 (A) (A) (A) (A) (A) (A) (A) (A) (A) (A) (A) (A)
                 (A) (A) (A) (A) (A) (A) (A) (A) (A) (A) (A) (A)
                 (A) (A) (A) (A) (A) (A) (A) (A) (A) (A) (A) (A)
                 (A) (A) (A) (A) (A) (A) (A) (A) (A) (A) (A) (A)
                 (A) (A) (A) (A) (A) (A) (A) (A) (A) (A) (A) (A)
                 (A) (A) (A) (A) (A) (A) (A) (A) (A) (A) (A) (A)
                 (A) (A) (A) (A) (A) (A) (A) (A) (A) (A) (A) (A)
                 (A) (A) (A) (A) (A) (A) (A) (A) (A) (A) (A) (A)
                 (A)
       Virtual   (A) (A) (A) (A) (A) (A) (A) (A) (A) (A) (A) (A)
                 (A) (A) (A) (A) (A) (A) (A) (A) (A) (A) (A) (A)
                 (A) (A) (A) (A) (A) (A) (A) (A) (A) (A) (A) (A)
                 (A) (A) (A) (A) (A) (A) (A) (A) (A) (A) (A) (A)
                 (A) (A) (A) (A) (A) (A) (A) (A) (A) (A) (A) (A)
                 (A) (A) (A) (A) (A) (A) (A) (A) (A) (A) (A) (A)
                 (A) (A) (A) (A) (A) (A) (A) (A) (A) (A) (A) (A)
                 (A) (A) (A) (A) (A) (A) (A) (A) (A) (A) (A) (A)
                 (A) (A) (A) (A) (A) (A) (A) (A) (A) (A) (A) (A)
                 (A) (A) (A) (A) (A) (A) (A) (A) (A) (A) (A) (A)
                 (A) (A) (A) (A) (A) (A) (A) (A) (A) (A) (A) (A)
                 (A) (A) (A) (A) (A) (A) (A) (A) (A) (A) (A) (A)
                 (A) (A) (A) (A) (A) (A) (A) (A) (A) (A) (A) (A)
                 (A) (A) (A) (A) (A) (A) (A) (A) (A) (A) (A) (A)
                 (A) (A) (A) (A) (A) (A) (A) (A) (A) (A) (A) (A)
                 (A) (A) (A) (A) (A) (A) (A) (A) (A) (A) (A) (A)
                 (A) (A) (A) (A) (A) (A) (A) (A) (A) (A) (A) (A)
                 (A) (A) (A) (A) (A) (A) (A) (A) (A) (A) (A) (A)
                 (A) (A) (A) (A) (A) (A) (A) (A) (A) (A) (A) (A)
                 (A) (A) (A) (A) (A) (A) (A) (A) (A) (A) (A) (A)
                 (A) (A) (A) (A) (A) (A) (A) (A) (A) (A) (A) (A)
                 (A) (A) (A) (A) (A) (A) (A) (A) (A) (A) (A) (A)
                 (A) (A) (A) (A) (A) (A) (A) (A) (A) (A) (A) (A)
                 (A) (A) (A) (A) (A) (A) (A) (A) (A) (A) (A) (A)
                 (A) (A) (A) (A) (A) (A) (A) (A) (A) (A) (A) (A)
                 (A) (A) (A) (A) (A) (A) (A) (A) (A) (A) (A) (A)
                 (A) (A) (A) (A) (A) (A) (A) (A) (A) (A) (A) (A)
                 (A) (A) (A) (A) (A) (A) (A) (A) (A) (A) (A) (A)
                 (A) (A) (A) (A) (A) (A) (A) (A) (A) (A) (A) (A)
                 (A) (A) (A) (A) (A) (A) (A) (A) (A) (A) (A) (A)
                 (A) (A) (A) (A) (A) (A) (A) (A) (A) (A) (A) (A)
                 (A) (A) (A) (A) (A) (A) (A) (A) (A) (A) (A) (A)
                 (A) (A) (A) (A) (A) (A) (A) (A) (A) (A) (A) (A)
                 (A) (A) (A) (A) (A) (A) (A) (A) (A) (A) (A) (A)
                 (A) (A) (A) (A) (A) (A) (A) (A) (A) (A) (A) (A)
                 (A) (A) (A) (A) (A) (A) (A) (A) (A) (A) (A) (A)
                 (A) (A) (A) (A) (A) (A) (A) (A) (A) (A) (A) (A)
                 (A) (A) (A) (A) (A) (A) (A) (A) (A) (A) (A) (A)
                 (A) (A) (A) (A) (A) (A) (A) (A) (A) (A) (A) (A)
                 (A) (A) (A) (A) (A) (A) (A) (A) (A) (A) (A) (A)
                 (A) (A) (A) (A) (A) (A) (A) (A) (A) (A) (A) (A)
                 (A) (A) (A) (A) (A) (A) (A) (A) (A) (A) (A) (A)
                 (A) (A) (A) (A) (A) (A) (A) (A) (A) (A) (A) (A)
                 (A) (A) (A) (A) (A) (A) (A) (A) (A) (A) (A) (A)
                 (A) (A) (A) (A) (A) (A)
 The electronic state is 1-A.
 Alpha  occ. eigenvalues --  -88.98799 -88.97639 -88.91609 -66.19450 -66.12962
 Alpha  occ. eigenvalues --  -14.39900 -14.39574 -14.39495 -14.38917 -10.28842
 Alpha  occ. eigenvalues --  -10.28620 -10.28037 -10.27385 -10.26665 -10.26560
 Alpha  occ. eigenvalues --  -10.26195 -10.25181 -10.25024 -10.24970 -10.23821
 Alpha  occ. eigenvalues --  -10.23480 -10.23310 -10.23209 -10.22816 -10.22189
 Alpha  occ. eigenvalues --  -10.21576 -10.21142 -10.20755 -10.18753 -10.17645
 Alpha  occ. eigenvalues --   -8.04078  -8.02987  -7.97582  -6.00657  -6.00091
 Alpha  occ. eigenvalues --   -5.99770  -5.99604  -5.99030  -5.98597  -5.94008
 Alpha  occ. eigenvalues --   -5.93605  -5.93306  -5.33386  -5.27939  -3.69388
 Alpha  occ. eigenvalues --   -3.69295  -3.69104  -3.63834  -3.63760  -3.63735
 Alpha  occ. eigenvalues --   -1.02755  -1.02597  -0.91976  -0.91539  -0.90841
 Alpha  occ. eigenvalues --   -0.89987  -0.88240  -0.85166  -0.81617  -0.81061
 Alpha  occ. eigenvalues --   -0.78450  -0.76940  -0.75479  -0.72214  -0.71577
 Alpha  occ. eigenvalues --   -0.71232  -0.67142  -0.65629  -0.64134  -0.62680
 Alpha  occ. eigenvalues --   -0.61440  -0.60361  -0.59217  -0.57573  -0.55984
 Alpha  occ. eigenvalues --   -0.55455  -0.53886  -0.53085  -0.52821  -0.52236
 Alpha  occ. eigenvalues --   -0.50290  -0.49642  -0.48567  -0.47948  -0.47152
 Alpha  occ. eigenvalues --   -0.46292  -0.45702  -0.44650  -0.43850  -0.43774
 Alpha  occ. eigenvalues --   -0.43422  -0.42620  -0.41495  -0.40870  -0.40156
 Alpha  occ. eigenvalues --   -0.39700  -0.39072  -0.38761  -0.37939  -0.37043
 Alpha  occ. eigenvalues --   -0.36485  -0.35934  -0.35195  -0.35002  -0.34772
 Alpha  occ. eigenvalues --   -0.33837  -0.33281  -0.32961  -0.32084  -0.31606
 Alpha  occ. eigenvalues --   -0.31453  -0.31422  -0.30134  -0.29821  -0.27667
 Alpha  occ. eigenvalues --   -0.26719  -0.24742  -0.24208  -0.23355  -0.21643
 Alpha  occ. eigenvalues --   -0.19189
 Alpha virt. eigenvalues --   -0.13652  -0.13157  -0.12217  -0.07991  -0.06272
 Alpha virt. eigenvalues --   -0.05100  -0.04878  -0.03390  -0.03003  -0.02446
 Alpha virt. eigenvalues --   -0.01738  -0.01463  -0.01044  -0.00749  -0.00507
 Alpha virt. eigenvalues --   -0.00180   0.00201   0.00925   0.01020   0.01568
 Alpha virt. eigenvalues --    0.01659   0.01856   0.02041   0.02216   0.02695
 Alpha virt. eigenvalues --    0.02930   0.02995   0.03439   0.03524   0.03966
 Alpha virt. eigenvalues --    0.04226   0.04485   0.04675   0.04933   0.05342
 Alpha virt. eigenvalues --    0.05649   0.05844   0.06169   0.06423   0.06824
 Alpha virt. eigenvalues --    0.06856   0.07462   0.07527   0.07713   0.07904
 Alpha virt. eigenvalues --    0.08483   0.08534   0.08936   0.09035   0.09114
 Alpha virt. eigenvalues --    0.09465   0.09759   0.09815   0.10102   0.10277
 Alpha virt. eigenvalues --    0.10659   0.10680   0.10999   0.11295   0.11475
 Alpha virt. eigenvalues --    0.11644   0.11678   0.11824   0.12085   0.12388
 Alpha virt. eigenvalues --    0.12541   0.12738   0.12965   0.13182   0.13229
 Alpha virt. eigenvalues --    0.13588   0.13807   0.14199   0.14251   0.14392
 Alpha virt. eigenvalues --    0.14770   0.14989   0.15220   0.15598   0.15766
 Alpha virt. eigenvalues --    0.15912   0.16206   0.16473   0.16660   0.16789
 Alpha virt. eigenvalues --    0.17114   0.17440   0.17547   0.17738   0.18025
 Alpha virt. eigenvalues --    0.18241   0.18683   0.18784   0.19086   0.19094
 Alpha virt. eigenvalues --    0.19309   0.19798   0.19970   0.20188   0.20423
 Alpha virt. eigenvalues --    0.20709   0.20960   0.21099   0.21361   0.21596
 Alpha virt. eigenvalues --    0.21743   0.21951   0.22240   0.22505   0.22761
 Alpha virt. eigenvalues --    0.22843   0.23310   0.23504   0.23530   0.23835
 Alpha virt. eigenvalues --    0.24239   0.24465   0.24694   0.24937   0.25017
 Alpha virt. eigenvalues --    0.25152   0.25685   0.25990   0.26069   0.26285
 Alpha virt. eigenvalues --    0.26357   0.26760   0.27046   0.27080   0.27324
 Alpha virt. eigenvalues --    0.27576   0.28022   0.28221   0.28438   0.28600
 Alpha virt. eigenvalues --    0.28802   0.28856   0.29231   0.29442   0.29689
 Alpha virt. eigenvalues --    0.30143   0.30427   0.30618   0.30805   0.31165
 Alpha virt. eigenvalues --    0.31329   0.31619   0.31902   0.32383   0.32496
 Alpha virt. eigenvalues --    0.32846   0.33041   0.33285   0.33832   0.34078
 Alpha virt. eigenvalues --    0.34516   0.34746   0.34878   0.35642   0.35826
 Alpha virt. eigenvalues --    0.36029   0.36595   0.36928   0.37289   0.37497
 Alpha virt. eigenvalues --    0.37929   0.38067   0.38593   0.38968   0.39239
 Alpha virt. eigenvalues --    0.39433   0.39673   0.39961   0.40760   0.41304
 Alpha virt. eigenvalues --    0.41948   0.42798   0.43191   0.44230   0.44618
 Alpha virt. eigenvalues --    0.44812   0.45439   0.46406   0.47302   0.47739
 Alpha virt. eigenvalues --    0.48293   0.48529   0.48739   0.50558   0.51295
 Alpha virt. eigenvalues --    0.52452   0.52725   0.53563   0.53989   0.54524
 Alpha virt. eigenvalues --    0.54841   0.56930   0.57554   0.58582   0.59206
 Alpha virt. eigenvalues --    0.60256   0.60760   0.61608   0.63470   0.63965
 Alpha virt. eigenvalues --    0.64337   0.64912   0.65229   0.65734   0.66323
 Alpha virt. eigenvalues --    0.66932   0.67573   0.67796   0.68046   0.68278
 Alpha virt. eigenvalues --    0.68805   0.69137   0.69684   0.70177   0.70603
 Alpha virt. eigenvalues --    0.71006   0.71762   0.72313   0.72598   0.72900
 Alpha virt. eigenvalues --    0.73157   0.73739   0.74195   0.74832   0.75122
 Alpha virt. eigenvalues --    0.75721   0.75770   0.76406   0.76866   0.77386
 Alpha virt. eigenvalues --    0.78181   0.78492   0.79170   0.79357   0.80268
 Alpha virt. eigenvalues --    0.80366   0.80765   0.81143   0.81863   0.82226
 Alpha virt. eigenvalues --    0.82681   0.83290   0.83951   0.84359   0.84947
 Alpha virt. eigenvalues --    0.85251   0.85542   0.86072   0.86451   0.87066
 Alpha virt. eigenvalues --    0.88822   0.89590   0.89859   0.90541   0.90649
 Alpha virt. eigenvalues --    0.91813   0.92285   0.93028   0.93158   0.93302
 Alpha virt. eigenvalues --    0.93642   0.96150   0.96308   0.96990   0.97193
 Alpha virt. eigenvalues --    0.97941   0.98427   0.99347   1.00417   1.00663
 Alpha virt. eigenvalues --    1.01040   1.01565   1.01777   1.02858   1.03576
 Alpha virt. eigenvalues --    1.03734   1.04518   1.05305   1.05851   1.06074
 Alpha virt. eigenvalues --    1.06633   1.07036   1.08323   1.09194   1.09925
 Alpha virt. eigenvalues --    1.10576   1.10613   1.10762   1.11383   1.11996
 Alpha virt. eigenvalues --    1.12582   1.13099   1.13716   1.14735   1.15153
 Alpha virt. eigenvalues --    1.15536   1.15745   1.16588   1.17296   1.17791
 Alpha virt. eigenvalues --    1.18233   1.18873   1.19380   1.20366   1.20696
 Alpha virt. eigenvalues --    1.21021   1.22325   1.22838   1.23533   1.24635
 Alpha virt. eigenvalues --    1.25011   1.25716   1.25899   1.27189   1.27320
 Alpha virt. eigenvalues --    1.28980   1.29565   1.29878   1.31367   1.31603
 Alpha virt. eigenvalues --    1.32286   1.32676   1.34882   1.35598   1.36274
 Alpha virt. eigenvalues --    1.37101   1.37764   1.38101   1.39542   1.40906
 Alpha virt. eigenvalues --    1.42322   1.43040   1.43330   1.43918   1.46666
 Alpha virt. eigenvalues --    1.46861   1.48563   1.51086   1.51254   1.52840
 Alpha virt. eigenvalues --    1.53982   1.54392   1.54851   1.55840   1.57896
 Alpha virt. eigenvalues --    1.59324   1.61148   1.63284   1.63765   1.65456
 Alpha virt. eigenvalues --    1.66025   1.66499   1.67880   1.68191   1.69176
 Alpha virt. eigenvalues --    1.70440   1.71269   1.72133   1.72360   1.73247
 Alpha virt. eigenvalues --    1.74264   1.75468   1.76402   1.77243   1.77560
 Alpha virt. eigenvalues --    1.78394   1.80978   1.81558   1.82231   1.83279
 Alpha virt. eigenvalues --    1.83931   1.85203   1.87389   1.87960   1.88146
 Alpha virt. eigenvalues --    1.89530   1.90249   1.91143   1.91677   1.93147
 Alpha virt. eigenvalues --    1.93918   1.94406   1.95742   1.97246   1.98117
 Alpha virt. eigenvalues --    2.00294   2.00708   2.02247   2.03133   2.03422
 Alpha virt. eigenvalues --    2.04097   2.06496   2.07426   2.08002   2.09291
 Alpha virt. eigenvalues --    2.10528   2.10867   2.11342   2.13233   2.13519
 Alpha virt. eigenvalues --    2.14160   2.14865   2.15320   2.16327   2.17236
 Alpha virt. eigenvalues --    2.17985   2.18319   2.19135   2.19734   2.20809
 Alpha virt. eigenvalues --    2.21947   2.22530   2.22756   2.24615   2.24943
 Alpha virt. eigenvalues --    2.26035   2.26942   2.28089   2.28560   2.29267
 Alpha virt. eigenvalues --    2.30464   2.31187   2.31608   2.33001   2.34704
 Alpha virt. eigenvalues --    2.35235   2.35536   2.36296   2.38194   2.39503
 Alpha virt. eigenvalues --    2.39864   2.41210   2.41871   2.42637   2.43181
 Alpha virt. eigenvalues --    2.43291   2.43910   2.44276   2.46171   2.47491
 Alpha virt. eigenvalues --    2.48503   2.48858   2.49091   2.50772   2.51053
 Alpha virt. eigenvalues --    2.51781   2.53060   2.53867   2.55093   2.55565
 Alpha virt. eigenvalues --    2.57550   2.58280   2.59515   2.60322   2.62235
 Alpha virt. eigenvalues --    2.63022   2.64570   2.64793   2.65725   2.66781
 Alpha virt. eigenvalues --    2.67286   2.67533   2.68326   2.70813   2.72007
 Alpha virt. eigenvalues --    2.73982   2.74865   2.77565   2.79284   2.79567
 Alpha virt. eigenvalues --    2.80517   2.80946   2.82222   2.82578   2.84083
 Alpha virt. eigenvalues --    2.86333   2.87347   2.89450   2.90671   2.91886
 Alpha virt. eigenvalues --    2.95772   2.96703   2.98930   3.00203   3.04312
 Alpha virt. eigenvalues --    3.04925   3.08781   3.11009   3.12321   3.14355
 Alpha virt. eigenvalues --    3.22433   3.23064   3.27768   3.31000   3.32192
 Alpha virt. eigenvalues --    3.33743   3.41005   3.48229   3.48975   3.55618
 Alpha virt. eigenvalues --    3.67158   3.95809   3.99541   4.00236   4.10413
 Alpha virt. eigenvalues --    4.16835   4.19708   4.22221   4.28768   4.32222
 Alpha virt. eigenvalues --    4.33041   4.34122   4.34378   4.37910   4.39156
 Alpha virt. eigenvalues --    4.42714   4.44671   4.47972   4.50773   4.51893
 Alpha virt. eigenvalues --    4.54036   4.55585   4.57486   4.58154   4.62521
 Alpha virt. eigenvalues --    4.72965   4.75386   4.78716   4.81499
          Condensed to atoms (all electrons):
              1          2          3          4          5          6
     1  C   18.658602  -4.768131  -1.191933   1.058810  -3.573069  -0.318812
     2  C   -4.768131  17.892890  -6.654908   0.449754  -1.864158   2.068610
     3  C   -1.191933  -6.654908  26.765274  -8.526399   5.162033  -2.445786
     4  C    1.058810   0.449754  -8.526399  19.786793  -2.660410   1.044539
     5  C   -3.573069  -1.864158   5.162033  -2.660410  20.222673   3.370044
     6  C   -0.318812   2.068610  -2.445786   1.044539   3.370044  25.869891
     7  C   -0.964188   1.177872  -2.886719   2.025143  -2.149011  -1.389692
     8  N   -0.032019  -0.019418   0.061134  -0.032769   0.106806  -0.380838
     9  S   -0.004697   0.024598  -0.067423   0.075598  -0.238156  -0.427196
    10  N    0.001718   0.004460  -0.002039   0.000193   0.136738   0.120714
    11  C   -0.175488  -0.000568  -0.724831   0.480377  -3.781653  -7.570585
    12  C   -0.437953  -0.251811   0.822444  -0.927205  -0.596262  -1.146229
    13  C   -0.008517   0.037637   0.015776  -0.006286   0.178749  -0.614351
    14  C   -0.001885   0.000399   0.001509  -0.014876   0.007462  -0.025140
    15  Si  -0.006730   0.034233  -0.026449   0.027286   0.001537   0.072531
    16  H   -0.003501  -0.001569   0.005722   0.005215   0.011545   0.027926
    17  H    0.000735  -0.001678   0.000614  -0.005423  -0.001230   0.001219
    18  C   -0.740899  -0.014547   0.298325  -1.125112  -2.605695  -8.552135
    19  C    0.036512  -2.411709   1.128411  -0.936982  -6.277954  -6.175322
    20  C   -0.579938   0.088263   2.092516  -3.866903   1.977938   1.634363
    21  N   -0.125514   0.081413  -0.120525   0.261666  -0.098602  -0.155021
    22  S    0.514694  -0.326334   0.123150  -0.095896  -0.020665  -0.228618
    23  N    0.438383  -0.528416   0.685528  -0.812204   0.110034  -0.441975
    24  C   -1.085185   3.226068  -5.432293  -0.226215  -0.587580   2.147379
    25  C   -0.914249   1.170411  -1.265627   0.135588   0.515067   0.124581
    26  S    0.333549  -0.547621  -0.192793  -0.351302   0.025365  -0.013276
    27  C    0.252397   0.304210   0.371342  -0.018070  -0.247402   0.005348
    28  C   -0.079058  -3.569424  -0.722136   0.440524  -0.209872   0.021305
    29  Si  -0.015484   0.040366   0.017764  -0.001560   0.008364   0.000967
    30  H    0.000197   0.001055  -0.005570   0.002269  -0.000404   0.000042
    31  H   -0.000497   0.006982   0.000880  -0.000885   0.000655  -0.000071
    32  C    0.073597   0.002164   0.032396  -0.124972   0.047167  -0.009453
    33  C    0.928787   0.355076  -0.480174  -0.376596  -0.363221  -0.046674
    34  C   -1.484385   0.507226  -1.321002   0.791248  -0.539899   0.258805
    35  H    0.030050   0.156387   0.103394  -0.278758   0.062552  -0.100970
    36  H    0.934498  -0.395093   0.044151   0.133519  -0.131908  -0.039311
    37  H    0.049258  -0.302746   0.750816  -0.054113   0.097071  -0.037297
    38  H    0.000378  -0.000271  -0.001005  -0.004506  -0.011436  -0.036850
    39  H   -0.000522  -0.000410   0.000679  -0.001124  -0.008047  -0.006543
    40  H    0.002810   0.027841   0.000447   0.001798  -0.001389   0.000111
    41  H   -0.001364  -0.015330  -0.000788   0.000379   0.000727   0.000055
    42  H    0.022679  -0.137220  -0.059252   0.030564  -0.059895   0.005431
              7          8          9         10         11         12
     1  C   -0.964188  -0.032019  -0.004697   0.001718  -0.175488  -0.437953
     2  C    1.177872  -0.019418   0.024598   0.004460  -0.000568  -0.251811
     3  C   -2.886719   0.061134  -0.067423  -0.002039  -0.724831   0.822444
     4  C    2.025143  -0.032769   0.075598   0.000193   0.480377  -0.927205
     5  C   -2.149011   0.106806  -0.238156   0.136738  -3.781653  -0.596262
     6  C   -1.389692  -0.380838  -0.427196   0.120714  -7.570585  -1.146229
     7  C   35.241671   0.295882   0.514251   1.058295   3.622366 -19.925794
     8  N    0.295882   7.013686   0.064239  -0.137948   0.057895   0.142344
     9  S    0.514251   0.064239  15.855022  -0.110094   0.318326  -1.158502
    10  N    1.058295  -0.137948  -0.110094   7.674052  -0.226408  -1.165080
    11  C    3.622366   0.057895   0.318326  -0.226408  24.177258 -11.306777
    12  C  -19.925794   0.142344  -1.158502  -1.165080 -11.306777  67.677119
    13  C   -1.713996   0.088401  -0.158946   0.111026  -0.991332   0.166037
    14  C   -0.616205   0.012819   0.026908   0.030152  -0.608235  -1.586496
    15  Si   0.449506  -0.002275  -0.006157  -0.005863   0.258387   0.304019
    16  H   -0.035562  -0.000062  -0.002007   0.000423  -0.034686   0.526040
    17  H   -0.053728   0.000376   0.000272  -0.000884  -0.075207  -0.085826
    18  C   -0.203899   0.051616   0.209744   0.004164   1.412654  -7.290204
    19  C   -5.634062   0.017192   0.205741  -0.156854   2.695526 -14.184341
    20  C   -3.307640  -0.007444  -0.063465  -0.013658  -1.829530  -3.301998
    21  N    0.112280   0.000094   0.001095   0.000425   0.060596  -0.005886
    22  S   -0.175057  -0.000172  -0.000426   0.000305  -0.034137  -0.009795
    23  N   -0.292361   0.001540  -0.000987  -0.000131  -0.041804   0.034681
    24  C    0.062330   0.005892   0.016456   0.007882  -0.028806  -0.332472
    25  C    0.276196  -0.006502   0.001833   0.000231   0.036943  -0.050487
    26  S   -0.124190   0.003051  -0.000096  -0.000068  -0.013800   0.005274
    27  C   -0.011588   0.000413   0.000232   0.000002  -0.001682  -0.000599
    28  C    0.029531  -0.000967  -0.000150  -0.000007   0.003630   0.000094
    29  Si   0.001106  -0.000015   0.000001  -0.000000   0.000094   0.000002
    30  H    0.000002  -0.000000   0.000000   0.000000   0.000000  -0.000001
    31  H   -0.000009   0.000000  -0.000000  -0.000000   0.000000   0.000000
    32  C   -0.002220   0.000034  -0.000009  -0.000000  -0.000173   0.000188
    33  C   -0.058792   0.000663   0.000066   0.000012  -0.005888  -0.001716
    34  C    0.098783  -0.002447   0.000194   0.000034   0.005910  -0.003424
    35  H   -0.051127   0.002544   0.000335  -0.000433   0.005432   0.030114
    36  H    0.004787  -0.001848  -0.000149  -0.000019   0.000949  -0.014496
    37  H   -0.028179  -0.000236  -0.002150  -0.000150   0.000201   0.011897
    38  H   -0.066523   0.000342  -0.003498   0.006480  -0.111583   0.300205
    39  H   -0.073364  -0.000219  -0.005142   0.004147  -0.081700   0.346033
    40  H   -0.000513   0.000024   0.000007   0.000000  -0.000054  -0.000006
    41  H    0.000051   0.000000  -0.000000  -0.000000   0.000004   0.000005
    42  H   -0.002228  -0.000108  -0.000002   0.000004  -0.000304  -0.000360
             13         14         15         16         17         18
     1  C   -0.008517  -0.001885  -0.006730  -0.003501   0.000735  -0.740899
     2  C    0.037637   0.000399   0.034233  -0.001569  -0.001678  -0.014547
     3  C    0.015776   0.001509  -0.026449   0.005722   0.000614   0.298325
     4  C   -0.006286  -0.014876   0.027286   0.005215  -0.005423  -1.125112
     5  C    0.178749   0.007462   0.001537   0.011545  -0.001230  -2.605695
     6  C   -0.614351  -0.025140   0.072531   0.027926   0.001219  -8.552135
     7  C   -1.713996  -0.616205   0.449506  -0.035562  -0.053728  -0.203899
     8  N    0.088401   0.012819  -0.002275  -0.000062   0.000376   0.051616
     9  S   -0.158946   0.026908  -0.006157  -0.002007   0.000272   0.209744
    10  N    0.111026   0.030152  -0.005863   0.000423  -0.000884   0.004164
    11  C   -0.991332  -0.608235   0.258387  -0.034686  -0.075207   1.412654
    12  C    0.166037  -1.586496   0.304019   0.526040  -0.085826  -7.290204
    13  C   15.628927  -0.749865   0.311438  -0.036982  -0.195734  -4.591686
    14  C   -0.749865  10.031591  -0.458260  -0.003057   0.074892   0.375562
    15  Si   0.311438  -0.458260  13.701781   0.364389   0.219177  -1.014554
    16  H   -0.036982  -0.003057   0.364389   0.804566  -0.062994  -0.129395
    17  H   -0.195734   0.074892   0.219177  -0.062994   0.776573   0.268599
    18  C   -4.591686   0.375562  -1.014554  -0.129395   0.268599  25.246568
    19  C   -1.987381  -0.141829  -0.005232  -0.249472   0.028979   7.489278
    20  C   -0.058632   0.182737  -0.703083  -0.180310   0.097072  -1.963156
    21  N   -0.021513  -0.009291   0.038314   0.002255  -0.003221   0.316438
    22  S    0.011700  -0.005872   0.007568   0.002030  -0.002915  -0.115304
    23  N    0.000982   0.001595  -0.010639  -0.004361   0.001561   0.038716
    24  C   -0.077235  -0.012807  -0.006179   0.050205  -0.006563  -0.873505
    25  C   -0.000753  -0.000128   0.000671  -0.000427   0.000026  -0.051690
    26  S    0.000159  -0.000006  -0.000107  -0.000014  -0.000002   0.010290
    27  C   -0.000002  -0.000001   0.000035  -0.000009  -0.000000  -0.000586
    28  C    0.000021   0.000001   0.000081   0.000003  -0.000001  -0.003116
    29  Si  -0.000000   0.000000   0.000000  -0.000000  -0.000000   0.000049
    30  H   -0.000000  -0.000000   0.000000   0.000000  -0.000000   0.000003
    31  H    0.000000   0.000000  -0.000000   0.000000   0.000000  -0.000001
    32  C    0.000012  -0.000000  -0.000014  -0.000009   0.000001  -0.000222
    33  C    0.000060  -0.000008   0.000121  -0.000111   0.000001  -0.004031
    34  C    0.000794   0.000020   0.001192   0.000025  -0.000036  -0.018562
    35  H    0.000183   0.000709  -0.002785   0.000211   0.000405   0.076227
    36  H   -0.002375  -0.000211  -0.000353  -0.000007   0.000026  -0.025501
    37  H   -0.000839   0.000083  -0.000512   0.000125   0.000004  -0.008034
    38  H    0.344906  -0.124727  -0.045799  -0.000944   0.012229  -0.046931
    39  H   -0.404625   0.516404  -0.037790   0.001316   0.014459   0.039632
    40  H   -0.000000  -0.000000   0.000000  -0.000000  -0.000000   0.000004
    41  H    0.000000   0.000000  -0.000001   0.000000   0.000000   0.000013
    42  H    0.000029  -0.000002   0.000121  -0.000023  -0.000003  -0.002520
             19         20         21         22         23         24
     1  C    0.036512  -0.579938  -0.125514   0.514694   0.438383  -1.085185
     2  C   -2.411709   0.088263   0.081413  -0.326334  -0.528416   3.226068
     3  C    1.128411   2.092516  -0.120525   0.123150   0.685528  -5.432293
     4  C   -0.936982  -3.866903   0.261666  -0.095896  -0.812204  -0.226215
[...]
 446,0.00005806,0.00001862,-0.00029258,-0.00023671,0.00018961,-0.000416
 43,0.00039684,-0.00044998,0.00061715,-0.01199818,0.00467639,0.01079221
 ,0.12063284,-0.04404565,-0.13764140,0.02509460,-0.00798912,-0.01309769
 ,-0.00042019,0.00267675,-0.00319938,0.00102050,-0.00049705,-0.00007221
 ,0.00036272,-0.00041935,0.00007095,-0.00250750,0.00198463,-0.00177847,
 -0.00040779,0.00015822,0.00083341,-0.00018243,0.00009078,-0.00027413,0
 .00016881,-0.00011503,-0.00000587,-0.00011323,0.00004421,0.00008499,0.
 00002420,-0.00002058,0.00005141,-0.00001797,-0.00000196,0.00004247,0.0
 0000371,-0.00000303,0.00000721,0.00000079,-0.00000059,0.00000188,0.000
 00118,-0.00000031,-0.00000310,0.00000182,-0.00000183,0.00000123,-0.000
 00668,0.00000671,-0.00000678,0.00000134,-0.00000207,0.00000169,0.00000
 182,-0.00000114,0.00000181,0.00000356,-0.00000351,0.00000134,-0.000005
 73,0.00000400,-0.00000178,0.00000254,-0.00000144,-0.00000130,-0.000002
 66,0.00000876,0.00000189,-0.00000818,-0.00000323,-0.00000117,0.,0.0000
 0080,-0.00000314,-0.13079011,0.04496129,0.14260081,-0.00002727,0.00000
 178,0.00000136,0.00001219,-0.00000568,-0.00001595,0.00001294,-0.000008
 25,0.00000101,0.00000654,0.00000688,0.00002795,0.00000829,-0.00009498,
 -0.00012637,-0.00017037,0.00019627,-0.00002513,-0.00011830,-0.00019222
 ,-0.00005576,-0.00002437,-0.00003045,0.00000058,-0.00000665,0.00004434
 ,-0.00013322,0.00004156,0.00009802,0.00001366,0.00038271,-0.00003807,0
 .00017381,0.00240028,0.00370112,0.00166414,0.00589643,-0.00204723,0.00
 617242,-0.19762520,0.11220391,-0.11512121,-0.00209510,0.00323056,-0.00
 783558,-0.00045919,-0.00033347,0.00053386,-0.00057504,0.00039560,0.000
 58825,-0.00265596,0.00065722,0.00000660,0.00079849,0.00046027,-0.00066
 307,0.00004282,-0.00005969,0.00017592,-0.00028989,0.00013070,0.0000750
 4,0.00010878,-0.00003532,-0.00010983,-0.00013072,0.00010312,-0.0001028
 5,-0.00003962,-0.00002273,0.00009534,0.00001157,0.00000517,0.00000731,
 0.00000063,0.00000214,0.00000031,-0.00000601,0.00000529,-0.00000999,-0
 .00000972,0.00000739,-0.00000520,0.00001644,-0.00001099,0.00002493,-0.
 00000320,0.00000424,-0.00000633,-0.00000471,0.00000141,-0.00000693,-0.
 00000372,0.00000484,-0.00001444,-0.00000492,-0.00000174,0.00000790,0.0
 0000008,-0.00000468,0.00000326,-0.00000256,0.00000050,-0.00000669,0.00
 000531,-0.00000380,0.00000257,-0.00000207,0.00000128,0.00000377,-0.000
 75990,-0.00320572,-0.00125181,0.19527015,0.00000014,-0.00002223,-0.000
 00574,-0.00000523,-0.00000173,-0.00000178,-0.00000663,-0.00000067,0.00
 000894,0.00000702,0.00002876,-0.00000978,-0.00009969,-0.00016765,-0.00
 000389,0.00013094,0.00011635,0.00003529,-0.00024431,-0.00037764,0.0000
 0756,0.00000054,-0.00008572,0.00001729,0.00002143,-0.00000066,0.000074
 26,0.00008138,0.00018637,0.00001821,0.00031684,0.00021945,-0.00004270,
 0.00345216,0.00781537,0.00214316,0.00425587,0.00214505,0.00008524,0.10
 906931,-0.10300931,0.07975633,0.00069462,-0.00004500,0.00334922,0.0005
 5003,-0.00037658,-0.00019263,-0.00027759,-0.00014465,-0.00032357,0.000
 07599,-0.00139077,-0.00027934,0.00039851,0.00110880,0.00047086,-0.0000
 1508,0.00001832,-0.00006223,0.00010648,-0.00006223,-0.00003171,-0.0000
 4420,0.00001472,0.00003801,0.00006607,-0.00001932,0.00004676,-0.000001
 98,-0.00003669,-0.00003948,0.00000531,0.00002049,0.00000474,0.00000095
 ,0.00000430,0.00000012,0.00000351,-0.00000354,0.00000902,0.00000915,-0
 .00000324,0.00000338,-0.00000711,0.00001200,-0.00001465,0.00000133,-0.
 00000382,0.00000383,0.00000224,-0.00000203,0.00000416,0.00000179,-0.00
 000294,0.00000931,0.00000124,-0.00000465,-0.00000603,-0.00000427,-0.00
 000390,-0.00000663,-0.00000947,0.00000538,-0.00000828,0.00000316,-0.00
 000719,0.00000842,0.00000245,0.00000074,-0.00000105,-0.00337564,-0.005
 31890,-0.00114511,-0.11516654,0.09939581,0.00000931,-0.00000988,0.0000
 0111,-0.00001828,-0.00000053,0.00004484,-0.00000681,0.00001307,-0.0000
 4862,0.00002716,-0.00000939,0.00000626,-0.00010276,-0.00001633,0.00012
 403,0.00029476,-0.00013303,0.00008375,0.00019909,-0.00012665,-0.000398
 21,-0.00015110,0.00009730,-0.00016827,-0.00002112,0.00001515,0.0000061
 1,0.00009543,-0.00002483,0.00010839,-0.00156441,0.00087300,0.00013823,
 0.00288370,0.00150011,-0.00470462,-0.02467495,0.01633430,-0.01193217,-
 0.09979792,0.07168597,-0.12285164,0.00459871,-0.00320102,0.00482151,0.
 00024226,0.00020843,-0.00036676,-0.00015625,-0.00017946,-0.00048183,0.
 00284623,-0.00177541,-0.00006068,-0.00035861,0.00031008,0.00082157,-0.
 00004280,0.00005289,-0.00015088,0.00019398,-0.00009431,-0.00005108,-0.
 00006640,0.00001509,0.00009660,0.00007824,-0.00004865,0.00006134,-0.00
 000637,0.00001410,-0.00009838,0.00000674,0.00000502,-0.00001774,0.0000
 0620,-0.00000296,0.00000339,-0.00000132,0.00000445,-0.00001829,-0.0000
 1387,0.00000798,-0.00000092,0.00000602,-0.00000471,0.00001281,-0.00000
 121,0.00000199,-0.00000349,-0.00000192,0.00000067,-0.00000377,0.000000
 58,0.00000141,-0.00000851,-0.00000688,0.00000174,0.00000401,0.00000131
 ,-0.00000562,0.00001659,0.00000237,-0.00000569,0.00000013,0.00000826,-
 0.00000196,0.00000483,-0.00000197,0.00000197,-0.00000278,-0.00041684,-
 0.00158417,0.00149877,0.11590960,-0.08391885,0.13351452,0.00002897,-0.
 00006401,0.00008387,0.00072677,0.00050036,-0.00007952,-0.00002356,-0.0
 0004679,-0.00004474,0.00004845,0.00009345,0.00000996,0.00003822,-0.000
 05729,0.00000777,-0.00006035,-0.00007500,-0.00001174,-0.00000360,0.000
 00569,0.00000262,-0.00000417,0.00000085,-0.00000459,0.00000847,-0.0000
 0256,-0.00000356,0.00000033,-0.00000277,0.00000006,0.00000478,0.000002
 27,0.00000364,0.00000083,-0.00000413,-0.00000119,-0.00000318,0.0000001
 2,0.00000048,0.00000161,-0.00000073,0.00000254,0.00000437,0.00000177,-
 0.00000239,-0.00000092,-0.00000080,0.00000112,-0.00000076,-0.00000022,
 0.00000012,0.00000594,0.00001495,-0.00000051,0.00000434,-0.00000134,0.
 00000977,0.00000504,-0.00000694,-0.00000491,0.00000010,-0.00000349,0.0
 0000246,0.00000078,0.00000294,0.00000023,-0.00000394,-0.00000041,0.000
 00198,0.00000189,-0.00000464,-0.00000929,0.00068478,-0.00043916,0.0018
 3832,0.00162912,-0.00205967,0.00106110,-0.25055415,0.13303143,-0.07017
 214,-0.00992246,0.00731296,-0.00961748,-0.00053263,-0.00082249,-0.0005
 4223,-0.00009056,-0.00008423,0.00034959,0.00005810,-0.00002734,-0.0001
 0795,-0.00000849,0.00012737,0.00004741,-0.00041656,0.00059392,-0.00086
 439,-0.00044709,0.00369729,0.00371980,-0.00004669,0.00004999,0.0000013
 0,0.00005494,-0.00003908,0.00002262,0.00000542,0.00002032,0.00000399,0
 .00000068,-0.00000005,0.00000017,-0.00000059,-0.00000123,-0.00000011,0
 .25913964,-0.00006811,-0.00003303,0.00004339,0.00078762,0.00118775,0.0
 0020197,-0.00003444,-0.00010396,-0.00003685,0.00008777,0.00017699,0.00
 003042,-0.00000931,-0.00005465,-0.00003882,-0.00007840,-0.00016133,-0.
 00002120,0.00000389,0.00000621,-0.00000024,0.00000261,-0.00000549,-0.0
 0000097,-0.00000416,0.00000391,0.00000248,0.00000073,-0.00000550,0.000
 00107,0.00000410,0.00000839,-0.00000030,-0.00000439,-0.00000482,-0.000
 00156,-0.00000101,-0.00000219,-0.00000025,0.00000085,0.00000061,0.0000
 0075,0.00000103,0.00000647,-0.00000113,-0.00000035,-0.00000177,0.00000
 127,-0.00000030,-0.00000113,-0.00000071,0.00001506,0.00002445,0.000008
 22,0.00000418,0.00000439,-0.00000500,-0.00000798,-0.00000663,0.0000040
 1,0.00000101,-0.00000585,-0.00000120,0.00000264,0.00000417,0.00000431,
 -0.00000156,-0.00000299,-0.00000061,-0.00000595,-0.00000724,-0.0000008
 6,-0.00034326,0.00065280,0.00045008,0.00199590,-0.00296665,0.00023969,
 0.13343132,-0.10555111,0.04729732,0.00264853,-0.00175741,0.00285636,-0
 .00089521,-0.00176365,-0.00032323,-0.00014319,-0.00007436,0.00038470,0
 .00010394,-0.00003240,-0.00049597,0.00015846,0.00016033,0.00003563,0.0
 0030736,0.00014983,0.00030912,0.00370494,0.00605272,-0.00003513,-0.000
 09584,0.00007345,-0.00002715,0.00012178,-0.00004808,0.00002292,0.00002
 026,0.00003865,-0.00001871,0.00000020,0.00000055,-0.00000003,-0.000000
 87,-0.00000240,-0.00000050,-0.14158754,0.10441261,0.00010282,0.0000332
 9,-0.00048779,-0.00148395,0.00094259,0.00085912,-0.00010621,-0.0000039
 7,0.00016424,0.00003816,0.00001523,0.00005661,-0.00022800,0.00008558,0
 .00010197,0.00000617,-0.00003075,-0.00007243,0.00001134,-0.00000481,0.
 00000256,-0.00001291,0.00000341,0.00001222,0.00000406,-0.00000161,-0.0
 0000039,-0.00001710,0.00001012,-0.00001030,-0.00000546,0.00000458,0.00
 000218,-0.00000002,-0.00000219,0.00000326,0.00000620,-0.00000324,-0.00
 000286,-0.00000529,0.00000491,-0.00000918,0.00000097,-0.00000295,0.000
 01871,0.00000025,0.00000164,-0.00000418,-0.00000075,-0.00000015,-0.000
 00497,-0.00000117,0.00000849,-0.00000444,-0.00001724,0.00000930,0.0000
 0449,-0.00000012,0.00000142,-0.00001668,-0.00001966,0.00001047,-0.0000
 0609,0.00000187,0.00000344,-0.00001526,0.00000765,-0.00000360,-0.00000
 597,-0.00000300,-0.00000413,0.00001736,0.00136898,0.00069798,-0.006400
 34,-0.01882665,0.01073087,-0.00578020,-0.07213322,0.04833227,-0.075915
 43,0.01325363,-0.00920863,0.01109080,-0.00018677,-0.00051033,0.0006831
 6,-0.00006675,0.00005956,-0.00002026,-0.00004410,0.00001543,-0.0002105
 9,-0.00010543,0.00011593,-0.00004526,0.00053945,-0.00043171,0.00109649
 ,0.00368132,-0.00001558,-0.00144484,-0.00005938,0.00000579,-0.00001143
 ,0.00001014,0.00002860,0.00000849,0.00000416,-0.00001898,0.00012704,-0
 .00000109,0.00000063,0.00000035,-0.00000188,0.00000043,-0.00000025,0.0
 7404784,-0.05070574,0.07646435,0.00001426,0.00003078,0.00003003,0.0000
 0544,0.00011123,-0.00007702,0.00001054,-0.00004568,0.00010538,-0.00004
 962,0.00003343,-0.00002154,0.00006054,-0.00003275,0.00000511,-0.000053
 58,0.00001446,-0.00001598,0.00000740,0.00000694,-0.00001503,-0.0000113
 2,-0.00001505,0.00000806,0.00000433,0.00001772,-0.00001217,0.00000694,
 -0.00001657,0.00001189,0.00001072,-0.00000474,0.00000968,0.00001125,-0
 .00000044,-0.00000675,-0.00001047,0.00000340,-0.00000156,0.00000372,-0
 .00000507,0.00000933,0.00000117,0.00000500,-0.00000884,-0.00000083,-0.
 00000182,0.00000246,-0.00000005,-0.00000058,0.00000241,-0.00000775,0.0
 0000777,-0.00000675,0.00000428,-0.00000846,0.00002943,0.00000812,-0.00
 000586,-0.00000353,0.00000975,-0.00000718,0.00000721,-0.00000536,0.000
 00472,-0.00000228,0.00000072,-0.00000473,0.00000230,0.00000248,0.00000
 044,0.00000660,0.00007759,0.00018418,0.00034387,-0.00018241,-0.0006595
 5,0.00031847,0.00075146,0.00020011,0.00040605,-0.00246993,0.00113606,0
 .00015463,-0.00338180,0.00067968,0.00757333,-0.00042340,0.00045704,-0.
 00034752,-0.00036137,-0.00009551,-0.00061412,-0.22313020,0.07379377,0.
 13879472,0.00347487,0.00111255,-0.00435705,0.00273974,0.00394733,-0.00
 006412,-0.00002051,-0.00001879,0.00002067,0.00001429,0.00000753,-0.000
 01578,0.00001036,0.00000815,-0.00001534,0.00000180,0.00000017,-0.00000
 021,0.00000102,-0.00000049,0.00000064,0.00000289,-0.00001121,0.0000056
 7,0.22350683,0.00003331,0.00006729,-0.00000280,0.00007225,0.00013657,0
 .00005720,-0.00002021,-0.00001383,-0.00005241,0.00002162,-0.00000752,0
 .00000759,-0.00001513,0.00000781,0.00000228,-0.00000070,-0.00003194,0.
 00000012,-0.00000491,0.00001486,0.00001212,-0.00001746,-0.00002393,-0.
 00001799,0.00002742,0.00001615,0.00001290,-0.00001122,-0.00001217,-0.0
 0000880,0.00000075,0.00000576,-0.00000337,0.00000054,0.00000623,0.0000
 0623,0.00000179,-0.00000553,-0.00000009,-0.00000250,-0.00000006,-0.000
 00440,0.00000520,0.00000299,0.00000728,-0.00000098,-0.00000054,-0.0000
 0152,-0.00000106,-0.00000115,-0.00000221,0.00000577,0.00000157,-0.0000
 0121,-0.00000182,0.00000239,-0.00000887,-0.00000304,-0.00000241,-0.000
 00170,-0.00000480,0.00000173,-0.00000134,0.00000368,0.00000081,-0.0000
 0027,-0.00000484,-0.00000467,-0.00000063,0.00000593,0.00000373,-0.0000
 0482,0.00003424,0.00057114,-0.00014233,-0.00064675,-0.00088074,-0.0004
 3235,0.00019517,0.00118914,-0.00001652,0.00175247,-0.00114372,-0.00017
 731,0.00333969,0.00003950,-0.00473696,-0.00028285,-0.00037448,0.000411
 43,0.00043204,-0.00028666,0.00013804,0.07685134,-0.05975219,-0.0505036
 4,-0.00509994,0.00539414,0.00584515,0.00406774,0.00742102,0.00309155,-
 0.00002307,0.00000432,0.00003913,0.00000432,-0.00001897,-0.00004484,0.
 00000467,0.00001508,0.00001127,0.00000062,0.00000155,0.00000078,-0.000
 00048,0.00000064,-0.00000024,-0.00001667,-0.00000655,-0.00000393,-0.07
 747437,0.05272078,0.00001764,0.00000364,0.00002069,0.00011443,-0.00004
 358,0.00010475,-0.00001829,0.00001267,-0.00005038,0.00003564,-0.000022
 52,0.00002388,-0.00008171,0.00004823,-0.00002516,0.00005912,-0.0000394
 7,0.00000863,0.00004319,-0.00001860,-0.00000566,0.00002006,-0.00002430
 ,0.00003060,-0.00006003,0.00003806,0.00000147,-0.00001446,0.00000515,-
 0.00000766,-0.00001740,0.00001087,-0.00000296,-0.00001171,0.00000887,-
 0.00000537,0.00000646,-0.00000432,-0.00000017,-0.00000327,0.00000226,-
 0.00000488,-0.00000992,0.00000784,-0.00000558,0.00000165,-0.00000126,0
 .00000116,0.00000153,-0.00000158,0.00000099,0.00000300,-0.00000642,0.0
 0002801,-0.00000302,0.00000833,-0.00003336,-0.00001767,0.00000570,0.00
 001328,-0.00000451,0.00000487,-0.00001327,0.00000281,-0.00000299,0.000
 01010,0.00000296,-0.00000092,-0.00001047,-0.00002044,0.00000933,0.0000
 1290,0.00107275,-0.00052788,0.00037531,0.00025610,-0.00039929,-0.00001
 562,0.00042977,-0.00002946,0.00032221,-0.00286365,0.00141422,0.0002132
 3,-0.00546364,0.00213998,0.00447308,0.00008845,0.00021893,-0.00026398,
 -0.00000589,-0.00022044,-0.00041306,0.12382783,-0.04260799,-0.14077841
 ,0.02606885,-0.01020369,-0.01347936,-0.00065083,0.00340116,-0.00478286
 ,0.00001092,-0.00002359,0.00000023,0.00003075,-0.00000132,-0.00001138,
 0.00000154,0.00000236,0.00000434,-0.00000246,0.00000196,-0.00000125,0.
 00000056,-0.00000020,-0.00000015,0.00003236,-0.00001811,-0.00001133,-0
 .14201725,0.04812074,0.15292789,-0.00023414,0.00071452,-0.00123599,-0.
 00076250,0.00034154,0.00044966,0.00008799,-0.00008000,0.00015095,-0.00
 008355,0.00008842,-0.00030893,0.00048771,-0.00041524,0.00017894,-0.000
 01550,0.00001361,-0.00013201,0.00013255,-0.00007028,-0.00002565,-0.000
 06848,-0.00006792,0.00008809,-0.00006100,0.00006329,-0.00002310,-0.000
 02396,0.00000249,0.00000800,-0.00000022,-0.00000240,0.00005419,0.00001
 897,-0.00000061,-0.00000413,-0.00000687,0.00000406,-0.00000020,-0.0000
 0275,-0.00000306,0.00000406,0.00002232,-0.00000279,-0.00000256,-0.0000
 0464,0.00000047,0.00000056,-0.00000470,0.00000072,0.00000009,-0.000017
 70,0.00000665,-0.00001949,-0.00002657,0.00000995,0.00006183,0.00003065
 ,-0.00001111,-0.00004170,-0.00001864,0.00000514,0.00001508,-0.00000907
 ,0.00001247,-0.00005844,-0.00000256,0.00000269,-0.00001071,0.00012130,
 -0.00003659,0.00004657,0.00046903,-0.00054629,-0.00063764,-0.00042814,
 0.00022082,0.00021806,-0.00056035,0.00057677,-0.00073314,-0.00148104,0
 .00146461,0.00281876,0.00153087,0.00324104,0.00170599,-0.00059468,0.00
 011214,-0.00032427,0.00085880,-0.00063800,-0.00005760,0.00666602,0.002
 37222,0.00259978,-0.21610054,0.11065833,-0.09170779,-0.01099773,0.0098
 3201,-0.01256882,0.00037949,0.00038778,-0.00061505,0.00010900,-0.00066
 146,-0.00006459,0.00004274,0.00001607,-0.00006441,-0.00000037,0.000002
 22,-0.00000005,-0.00000117,0.00000100,0.00000134,-0.00033677,-0.000111
 10,0.00023546,-0.00063394,-0.00322777,-0.00086221,0.22152014,0.0005234
 7,0.00011734,0.00122873,0.00028180,-0.00004289,-0.00023029,-0.00002648
 ,0.00002849,-0.00009683,0.00006024,-0.00009274,0.00012406,-0.00033484,
 -0.00005536,0.00000968,-0.00001382,-0.00004138,0.00003924,-0.00006093,
 0.00001671,0.00002241,-0.00006200,-0.00011818,-0.00006346,0.00005706,0
 .00001960,0.00000278,-0.00001585,-0.00000305,-0.00002306,-0.00000172,0
 .00002096,-0.00001822,-0.00000190,0.00001642,0.00000373,0.00000510,-0.
 00000169,-0.00000113,-0.00000395,-0.00000383,-0.00000518,-0.00000172,0
 .00001562,0.00000626,0.00000054,-0.00000325,-0.00000084,0.00000011,-0.
 00000336,-0.00000186,-0.00000136,-0.00001394,0.00001007,0.00002088,0.0
 0000945,-0.00002063,-0.00001584,-0.00000087,0.00001292,0.00000266,-0.0
 0000287,-0.00000771,0.00000083,-0.00001218,0.00001805,-0.00000143,-0.0
 0000231,0.00000727,-0.00001908,0.00008178,-0.00000991,-0.00048683,-0.0
 0056461,0.00003905,0.00021600,-0.00002170,-0.00008461,0.00031029,0.000
 02687,0.00029099,0.00142590,0.00175481,-0.00060513,0.00323669,0.006317
 42,0.00151682,-0.00149350,0.00039460,-0.00024775,0.00121078,-0.0011240
 4,0.00023804,0.00750998,0.00748930,0.00351207,0.11095863,-0.11314344,0
 .06243320,0.00478956,-0.00075807,0.00492419,-0.00039026,-0.00005291,-0
 .00029349,0.00005139,-0.00022931,0.00112125,0.00000423,0.00003983,0.00
 002970,0.00000158,0.00000282,0.00000083,0.00000086,0.00000090,-0.00000
 050,-0.00010709,-0.00036506,-0.00016966,-0.00335358,-0.00505817,-0.001
 26727,-0.12427641,0.10536229,-0.00029599,0.00073122,-0.00218260,0.0007
 4361,-0.00038536,0.00002721,-0.00011180,0.00004195,0.00007834,-0.00017
 085,0.00005093,0.00015612,-0.00021625,0.00021843,-0.00074140,0.0000035
 2,-0.00003226,0.00010869,-0.00007031,0.00004620,-0.00005531,0.00005860
 ,-0.00004809,-0.00007907,0.00000585,-0.00001250,0.00009672,0.00009841,
 -0.00007093,0.00007689,0.00005115,-0.00001665,-0.00003411,0.00000198,0
 .00000051,0.00000846,-0.00000523,0.00000150,0.00000690,0.00000852,-0.0
 0000754,0.00000799,-0.00000799,0.00000920,-0.00000844,0.00000122,-0.00
 000304,0.00000235,0.00000215,-0.00000113,0.00000254,0.00002001,-0.0000
 1083,-0.00001119,0.00000823,0.00000768,-0.00004281,-0.00001856,0.00000
 071,0.00003799,0.00002732,-0.00001414,-0.00000431,-0.00000149,-0.00001
 204,0.00005477,0.00000941,-0.00000335,-0.00000942,-0.00004027,0.000035
 81,-0.00000209,-0.00093165,0.00019454,0.00063941,0.00024255,-0.0000969
 7,-0.00007647,0.00056999,-0.00039643,0.00072044,0.00300347,-0.00070247
 ,-0.00193588,0.00171975,0.00151001,-0.00350056,-0.00101839,0.00054484,
 0.00004408,-0.00055203,0.00007170,0.00011005,-0.02256049,0.01678630,-0
 .01175234,-0.09315779,0.06319826,-0.11064114,0.01210923,-0.00809473,0.
 01113567,-0.00042984,-0.00004692,-0.00152106,0.00007421,0.00070450,-0.
 00107371,-0.00000699,-0.00000075,0.00006942,0.00000305,-0.00000079,-0.
 00000014,0.00000208,-0.00000089,0.00000025,0.00021563,-0.00015944,-0.0
 0023293,-0.00024509,-0.00159325,0.00134955,0.10086109,-0.07244379,0.11
 917115\\0.00000373,0.00002405,-0.00001657,0.00000281,-0.00001253,-0.00
 000870,0.00000537,0.00000070,-0.00001392,-0.00001765,0.00000180,0.0000
 0109,0.00001023,-0.00000995,0.00003186,0.00001525,0.00000465,-0.000021
 09,-0.00001051,0.00000870,-0.00000901,-0.00000203,0.00000516,0.0000022
 3,-0.00001014,0.00000464,-0.00000191,0.00000179,-0.00000577,0.00001508
 ,0.00000646,-0.00000342,0.00000591,-0.00002006,0.00000148,-0.00001274,
 0.00001367,-0.00000454,0.00000579,-0.00000296,-0.00000326,-0.00001102,
 -0.00000230,-0.00001283,0.00000381,0.00000312,0.00000305,0.00000616,0.
 00000108,0.00000358,-0.00000303,0.00001144,0.00000302,0.00000165,0.000
 00521,-0.00000391,0.00000008,0.00000200,0.00000567,0.00000126,-0.00000
 157,-0.00000936,0.00000571,0.00001157,-0.00000280,-0.00001502,0.000009
 31,0.00000358,-0.00000466,-0.00001381,-0.00000040,0.00001654,-0.000024
 82,0.00001782,0.00000922,0.00001295,-0.00000041,0.00000580,0.00000109,
 -0.00000030,-0.00000676,-0.00000768,-0.00000318,-0.00000036,0.00000108
 ,0.00001016,-0.00000280,-0.00000304,0.00000119,0.00000183,0.00000091,-
 0.00000342,0.00000104,-0.00000150,-0.00000459,0.00000755,0.00000808,0.
 00000818,-0.00000037,0.00000650,-0.00001318,-0.00000015,0.00000420,-0.
 00000676,0.00000305,-0.00001184,-0.00000701,-0.00000496,-0.00000052,-0
 .00000333,0.00000744,0.00000065,0.00000667,-0.00000253,-0.00000016,-0.
 00000066,0.00000629,-0.00000072,-0.00000058,0.00000194,-0.00000236,0.0
 0000175,-0.00000425,-0.00000483,-0.00000365,-0.00000146\\\@


 ... FOR AFTERWARDS A MAN FINDS PLEASURE IN HIS PAINS,
 WHEN HE HAS SUFFERED LONG AND WANDERED FAR.

                                    -- HOMER
 Job cpu time:  0 days 21 hours 39 minutes 15.4 seconds.
 File lengths (MBytes):  RWF=   1968 Int=      0 D2E=      0 Chk=     31 Scr=      1
 Normal termination of Gaussian 09 at Sun Dec 29 12:08:32 2013.
