 Entering Gaussian System, Link 0=g09
 Initial command:
 /opt/gaussian/g09/l1.exe /panfs/panfs.cluster/home/shuo/Gau-7382.inp -scrdir=/panfs/panfs.cluster/home/shuo/
 Default is to use a total of  12 processors:
                               12 via shared-memory
                                1 via Linda
 Entering Link 1 = /opt/gaussian/g09/l1.exe PID=      7383.
  
 Copyright (c) 1988,1990,1992,1993,1995,1998,2003,2009,2011,
            Gaussian, Inc.  All Rights Reserved.
  
 This is part of the Gaussian(R) 09 program.  It is based on
 the Gaussian(R) 03 system (copyright 2003, Gaussian, Inc.),
 the Gaussian(R) 98 system (copyright 1998, Gaussian, Inc.),
 the Gaussian(R) 94 system (copyright 1995, Gaussian, Inc.),
 the Gaussian 92(TM) system (copyright 1992, Gaussian, Inc.),
 the Gaussian 90(TM) system (copyright 1990, Gaussian, Inc.),
 the Gaussian 88(TM) system (copyright 1988, Gaussian, Inc.),
 the Gaussian 86(TM) system (copyright 1986, Carnegie Mellon
 University), and the Gaussian 82(TM) system (copyright 1983,
 Carnegie Mellon University). Gaussian is a federally registered
 trademark of Gaussian, Inc.
  
 This software contains proprietary and confidential information,
 including trade secrets, belonging to Gaussian, Inc.
  
 This software is provided under written license and may be
 used, copied, transmitted, or stored only in accord with that
 written license.
  
 The following legend is applicable only to US Government
 contracts under FAR:
  
                    RESTRICTED RIGHTS LEGEND
  
 Use, reproduction and disclosure by the US Government is
 subject to restrictions as set forth in subparagraphs (a)
 and (c) of the Commercial Computer Software - Restricted
 Rights clause in FAR 52.227-19.
  
 Gaussian, Inc.
 340 Quinnipiac St., Bldg. 40, Wallingford CT 06492
  
  
 ---------------------------------------------------------------
 Warning -- This program may not be used in any manner that
 competes with the business of Gaussian, Inc. or will provide
 assistance to any competitor of Gaussian, Inc.  The licensee
 of this program is prohibited from giving any competitor of
 Gaussian, Inc. access to this program.  By using this program,
 the user acknowledges that Gaussian, Inc. is engaged in the
 business of creating and licensing software in the field of
 computational chemistry and represents and warrants to the
 licensee that it is not a competitor of Gaussian, Inc. and that
 it will not use this program in any manner prohibited above.
 ---------------------------------------------------------------
  

 Cite this work as:
 Gaussian 09, Revision C.01,
 M. J. Frisch, G. W. Trucks, H. B. Schlegel, G. E. Scuseria, 
 M. A. Robb, J. R. Cheeseman, G. Scalmani, V. Barone, B. Mennucci, 
 G. A. Petersson, H. Nakatsuji, M. Caricato, X. Li, H. P. Hratchian, 
 A. F. Izmaylov, J. Bloino, G. Zheng, J. L. Sonnenberg, M. Hada, 
 M. Ehara, K. Toyota, R. Fukuda, J. Hasegawa, M. Ishida, T. Nakajima, 
 Y. Honda, O. Kitao, H. Nakai, T. Vreven, J. A. Montgomery, Jr., 
 J. E. Peralta, F. Ogliaro, M. Bearpark, J. J. Heyd, E. Brothers, 
 K. N. Kudin, V. N. Staroverov, T. Keith, R. Kobayashi, J. Normand, 
 K. Raghavachari, A. Rendell, J. C. Burant, S. S. Iyengar, J. Tomasi, 
 M. Cossi, N. Rega, J. M. Millam, M. Klene, J. E. Knox, J. B. Cross, 
 V. Bakken, C. Adamo, J. Jaramillo, R. Gomperts, R. E. Stratmann, 
 O. Yazyev, A. J. Austin, R. Cammi, C. Pomelli, J. W. Ochterski, 
 R. L. Martin, K. Morokuma, V. G. Zakrzewski, G. A. Voth, 
 P. Salvador, J. J. Dannenberg, S. Dapprich, A. D. Daniels, 
 O. Farkas, J. B. Foresman, J. V. Ortiz, J. Cioslowski, 
 and D. J. Fox, Gaussian, Inc., Wallingford CT, 2010.
 
 ******************************************
 Gaussian 09:  EM64L-G09RevC.01 23-Sep-2011
                28-Dec-2013 
 ******************************************
 %chk=16_C17H9N5S2.chk
 %NProcShared=12
 Will use up to   12 processors via shared memory.
 %Mem=8000MB
 Default route:  MaxDisk=100GB
 --------------------------------------------
 #B3LYP/6-31++G(d,p) opt scf=direct freq test
 --------------------------------------------
 1/14=-1,18=20,19=15,26=3,38=1/1,3;
 2/9=110,12=2,17=6,18=5,40=1/2;
 3/5=1,6=6,7=1111,11=2,16=1,25=1,30=1,71=1,74=-5/1,2,3;
 4//1;
 5/5=2,38=5/2;
 6/7=2,8=2,9=2,10=2,28=1/1;
 7//1,2,3,16;
 1/14=-1,18=20,19=15/3(2);
 2/9=110/2;
 99//99;
 2/9=110/2;
 3/5=1,6=6,7=1111,11=2,16=1,25=1,30=1,71=1,74=-5/1,2,3;
 4/5=5,16=3/1;
 5/5=2,38=5/2;
 7//1,2,3,16;
 1/14=-1,18=20,19=15/3(-5);
 2/9=110/2;
 6/7=2,8=2,9=2,10=2,19=2,28=1/1;
 99/9=1/99;
 ----------------------------------------------------------------------
 Geom opt of No.16 candidate from the CEPDB database with SMILE code of
  C1C=Cc2csc(c12)-c1cc2c3nsnc3c3c4[SiH2]C=Cc4c4=C[SiH2]C=c4c3c2cn1, HPC
 , 20131227, Shuo Dai, Gaussian09
 ----------------------------------------------------------------------
 Charge =  0 Multiplicity = 1
 Symbolic Z-Matrix:
 C                     9.21596   12.94538   0.01031 
 C                     10.40612   13.90764   0.01579 
 C                     11.57366   13.22834   0.01869 
 C                     11.30589   11.83202   0.013 
 C                     12.05701   10.70003   0.01724 
 S                     11.01938   9.31122   0.01173 
 C                     9.5559    10.24547   0.01851 
 C                     9.90577   11.60065   0.00557 
 C                     8.2044    9.60356   0.09353 
 C                     7.11533   10.40013   0.14368 
 C                     5.80247   9.8423    0.29606 
 C                     4.81075   10.61083  -0.18878 
 N                     4.85733   11.959   -0.11763 
 S                     3.31845   12.38732  -0.40067 
 N                     2.76184   10.98206  -1.22604 
 C                     3.54046   9.92859  -0.87019 
 C                     3.34899   8.38808  -0.76568 
 C                     2.36372   7.1284   -0.93969 
 Si                    2.98772   5.35306   0.09276 
 H                     3.48354   4.77167  -1.17704 
 H                     3.78593   5.25737   1.34127 
 C                     0.98287   5.0025    0.66345 
 C                     0.43216   5.53352  -0.44717 
 C                     1.00496   7.00287  -0.70731 
 C                     0.67694   8.32285  -0.05524 
 C                    -0.46165   9.07794  -0.18763 
 Si                   -0.11652   11.16355  -0.07088 
 H                     0.09035   12.20167   1.03617 
 H                     0.39909   11.98    -1.2433 
 C                     1.48647   10.28149   1.15187 
 C                     1.93516   9.01021   0.77387 
 C                     3.63439   8.39184   0.53496 
 C                     5.27825   8.58481   0.52484 
 C                     6.56976   7.82814   0.31214 
 N                     7.95416   8.27407   0.12617 
 H                     8.61756   13.102   -0.89219 
 H                     8.60975   13.09895   0.90828 
 H                     10.3041   14.98515   0.0141 
 H                     12.55793   13.67812   0.02187 
 H                     13.13262   10.59101   0.02424 
 H                     7.21492   11.46318  -0.03965 
 H                     0.66745   5.56363   1.54649 
 H                     0.50856   4.67589  -1.16709 
 H                    -1.48704   8.91639  -0.51338 
 H                     0.43588   10.25094   1.48853 
 H                     6.58109   6.73901   0.17164 
 

 GradGradGradGradGradGradGradGradGradGradGradGradGradGradGradGradGradGrad
 Berny optimization.
 Initialization pass.
                           ----------------------------
                           !    Initial Parameters    !
                           ! (Angstroms and Degrees)  !
 --------------------------                            --------------------------
 ! Name  Definition              Value          Derivative Info.                !
 --------------------------------------------------------------------------------
 ! R1    R(1,2)                  1.5305         estimate D2E/DX2                !
 ! R2    R(1,8)                  1.5113         estimate D2E/DX2                !
 ! R3    R(1,36)                 1.0941         estimate D2E/DX2                !
 ! R4    R(1,37)                 1.0943         estimate D2E/DX2                !
 ! R5    R(2,3)                  1.3508         estimate D2E/DX2                !
 ! R6    R(2,38)                 1.0823         estimate D2E/DX2                !
 ! R7    R(3,4)                  1.4218         estimate D2E/DX2                !
 ! R8    R(3,39)                 1.0822         estimate D2E/DX2                !
 ! R9    R(4,5)                  1.3585         estimate D2E/DX2                !
 ! R10   R(4,8)                  1.4191         estimate D2E/DX2                !
 ! R11   R(5,6)                  1.7336         estimate D2E/DX2                !
 ! R12   R(5,40)                 1.0811         estimate D2E/DX2                !
 ! R13   R(6,7)                  1.7363         estimate D2E/DX2                !
 ! R14   R(7,8)                  1.3997         estimate D2E/DX2                !
 ! R15   R(7,9)                  1.4981         estimate D2E/DX2                !
 ! R16   R(9,10)                 1.3502         estimate D2E/DX2                !
 ! R17   R(9,35)                 1.3532         estimate D2E/DX2                !
 ! R18   R(10,11)                1.4346         estimate D2E/DX2                !
 ! R19   R(10,41)                1.0833         estimate D2E/DX2                !
 ! R20   R(11,12)                1.3451         estimate D2E/DX2                !
 ! R21   R(11,33)                1.3815         estimate D2E/DX2                !
 ! R22   R(12,13)                1.3508         estimate D2E/DX2                !
 ! R23   R(12,16)                1.5948         estimate D2E/DX2                !
 ! R24   R(13,14)                1.6223         estimate D2E/DX2                !
 ! R25   R(14,15)                1.7222         estimate D2E/DX2                !
 ! R26   R(15,16)                1.3575         estimate D2E/DX2                !
 ! R27   R(16,17)                1.5559         estimate D2E/DX2                !
 ! R28   R(17,18)                1.6087         estimate D2E/DX2                !
 ! R29   R(17,32)                1.3316         estimate D2E/DX2                !
 ! R30   R(18,19)                2.1464         estimate D2E/DX2                !
 ! R31   R(18,24)                1.3842         estimate D2E/DX2                !
 ! R32   R(19,20)                1.482          estimate D2E/DX2                !
 ! R33   R(19,21)                1.4849         estimate D2E/DX2                !
 ! R34   R(19,22)                2.1138         estimate D2E/DX2                !
 ! R35   R(22,23)                1.3486         estimate D2E/DX2                !
 ! R36   R(22,42)                1.0928         estimate D2E/DX2                !
 ! R37   R(23,24)                1.5984         estimate D2E/DX2                !
 ! R38   R(23,43)                1.1223         estimate D2E/DX2                !
 ! R39   R(24,25)                1.5084         estimate D2E/DX2                !
 ! R40   R(25,26)                1.3726         estimate D2E/DX2                !
 ! R41   R(25,31)                1.6562         estimate D2E/DX2                !
 ! R42   R(26,27)                2.1172         estimate D2E/DX2                !
 ! R43   R(26,44)                1.088          estimate D2E/DX2                !
 ! R44   R(27,28)                1.5317         estimate D2E/DX2                !
 ! R45   R(27,29)                1.5189         estimate D2E/DX2                !
 ! R46   R(27,30)                2.2006         estimate D2E/DX2                !
 ! R47   R(27,45)                1.8894         estimate D2E/DX2                !
 ! R48   R(30,31)                1.4001         estimate D2E/DX2                !
 ! R49   R(30,45)                1.1036         estimate D2E/DX2                !
 ! R50   R(31,32)                1.824          estimate D2E/DX2                !
 ! R51   R(32,33)                1.6552         estimate D2E/DX2                !
 ! R52   R(33,34)                1.5119         estimate D2E/DX2                !
 ! R53   R(34,35)                1.4663         estimate D2E/DX2                !
 ! R54   R(34,46)                1.0982         estimate D2E/DX2                !
 ! A1    A(2,1,8)              101.7999         estimate D2E/DX2                !
 ! A2    A(2,1,36)             109.7704         estimate D2E/DX2                !
 ! A3    A(2,1,37)             109.8537         estimate D2E/DX2                !
 ! A4    A(8,1,36)             111.9875         estimate D2E/DX2                !
 ! A5    A(8,1,37)             112.3519         estimate D2E/DX2                !
 ! A6    A(36,1,37)            110.7207         estimate D2E/DX2                !
 ! A7    A(1,2,3)              110.8525         estimate D2E/DX2                !
 ! A8    A(1,2,38)             123.5466         estimate D2E/DX2                !
 ! A9    A(3,2,38)             125.6006         estimate D2E/DX2                !
 ! A10   A(2,3,4)              109.3353         estimate D2E/DX2                !
 ! A11   A(2,3,39)             125.2495         estimate D2E/DX2                !
 ! A12   A(4,3,39)             125.4149         estimate D2E/DX2                !
 ! A13   A(3,4,5)              135.5767         estimate D2E/DX2                !
 ! A14   A(3,4,8)              110.2399         estimate D2E/DX2                !
 ! A15   A(5,4,8)              114.1831         estimate D2E/DX2                !
 ! A16   A(4,5,6)              109.6686         estimate D2E/DX2                !
 ! A17   A(4,5,40)             129.3537         estimate D2E/DX2                !
 ! A18   A(6,5,40)             120.9777         estimate D2E/DX2                !
 ! A19   A(5,6,7)               94.2108         estimate D2E/DX2                !
 ! A20   A(6,7,8)              108.074          estimate D2E/DX2                !
 ! A21   A(6,7,9)              122.0089         estimate D2E/DX2                !
 ! A22   A(8,7,9)              129.8544         estimate D2E/DX2                !
 ! A23   A(1,8,4)              107.7719         estimate D2E/DX2                !
 ! A24   A(1,8,7)              138.3617         estimate D2E/DX2                !
 ! A25   A(4,8,7)              113.855          estimate D2E/DX2                !
 ! A26   A(7,9,10)             118.4725         estimate D2E/DX2                !
 ! A27   A(7,9,35)             126.0867         estimate D2E/DX2                !
 ! A28   A(10,9,35)            115.4392         estimate D2E/DX2                !
 ! A29   A(9,10,11)            120.8435         estimate D2E/DX2                !
 ! A30   A(9,10,41)            119.8991         estimate D2E/DX2                !
 ! A31   A(11,10,41)           118.9256         estimate D2E/DX2                !
 ! A32   A(10,11,12)           114.4742         estimate D2E/DX2                !
 ! A33   A(10,11,33)           135.957          estimate D2E/DX2                !
 ! A34   A(12,11,33)           107.458          estimate D2E/DX2                !
 ! A35   A(11,12,13)           121.7238         estimate D2E/DX2                !
 ! A36   A(11,12,16)           119.7924         estimate D2E/DX2                !
 ! A37   A(13,12,16)           118.4838         estimate D2E/DX2                !
 ! A38   A(12,13,14)           102.8033         estimate D2E/DX2                !
 ! A39   A(13,14,15)           100.0653         estimate D2E/DX2                !
 ! A40   A(14,15,16)           108.7982         estimate D2E/DX2                !
 ! A41   A(12,16,15)           103.703          estimate D2E/DX2                !
 ! A42   A(12,16,17)           119.5304         estimate D2E/DX2                !
 ! A43   A(15,16,17)           135.6776         estimate D2E/DX2                !
 ! A44   A(16,17,18)           147.5039         estimate D2E/DX2                !
 ! A45   A(16,17,32)            92.0882         estimate D2E/DX2                !
 ! A46   A(18,17,32)           103.8357         estimate D2E/DX2                !
 ! A47   A(17,18,19)           114.6825         estimate D2E/DX2                !
 ! A48   A(17,18,24)           130.8495         estimate D2E/DX2                !
 ! A49   A(19,18,24)            97.4472         estimate D2E/DX2                !
 ! A50   A(18,19,20)            90.5503         estimate D2E/DX2                !
 ! A51   A(18,19,21)           127.8785         estimate D2E/DX2                !
 ! A52   A(18,19,22)            89.5017         estimate D2E/DX2                !
 ! A53   A(20,19,21)           121.0163         estimate D2E/DX2                !
 ! A54   A(20,19,22)           118.9207         estimate D2E/DX2                !
 ! A55   A(21,19,22)           105.7923         estimate D2E/DX2                !
 ! A56   A(19,22,23)            95.72           estimate D2E/DX2                !
 ! A57   A(19,22,42)           114.003          estimate D2E/DX2                !
 ! A58   A(23,22,42)           110.2075         estimate D2E/DX2                !
 ! A59   A(22,23,24)           110.4668         estimate D2E/DX2                !
 ! A60   A(22,23,43)           101.5117         estimate D2E/DX2                !
 ! A61   A(24,23,43)           125.0067         estimate D2E/DX2                !
 ! A62   A(18,24,23)           117.5469         estimate D2E/DX2                !
 ! A63   A(18,24,25)           101.9282         estimate D2E/DX2                !
 ! A64   A(23,24,25)           131.0095         estimate D2E/DX2                !
 ! A65   A(24,25,26)           128.3236         estimate D2E/DX2                !
 ! A66   A(24,25,31)           114.4812         estimate D2E/DX2                !
 ! A67   A(26,25,31)           116.7534         estimate D2E/DX2                !
 ! A68   A(25,26,27)           113.6635         estimate D2E/DX2                !
 ! A69   A(25,26,44)           136.8024         estimate D2E/DX2                !
 ! A70   A(27,26,44)           108.4469         estimate D2E/DX2                !
 ! A71   A(26,27,28)           136.8467         estimate D2E/DX2                !
 ! A72   A(26,27,29)           122.8394         estimate D2E/DX2                !
 ! A73   A(26,27,30)            75.7909         estimate D2E/DX2                !
 ! A74   A(26,27,45)            67.5026         estimate D2E/DX2                !
 ! A75   A(28,27,29)            98.4955         estimate D2E/DX2                !
 ! A76   A(28,27,30)            76.8021         estimate D2E/DX2                !
 ! A77   A(28,27,45)            72.0219         estimate D2E/DX2                !
 ! A78   A(29,27,30)           113.3954         estimate D2E/DX2                !
 ! A79   A(29,27,45)           142.8898         estimate D2E/DX2                !
 ! A80   A(27,30,31)           116.5746         estimate D2E/DX2                !
 ! A81   A(31,30,45)           111.2404         estimate D2E/DX2                !
 ! A82   A(25,31,30)           105.5765         estimate D2E/DX2                !
 ! A83   A(25,31,32)           120.0976         estimate D2E/DX2                !
 ! A84   A(30,31,32)           129.9215         estimate D2E/DX2                !
 ! A85   A(17,32,31)            85.9414         estimate D2E/DX2                !
 ! A86   A(17,32,33)           101.9596         estimate D2E/DX2                !
 ! A87   A(31,32,33)           152.439          estimate D2E/DX2                !
 ! A88   A(11,33,32)           118.9476         estimate D2E/DX2                !
 ! A89   A(11,33,34)            96.2066         estimate D2E/DX2                !
 ! A90   A(32,33,34)           142.2706         estimate D2E/DX2                !
 ! A91   A(33,34,35)           132.2346         estimate D2E/DX2                !
 ! A92   A(33,34,46)           121.5441         estimate D2E/DX2                !
 ! A93   A(35,34,46)           106.0001         estimate D2E/DX2                !
 ! A94   A(9,35,34)            118.4531         estimate D2E/DX2                !
 ! D1    D(8,1,2,3)             -0.1942         estimate D2E/DX2                !
 ! D2    D(8,1,2,38)           179.6159         estimate D2E/DX2                !
 ! D3    D(36,1,2,3)          -118.9799         estimate D2E/DX2                !
 ! D4    D(36,1,2,38)           60.8302         estimate D2E/DX2                !
 ! D5    D(37,1,2,3)           119.0471         estimate D2E/DX2                !
 ! D6    D(37,1,2,38)          -61.1428         estimate D2E/DX2                !
 ! D7    D(2,1,8,4)              0.2006         estimate D2E/DX2                !
 ! D8    D(2,1,8,7)            178.8286         estimate D2E/DX2                !
 ! D9    D(36,1,8,4)           117.395          estimate D2E/DX2                !
 ! D10   D(36,1,8,7)           -63.977          estimate D2E/DX2                !
 ! D11   D(37,1,8,4)          -117.2536         estimate D2E/DX2                !
 ! D12   D(37,1,8,7)            61.3744         estimate D2E/DX2                !
 ! D13   D(1,2,3,4)              0.1135         estimate D2E/DX2                !
 ! D14   D(1,2,3,39)           179.9466         estimate D2E/DX2                !
 ! D15   D(38,2,3,4)          -179.6919         estimate D2E/DX2                !
 ! D16   D(38,2,3,39)            0.1412         estimate D2E/DX2                !
 ! D17   D(2,3,4,5)           -179.7214         estimate D2E/DX2                !
 ! D18   D(2,3,4,8)              0.0244         estimate D2E/DX2                !
 ! D19   D(39,3,4,5)             0.4459         estimate D2E/DX2                !
 ! D20   D(39,3,4,8)          -179.8084         estimate D2E/DX2                !
 ! D21   D(3,4,5,6)            179.7472         estimate D2E/DX2                !
 ! D22   D(3,4,5,40)            -0.1769         estimate D2E/DX2                !
 ! D23   D(8,4,5,6)              0.0088         estimate D2E/DX2                !
 ! D24   D(8,4,5,40)          -179.9154         estimate D2E/DX2                !
 ! D25   D(3,4,8,1)             -0.1511         estimate D2E/DX2                !
 ! D26   D(3,4,8,7)           -179.1544         estimate D2E/DX2                !
 ! D27   D(5,4,8,1)            179.6538         estimate D2E/DX2                !
 ! D28   D(5,4,8,7)              0.6505         estimate D2E/DX2                !
 ! D29   D(4,5,6,7)             -0.4927         estimate D2E/DX2                !
 ! D30   D(40,5,6,7)           179.4389         estimate D2E/DX2                !
 ! D31   D(5,6,7,8)              0.8293         estimate D2E/DX2                !
 ! D32   D(5,6,7,9)           -176.5554         estimate D2E/DX2                !
 ! D33   D(6,7,8,1)           -179.5419         estimate D2E/DX2                !
 ! D34   D(6,7,8,4)             -0.9705         estimate D2E/DX2                !
 ! D35   D(9,7,8,1)             -2.431          estimate D2E/DX2                !
 ! D36   D(9,7,8,4)            176.1404         estimate D2E/DX2                !
 ! D37   D(6,7,9,10)           177.6023         estimate D2E/DX2                !
 ! D38   D(6,7,9,35)            -1.9134         estimate D2E/DX2                !
 ! D39   D(8,7,9,10)             0.8416         estimate D2E/DX2                !
 ! D40   D(8,7,9,35)          -178.6741         estimate D2E/DX2                !
 ! D41   D(7,9,10,11)         -176.2801         estimate D2E/DX2                !
 ! D42   D(7,9,10,41)           10.4044         estimate D2E/DX2                !
 ! D43   D(35,9,10,11)           3.2865         estimate D2E/DX2                !
 ! D44   D(35,9,10,41)        -170.029          estimate D2E/DX2                !
 ! D45   D(7,9,35,34)          175.0045         estimate D2E/DX2                !
 ! D46   D(10,9,35,34)          -4.5241         estimate D2E/DX2                !
 ! D47   D(9,10,11,12)        -154.616          estimate D2E/DX2                !
 ! D48   D(9,10,11,33)           6.2564         estimate D2E/DX2                !
 ! D49   D(41,10,11,12)         18.7635         estimate D2E/DX2                !
 ! D50   D(41,10,11,33)        179.6359         estimate D2E/DX2                !
 ! D51   D(10,11,12,13)        -35.2932         estimate D2E/DX2                !
 ! D52   D(10,11,12,16)        144.6283         estimate D2E/DX2                !
 ! D53   D(33,11,12,13)        158.5224         estimate D2E/DX2                !
 ! D54   D(33,11,12,16)        -21.5561         estimate D2E/DX2                !
 ! D55   D(10,11,33,32)       -176.1497         estimate D2E/DX2                !
 ! D56   D(10,11,33,34)        -10.3806         estimate D2E/DX2                !
 ! D57   D(12,11,33,32)        -14.3676         estimate D2E/DX2                !
 ! D58   D(12,11,33,34)        151.4015         estimate D2E/DX2                !
 ! D59   D(11,12,13,14)       -163.8288         estimate D2E/DX2                !
 ! D60   D(16,12,13,14)         16.2487         estimate D2E/DX2                !
 ! D61   D(11,12,16,15)        179.672          estimate D2E/DX2                !
 ! D62   D(11,12,16,17)          9.7915         estimate D2E/DX2                !
 ! D63   D(13,12,16,15)         -0.4039         estimate D2E/DX2                !
 ! D64   D(13,12,16,17)       -170.2844         estimate D2E/DX2                !
 ! D65   D(12,13,14,15)        -22.1153         estimate D2E/DX2                !
 ! D66   D(13,14,15,16)         24.0666         estimate D2E/DX2                !
 ! D67   D(14,15,16,12)        -15.1809         estimate D2E/DX2                !
 ! D68   D(14,15,16,17)        152.1804         estimate D2E/DX2                !
 ! D69   D(12,16,17,18)        165.8818         estimate D2E/DX2                !
 ! D70   D(12,16,17,32)         45.7056         estimate D2E/DX2                !
 ! D71   D(15,16,17,18)          0.023          estimate D2E/DX2                !
 ! D72   D(15,16,17,32)       -120.1531         estimate D2E/DX2                !
 ! D73   D(16,17,18,19)       -161.6259         estimate D2E/DX2                !
 ! D74   D(16,17,18,24)        -35.7545         estimate D2E/DX2                !
 ! D75   D(32,17,18,19)        -44.4646         estimate D2E/DX2                !
 ! D76   D(32,17,18,24)         81.4068         estimate D2E/DX2                !
 ! D77   D(16,17,32,31)         77.8589         estimate D2E/DX2                !
 ! D78   D(16,17,32,33)        -75.4495         estimate D2E/DX2                !
 ! D79   D(18,17,32,31)        -73.5656         estimate D2E/DX2                !
 ! D80   D(18,17,32,33)        133.126          estimate D2E/DX2                !
 ! D81   D(17,18,19,20)       -102.1322         estimate D2E/DX2                !
 ! D82   D(17,18,19,21)         29.1923         estimate D2E/DX2                !
 ! D83   D(17,18,19,22)        138.9499         estimate D2E/DX2                !
 ! D84   D(24,18,19,20)        116.0508         estimate D2E/DX2                !
 ! D85   D(24,18,19,21)       -112.6247         estimate D2E/DX2                !
 ! D86   D(24,18,19,22)         -2.8671         estimate D2E/DX2                !
 ! D87   D(17,18,24,23)       -157.4152         estimate D2E/DX2                !
 ! D88   D(17,18,24,25)         -7.3486         estimate D2E/DX2                !
 ! D89   D(19,18,24,23)        -25.3654         estimate D2E/DX2                !
 ! D90   D(19,18,24,25)        124.7012         estimate D2E/DX2                !
 ! D91   D(18,19,22,23)         32.4472         estimate D2E/DX2                !
 ! D92   D(18,19,22,42)        -82.6791         estimate D2E/DX2                !
 ! D93   D(20,19,22,23)        -57.9063         estimate D2E/DX2                !
 ! D94   D(20,19,22,42)       -173.0325         estimate D2E/DX2                !
 ! D95   D(21,19,22,23)        161.9144         estimate D2E/DX2                !
 ! D96   D(21,19,22,42)         46.7882         estimate D2E/DX2                !
 ! D97   D(19,22,23,24)        -52.2159         estimate D2E/DX2                !
 ! D98   D(19,22,23,43)         82.284          estimate D2E/DX2                !
 ! D99   D(42,22,23,24)         65.9809         estimate D2E/DX2                !
 ! D100  D(42,22,23,43)       -159.5191         estimate D2E/DX2                !
 ! D101  D(22,23,24,18)         62.1073         estimate D2E/DX2                !
 ! D102  D(22,23,24,25)        -77.5779         estimate D2E/DX2                !
 ! D103  D(43,23,24,18)        -59.3231         estimate D2E/DX2                !
 ! D104  D(43,23,24,25)        160.9917         estimate D2E/DX2                !
 ! D105  D(18,24,25,26)        143.8769         estimate D2E/DX2                !
 ! D106  D(18,24,25,31)        -28.1679         estimate D2E/DX2                !
 ! D107  D(23,24,25,26)        -72.0179         estimate D2E/DX2                !
 ! D108  D(23,24,25,31)        115.9373         estimate D2E/DX2                !
 ! D109  D(24,25,26,27)       -146.8429         estimate D2E/DX2                !
 ! D110  D(24,25,26,44)         19.4169         estimate D2E/DX2                !
 ! D111  D(31,25,26,27)         25.0481         estimate D2E/DX2                !
 ! D112  D(31,25,26,44)       -168.692          estimate D2E/DX2                !
 ! D113  D(24,25,31,30)        172.7721         estimate D2E/DX2                !
 ! D114  D(24,25,31,32)         14.086          estimate D2E/DX2                !
 ! D115  D(26,25,31,30)         -0.2439         estimate D2E/DX2                !
 ! D116  D(26,25,31,32)       -158.9299         estimate D2E/DX2                !
 ! D117  D(25,26,27,28)        -80.6564         estimate D2E/DX2                !
 ! D118  D(25,26,27,29)         80.3431         estimate D2E/DX2                !
 ! D119  D(25,26,27,30)        -28.5671         estimate D2E/DX2                !
 ! D120  D(25,26,27,45)        -59.1238         estimate D2E/DX2                !
 ! D121  D(44,26,27,28)        109.2123         estimate D2E/DX2                !
 ! D122  D(44,26,27,29)        -89.7882         estimate D2E/DX2                !
 ! D123  D(44,26,27,30)        161.3016         estimate D2E/DX2                !
 ! D124  D(44,26,27,45)        130.745          estimate D2E/DX2                !
 ! D125  D(26,27,30,31)         30.4686         estimate D2E/DX2                !
 ! D126  D(28,27,30,31)        176.809          estimate D2E/DX2                !
 ! D127  D(29,27,30,31)        -89.5288         estimate D2E/DX2                !
 ! D128  D(27,30,31,25)        -24.2768         estimate D2E/DX2                !
 ! D129  D(27,30,31,32)        131.5158         estimate D2E/DX2                !
 ! D130  D(45,30,31,25)         40.84           estimate D2E/DX2                !
 ! D131  D(45,30,31,32)       -163.3674         estimate D2E/DX2                !
 ! D132  D(25,31,32,17)         44.3156         estimate D2E/DX2                !
 ! D133  D(25,31,32,33)        152.5581         estimate D2E/DX2                !
 ! D134  D(30,31,32,17)       -108.5206         estimate D2E/DX2                !
 ! D135  D(30,31,32,33)         -0.2781         estimate D2E/DX2                !
 ! D136  D(17,32,33,11)         77.9886         estimate D2E/DX2                !
 ! D137  D(17,32,33,34)        -78.4725         estimate D2E/DX2                !
 ! D138  D(31,32,33,11)        -26.4586         estimate D2E/DX2                !
 ! D139  D(31,32,33,34)        177.0804         estimate D2E/DX2                !
 ! D140  D(11,33,34,35)          8.0632         estimate D2E/DX2                !
 ! D141  D(11,33,34,46)       -165.7218         estimate D2E/DX2                !
 ! D142  D(32,33,34,35)        167.4819         estimate D2E/DX2                !
 ! D143  D(32,33,34,46)         -6.3031         estimate D2E/DX2                !
 ! D144  D(33,34,35,9)          -1.9428         estimate D2E/DX2                !
 ! D145  D(46,34,35,9)         172.5494         estimate D2E/DX2                !
 --------------------------------------------------------------------------------
 Trust Radius=3.00D-01 FncErr=1.00D-07 GrdErr=1.00D-06
 Number of steps in this run=    276 maximum allowed number of steps=    276.
 GradGradGradGradGradGradGradGradGradGradGradGradGradGradGradGradGradGrad

                          Input orientation:                          
 ---------------------------------------------------------------------
 Center     Atomic      Atomic             Coordinates (Angstroms)
 Number     Number       Type             X           Y           Z
 ---------------------------------------------------------------------
      1          6           0        9.215960   12.945380    0.010310
      2          6           0       10.406120   13.907640    0.015790
      3          6           0       11.573660   13.228340    0.018690
      4          6           0       11.305890   11.832020    0.013000
      5          6           0       12.057010   10.700030    0.017240
      6         16           0       11.019380    9.311220    0.011730
      7          6           0        9.555900   10.245470    0.018510
      8          6           0        9.905770   11.600650    0.005570
      9          6           0        8.204400    9.603560    0.093530
     10          6           0        7.115330   10.400130    0.143680
     11          6           0        5.802470    9.842300    0.296060
     12          6           0        4.810750   10.610830   -0.188780
     13          7           0        4.857330   11.959000   -0.117630
     14         16           0        3.318450   12.387320   -0.400670
     15          7           0        2.761840   10.982060   -1.226040
     16          6           0        3.540460    9.928590   -0.870190
     17          6           0        3.348990    8.388080   -0.765680
     18          6           0        2.363720    7.128400   -0.939690
     19         14           0        2.987720    5.353060    0.092760
     20          1           0        3.483540    4.771670   -1.177040
     21          1           0        3.785930    5.257370    1.341270
     22          6           0        0.982870    5.002500    0.663450
     23          6           0        0.432160    5.533520   -0.447170
     24          6           0        1.004960    7.002870   -0.707310
     25          6           0        0.676940    8.322850   -0.055240
     26          6           0       -0.461650    9.077940   -0.187630
     27         14           0       -0.116520   11.163550   -0.070880
     28          1           0        0.090350   12.201670    1.036170
     29          1           0        0.399090   11.980000   -1.243300
     30          6           0        1.486470   10.281490    1.151870
     31          6           0        1.935160    9.010210    0.773870
     32          6           0        3.634390    8.391840    0.534960
     33          6           0        5.278250    8.584810    0.524840
     34          6           0        6.569760    7.828140    0.312140
     35          7           0        7.954160    8.274070    0.126170
     36          1           0        8.617560   13.102000   -0.892190
     37          1           0        8.609750   13.098950    0.908280
     38          1           0       10.304100   14.985150    0.014100
     39          1           0       12.557930   13.678120    0.021870
     40          1           0       13.132620   10.591010    0.024240
     41          1           0        7.214920   11.463180   -0.039650
     42          1           0        0.667450    5.563630    1.546490
     43          1           0        0.508560    4.675890   -1.167090
     44          1           0       -1.487040    8.916390   -0.513380
     45          1           0        0.435880   10.250940    1.488530
     46          1           0        6.581090    6.739010    0.171640
 ---------------------------------------------------------------------
                    Distance matrix (angstroms):
                    1          2          3          4          5
     1  C    0.000000
     2  C    1.530508   0.000000
     3  C    2.374634   1.350780   0.000000
     4  C    2.367992   2.262254   1.421774   0.000000
     5  C    3.621217   3.607520   2.574098   1.358529   0.000000
     6  S    4.057024   4.637152   3.956148   2.537030   1.733638
     7  C    2.721239   3.759571   3.601232   2.362125   2.542081
     8  C    1.511343   2.360648   2.330537   1.419128   2.332185
     9  C    3.492555   4.835155   4.949398   3.819916   4.006329
    10  C    3.302837   4.811266   5.281203   4.430370   4.952386
    11  C    4.621977   6.148100   6.696927   5.858903   6.319233
    12  C    4.989553   6.497613   7.254747   6.612024   7.249737
    13  N    4.470679   5.882522   6.836585   6.451133   7.310170
    14  S    5.938094   7.260846   8.308530   8.017399   8.909771
    15  N    6.858488   8.278658   9.178415   8.675162   9.382189
    16  C    6.487496   7.984678   8.729877   8.043940   8.597341
    17  C    7.469436   8.993293   9.575414   8.705132   9.043655
    18  C    9.038415  10.561782  11.088316  10.148599  10.374590
    19  Si   9.820443  11.323402  11.650918  10.543967  10.528429
    20  H   10.053854  11.524361  11.764144  10.604428  10.491718
    21  H    9.505902  10.973194  11.222046  10.076712   9.989313
    22  C   11.458608  12.981472  13.425535  12.394764  12.470606
    23  C   11.502178  13.031504  13.548443  12.574612  12.729715
    24  C   10.161148  11.686767  12.287431  11.399504  11.676548
    25  C    9.710146  11.218372  11.950222  11.193458  11.625929
    26  C   10.423647  11.894360  12.732520  12.087192  12.624975
    27  Si   9.501405  10.874902  11.871465  11.442261  12.182670
    28  H    9.213156  10.505552  11.573924  11.268179  12.103474
    29  H    8.957717  10.268483  11.314680  10.979912  11.795524
    30  C    8.254967   9.695349  10.569741  10.006107  10.639496
    31  C    8.311356   9.814106  10.548156   9.815911  10.289792
    32  C    7.222459   8.749281   9.310761   8.423728   8.748503
    33  C    5.897870   7.408556   7.839053   6.865770   7.119228
    34  C    5.768849   7.194845   7.367991   6.208983   6.200373
    35  N    4.840114   6.145031   6.136540   4.889367   4.767654
    36  H    1.094129   2.161581   3.095835   3.107947   4.292591
    37  H    1.094269   2.162744   3.097237   3.110596   4.293294
    38  H    2.311866   1.082330   2.167530   3.308446   4.629790
    39  H    3.421375   2.164025   1.082174   2.230643   3.019928
    40  H    4.569844   4.293473   3.063641   2.208433   1.081143
    41  H    2.490697   4.020226   4.702957   4.107901   4.902190
    42  H   11.398557  12.915388  13.417428  12.442697  12.587426
    43  H   12.066049  13.586247  14.035203  13.007119  13.078975
    44  H   11.448197  12.908906  13.764371  13.131528  13.671292
    45  H    9.302416  10.721292  11.622198  11.083056  11.722501
    46  H    6.744449   8.126771   8.189051   6.948932   6.760120
                    6          7          8          9         10
     6  S    0.000000
     7  C    1.736273   0.000000
     8  C    2.545909   1.399675   0.000000
     9  C    2.831301   1.498075   2.625027   0.000000
    10  C    4.055212   2.448667   3.040868   1.350227   0.000000
    11  C    5.251575   3.785210   4.473617   2.422247   1.434571
    12  C    6.346359   4.763707   5.193914   3.551218   2.337951
    13  N    6.708080   5.003127   5.062642   4.098239   2.756252
    14  S    8.302818   6.608254   6.646553   5.645003   4.319900
    15  N    8.515324   6.946274   7.275662   5.767407   4.600832
    16  C    7.556002   6.088983   6.639270   4.773546   3.745661
    17  C    7.764756   6.526146   7.342125   5.078449   4.365844
    18  C    8.977213   7.896944   8.819130   6.427091   5.869898
    19  Si   8.954393   8.190371   9.321985   6.729079   6.520174
    20  H    8.877476   8.262287   9.448734   6.873720   6.827427
    21  H    8.397867   7.741020   8.914804   6.322112   6.242364
    22  C   10.941725  10.069832  11.116948   8.581670   8.186064
    23  C   11.250370  10.279200  11.258966   8.790068   8.288411
    24  C   10.302141   9.173867  10.043515   7.696549   7.042882
    25  C   10.389775   9.085034   9.793823   7.637081   6.768126
    26  C   11.485130  10.087464  10.671682   8.686527   7.698609
    27  Si  11.289208   9.716304  10.032108   8.467485   7.275198
    28  H   11.351118   9.719001   9.887661   8.571847   7.307012
    29  H   11.022162   9.404676   9.595861   8.267856   7.037584
    30  C    9.649752   8.148712   8.598767   6.834490   5.719667
    31  C    9.121103   7.757069   8.416133   6.333901   5.400294
    32  C    7.460369   6.226311   7.064483   4.748486   4.037731
    33  C    5.809606   4.616541   5.547871   3.128296   2.610657
    34  C    4.699882   3.853146   5.045273   2.423212   2.634608
    35  N    3.237955   2.542357   3.858686   1.353229   2.285623
    36  H    4.577753   3.141595   2.172443   3.658063   3.260341
    37  H    4.577883   3.135162   2.177029   3.611908   3.178291
    38  H    5.718838   4.798374   3.407870   5.777245   5.586363
    39  H    4.630017   4.560184   3.368991   5.963254   6.354679
    40  H    2.470587   3.593377   3.381166   5.026650   6.021501
    41  H    4.371211   2.639392   2.694739   2.110686   1.083330
    42  H   11.115861  10.161638  11.143007   8.673969   8.181367
    43  H   11.547867  10.690193  11.731794   9.224806   8.839369
    44  H   12.523664  11.135344  11.716257   9.734709   8.754084
    45  H   10.727278   9.237735   9.679861   7.919282   6.815125
    46  H    5.132276   4.600892   5.892081   3.293461   3.699999
                   11         12         13         14         15
    11  C    0.000000
    12  C    1.345071   0.000000
    13  N    2.354750   1.350849   0.000000
    14  S    3.623936   2.329758   1.622258   0.000000
    15  N    3.586262   2.326317   2.563994   1.722152   0.000000
    16  C    2.546424   1.594806   2.534375   2.512984   1.357453
    17  C    3.043290   2.722163   3.930207   4.015979   2.699150
    18  C    4.551630   4.321937   5.498051   5.371991   3.884738
    19  Si   5.302587   5.571970   6.868635   7.059297   5.785836
    20  H    5.767040   6.069097   7.393738   7.656901   6.252375
    21  H    5.116686   5.661346   6.941767   7.354528   6.357037
    22  C    6.840116   6.843415   8.000901   7.818110   6.518439
    23  C    6.925186   6.709537   7.808810   7.436895   5.976674
    24  C    5.664381   5.269752   6.304895   5.868438   4.380601
    25  C    5.357537   4.726634   5.540861   4.859713   3.576168
    26  C    6.329092   5.490715   6.049542   5.028572   3.885210
    27  Si   6.075754   4.959576   5.037272   3.661338   3.106813
    28  H    6.224364   5.129664   4.910625   3.538305   3.707007
    29  H    6.011315   4.738078   4.598204   3.065713   2.564911
    30  C    4.421895   3.599534   3.973458   3.193908   2.787799
    31  C    3.984566   3.428950   4.246082   3.833785   2.927667
    32  C    2.619442   2.613721   3.827021   4.115712   3.251416
    33  C    1.381459   2.198310   3.460506   4.376810   3.891620
    34  C    2.155419   3.329925   4.492340   5.644930   5.178172
    35  N    2.667954   3.929461   4.819596   6.219823   6.010147
    36  H    4.467921   4.603533   4.005711   5.369630   6.236590
    37  H    4.342972   4.671904   4.053718   5.497056   6.575302
    38  H    6.840547   7.025150   6.232354   7.464587   8.628346
    39  H    7.773348   8.334953   7.891392   9.338774  10.236669
    40  H    7.373300   8.324620   8.388799   9.986251  10.453191
    41  H    2.175998   2.555147   2.410425   4.020802   4.633457
    42  H    6.799928   6.756650   7.824650   7.575089   6.436830
    43  H    7.540430   7.395231   8.547330   8.243120   6.696904
    44  H    7.392527   6.529828   7.047349   5.928979   4.777851
    45  H    5.512645   4.699189   5.004642   4.054924   3.648769
    46  H    3.201896   4.272587   5.504845   6.547959   5.877385
                   16         17         18         19         20
    16  C    0.000000
    17  C    1.555877   0.000000
    18  C    3.038192   1.608673   0.000000
    19  Si   4.708319   3.174710   2.146430   0.000000
    20  H    5.166355   3.642217   2.620021   1.481973   0.000000
    21  H    5.174080   3.798881   3.275090   1.484949   2.582485
    22  C    5.758444   4.370708   2.999376   2.113765   3.113525
    23  C    5.399733   4.093636   2.552869   2.618201   3.228629
    24  C    3.874936   2.723360   1.384192   2.700615   3.367827
    25  C    3.382646   2.765652   2.248152   3.765801   4.663295
    26  C    4.148057   3.915485   3.514117   5.084437   5.923463
    27  Si   3.941767   4.493967   4.815481   6.589756   7.418905
    28  H    4.550204   5.329997   5.900026   7.495881   8.462679
    29  H    3.770371   4.672464   5.243088   7.238950   7.840806
    30  C    2.903815   3.275817   3.884092   5.259742   6.306364
    31  C    2.474539   2.180866   2.580922   3.866075   4.916172
    32  C    2.084435   1.331590   2.320663   3.138137   4.007409
    33  C    2.602262   2.329418   3.572179   3.984649   4.545043
    34  C    3.871234   3.442178   4.443814   4.359491   4.591777
    35  N    4.817771   4.692120   5.805311   5.761852   5.826801
    36  H    5.987317   7.070706   8.648507   9.628671   9.789469
    37  H    6.237935   7.257412   8.836026   9.605785   9.998509
    38  H    8.491030   9.617845  11.211060  12.095981  12.339126
    39  H    9.806606  10.649382  12.155054  12.684659  12.771327
    40  H    9.656518  10.059637  11.352887  11.417522  11.331926
    41  H    4.067729   4.992872   6.567688   7.431038   7.745525
    42  H    5.757378   4.529272   3.392186   2.746147   3.996896
    43  H    6.072184   4.691431   3.083526   2.862170   2.976538
    44  H    5.140780   4.871340   4.266966   5.752235   6.505829
    45  H    3.912274   4.127702   4.400349   5.696428   6.812921
    46  H    4.528163   3.747595   4.378686   3.852193   3.909499
                   21         22         23         24         25
    21  H    0.000000
    22  C    2.895090   0.000000
    23  C    3.810846   1.348607   0.000000
    24  C    3.870044   2.425067   1.598362   0.000000
    25  C    4.584019   3.410987   2.827346   1.508357   0.000000
    26  C    5.914070   4.406834   3.664583   2.593632   1.372616
    27  Si   7.218466   6.301304   5.669205   4.355918   2.949475
    28  H    7.872338   7.263853   6.839690   5.559115   4.071917
    29  H    7.958922   7.256859   6.495539   5.042439   3.855312
    30  C    5.528578   5.325402   5.119738   3.799704   2.439001
    31  C    4.222689   4.120775   3.979613   2.662439   1.656202
    32  C    3.240062   4.305194   4.403277   3.222790   3.016555
    33  C    3.737035   5.594859   5.808594   4.720353   4.645123
    34  C    3.926535   6.270646   6.596360   5.717285   5.924950
    35  N    5.286879   7.719503   8.026196   7.113510   7.279644
    36  H    9.480043  11.238790  11.157092   9.756293   9.305601
    37  H    9.216675  11.125724  11.222565   9.879532   9.309617
    38  H   11.784635  13.673342  13.674841  12.276450  11.707829
    39  H   12.231019  14.479642  14.614678  13.362701  13.032375
    40  H   10.841720  13.388669  13.678528  12.668467  12.660760
    41  H    7.223364   9.004065   9.018468   7.674877   7.253075
    42  H    3.140196   1.092756   2.007722   2.695355   3.190443
    43  H    4.167870   1.918990   1.122342   2.423354   3.816396
    44  H    6.680746   4.775345   3.889926   3.147893   2.290195
    45  H    6.015003   5.340981   5.099118   3.961758   2.481706
    46  H    3.372864   5.881956   6.296465   5.651142   6.117108
                   26         27         28         29         30
    26  C    0.000000
    27  Si   2.117195   0.000000
    28  H    3.400012   1.531681   0.000000
    29  H    3.205817   1.518885   2.310940   0.000000
    30  C    2.652916   2.200619   2.376895   3.131161   0.000000
    31  C    2.583364   3.091903   3.695611   3.904886   1.400128
    32  C    4.215497   4.703057   5.227450   5.148229   2.926588
    33  C    5.804933   6.009020   6.344875   6.201600   4.201129
    34  C    7.159085   7.481845   7.850779   7.598322   5.706480
    35  N    8.459937   8.574602   8.837061   8.525752   6.849293
    36  H    9.955979   8.984225   8.788770   8.302133   7.936366
    37  H    9.982977   8.991792   8.567476   8.561325   7.664107
    38  H   12.281580  11.099602  10.635463  10.426946  10.058307
    39  H   13.809961  12.921817  12.595605  12.341866  11.635773
    40  H   13.679856  13.261846  13.180252  12.871625  11.704707
    41  H    8.039962   7.337627   7.243083   6.940563   5.969192
    42  H    4.078286   5.881292   6.682593   7.001768   4.804656
    43  H    4.612883   6.609246   7.852810   7.305328   6.144643
    44  H    1.087950   2.669056   3.960092   3.670964   3.671283
    45  H    2.234055   1.889381   2.032085   3.233249   1.103636
    46  H    7.429661   8.030775   8.527472   8.227220   6.282131
                   31         32         33         34         35
    31  C    0.000000
    32  C    1.823963   0.000000
    33  C    3.379235   1.655178   0.000000
    34  C    4.805206   2.997299   1.511883   0.000000
    35  N    6.098342   4.340667   2.723232   1.466288   0.000000
    36  H    8.010803   7.003881   5.793442   5.784245   4.978561
    37  H    7.828538   6.859334   5.623467   5.683166   4.931629
    38  H   10.310980   9.392979   8.153795   8.078175   7.111496
    39  H   11.627473  10.384488   8.898794   8.376437   7.099953
    40  H   11.333313   9.762866   8.121980   7.126533   5.674068
    41  H    5.878328   4.752210   3.514876   3.708572   3.277864
    42  H    3.752725   4.221931   5.606316   6.441187   7.903160
    43  H    4.958714   5.145490   6.394703   6.990204   8.369969
    44  H    3.657495   5.253876   6.852517   8.171768   9.484612
    45  H    2.073160   3.820473   5.210877   6.699130   7.892311
    46  H    5.206313   3.398071   2.286727   1.098213   2.060048
                   36         37         38         39         40
    36  H    0.000000
    37  H    1.800490   0.000000
    38  H    2.685523   2.688518   0.000000
    39  H    4.085821   4.087699   2.605405   0.000000
    40  H    5.246969   5.246679   5.225810   3.140147   0.000000
    41  H    2.319473   2.349439   4.685104   5.784246   5.981968
    42  H   11.224011  10.966699  13.563859  14.475943  13.526724
    43  H   11.697469  11.869473  14.269851  15.087779  13.991955
    44  H   10.943755  11.020894  13.271739  14.839870  14.725075
    45  H    8.985336   8.675252  11.043933  12.682301  12.785421
    46  H    6.765101   6.716170   9.049003   9.159492   7.601459
                   41         42         43         44         45
    41  H    0.000000
    42  H    8.954881   0.000000
    43  H    9.608001   2.859518   0.000000
    44  H    9.079354   4.486189   4.731976   0.000000
    45  H    7.054094   4.693385   6.175660   3.079982   0.000000
    46  H    4.771181   6.184082   6.551663   8.384805   7.199407
                   46
    46  H    0.000000
 Stoichiometry    C24H15N3S2Si2
 Framework group  C1[X(C24H15N3S2Si2)]
 Deg. of freedom   132
 Full point group                 C1      NOp   1
 Largest Abelian subgroup         C1      NOp   1
 Largest concise Abelian subgroup C1      NOp   1
                         Standard orientation:                         
 ---------------------------------------------------------------------
 Center     Atomic      Atomic             Coordinates (Angstroms)
 Number     Number       Type             X           Y           Z
 ---------------------------------------------------------------------
      1          6           0        4.899085    1.787542    0.073240
      2          6           0        6.336345    2.313479    0.084610
      3          6           0        7.221652    1.294449    0.035465
      4          6           0        6.516943    0.060584   -0.013576
      5          6           0        6.861918   -1.252305   -0.067578
      6         16           0        5.431140   -2.230804   -0.097810
      7          6           0        4.348295   -0.875640   -0.022854
      8          6           0        5.117191    0.293616    0.004150
      9          6           0        2.862784   -1.049936    0.061461
     10          6           0        2.090218    0.052490    0.165914
     11          6           0        0.669300   -0.057960    0.329592
     12          6           0       -0.026128    1.008712   -0.103774
     13          7           0        0.454438    2.265664    0.014226
     14         16           0       -0.866469    3.178706   -0.216596
     15          7           0       -1.856459    2.063483   -1.077993
     16          6           0       -1.456195    0.801417   -0.778567
     17          6           0       -2.134084   -0.597974   -0.724465
     18          6           0       -3.475447   -1.464266   -0.919691
     19         14           0       -3.447304   -3.387139    0.033685
     20          1           0       -3.180066   -4.044246   -1.267483
     21          1           0       -2.709090   -3.786753    1.258602
     22          6           0       -5.451418   -3.095746    0.639175
     23          6           0       -5.813213   -2.369983   -0.438374
     24          6           0       -4.799202   -1.154415   -0.659592
     25          6           0       -4.675792    0.172623    0.046723
     26          6           0       -5.510644    1.259352   -0.031493
     27         14           0       -4.508737    3.115508    0.151215
     28          1           0       -3.965233    3.984660    1.289295
     29          1           0       -3.769941    3.769877   -1.003339
     30          6           0       -3.263406    1.713785    1.303190
     31          6           0       -3.253858    0.382535    0.869550
     32          6           0       -1.848411   -0.740324    0.568307
     33          6           0       -0.230619   -1.087547    0.525868
     34          6           0        0.744607   -2.210792    0.255608
     35          7           0        2.196685   -2.227843    0.052678
     36          1           0        4.373466    2.166008   -0.808580
     37          1           0        4.385011    2.091073    0.990312
     38          1           0        6.588017    3.365415    0.123739
     39          1           0        8.298435    1.402243    0.031191
     40          1           0        7.844582   -1.702564   -0.090119
     41          1           0        2.525985    1.033257    0.018247
     42          1           0       -5.558775   -2.499958    1.548914
     43          1           0       -6.026053   -3.175836   -1.190006
     44          1           0       -6.536756    1.450748   -0.338245
     45          1           0       -4.263699    2.009755    1.663507
     46          1           0        0.401789   -3.238581    0.076168
 ---------------------------------------------------------------------
 Rotational constants (GHZ):      0.2460116      0.0643424      0.0521477
 Standard basis: 6-31++G(d,p) (6D, 7F)
 There are   695 symmetry adapted basis functions of A   symmetry.
 Integral buffers will be    131072 words long.
 Raffenetti 2 integral format.
 Two-electron integral symmetry is turned on.
   695 basis functions,  1208 primitive gaussians,   695 cartesian basis functions
   120 alpha electrons      120 beta electrons
       nuclear repulsion energy      3371.6162635332 Hartrees.
 NAtoms=   46 NActive=   46 NUniq=   46 SFac= 1.00D+00 NAtFMM=   60 NAOKFM=F Big=F
 One-electron integrals computed using PRISM.
 NBasis=   695 RedAO= T  NBF=   695
 NBsUse=   686 1.00D-06 NBFU=   686
 Harris functional with IExCor=  402 diagonalized for initial guess.
 ExpMin= 3.31D-02 ExpMax= 2.19D+04 ExpMxC= 3.30D+03 IAcc=3 IRadAn=         5 AccDes= 0.00D+00
 HarFok:  IExCor=  402 AccDes= 0.00D+00 IRadAn=         5 IDoV= 1
 ScaDFX=  1.000000  1.000000  1.000000  1.000000
 FoFCou: FMM=F IPFlag=           0 FMFlag=      100000 FMFlg1=           0
         NFxFlg=           0 DoJE=T BraDBF=F KetDBF=T FulRan=T
         Omega=  0.000000  0.000000  1.000000  0.000000  0.000000 ICntrl=     500 IOpCl=  0
         NMat0=    1 NMatS0=    1 NMatT0=    0 NMatD0=    1 NMtDS0=    0 NMtDT0=    0
         I1Cent=           4 NGrid=           0.
 Petite list used in FoFCou.
 Initial guess orbital symmetries:
       Occupied  (A) (A) (A) (A) (A) (A) (A) (A) (A) (A) (A) (A)
                 (A) (A) (A) (A) (A) (A) (A) (A) (A) (A) (A) (A)
                 (A) (A) (A) (A) (A) (A) (A) (A) (A) (A) (A) (A)
                 (A) (A) (A) (A) (A) (A) (A) (A) (A) (A) (A) (A)
                 (A) (A) (A) (A) (A) (A) (A) (A) (A) (A) (A) (A)
                 (A) (A) (A) (A) (A) (A) (A) (A) (A) (A) (A) (A)
                 (A) (A) (A) (A) (A) (A) (A) (A) (A) (A) (A) (A)
                 (A) (A) (A) (A) (A) (A) (A) (A) (A) (A) (A) (A)
                 (A) (A) (A) (A) (A) (A) (A) (A) (A) (A) (A) (A)
                 (A) (A) (A) (A) (A) (A) (A) (A) (A) (A) (A) (A)
       Virtual   (A) (A) (A) (A) (A) (A) (A) (A) (A) (A) (A) (A)
                 (A) (A) (A) (A) (A) (A) (A) (A) (A) (A) (A) (A)
                 (A) (A) (A) (A) (A) (A) (A) (A) (A) (A) (A) (A)
                 (A) (A) (A) (A) (A) (A) (A) (A) (A) (A) (A) (A)
                 (A) (A) (A) (A) (A) (A) (A) (A) (A) (A) (A) (A)
                 (A) (A) (A) (A) (A) (A) (A) (A) (A) (A) (A) (A)
                 (A) (A) (A) (A) (A) (A) (A) (A) (A) (A) (A) (A)
                 (A) (A) (A) (A) (A) (A) (A) (A) (A) (A) (A) (A)
                 (A) (A) (A) (A) (A) (A) (A) (A) (A) (A) (A) (A)
                 (A) (A) (A) (A) (A) (A) (A) (A) (A) (A) (A) (A)
                 (A) (A) (A) (A) (A) (A) (A) (A) (A) (A) (A) (A)
                 (A) (A) (A) (A) (A) (A) (A) (A) (A) (A) (A) (A)
                 (A) (A) (A) (A) (A) (A) (A) (A) (A) (A) (A) (A)
                 (A) (A) (A) (A) (A) (A) (A) (A) (A) (A) (A) (A)
                 (A) (A) (A) (A) (A) (A) (A) (A) (A) (A) (A) (A)
                 (A) (A) (A) (A) (A) (A) (A) (A) (A) (A) (A) (A)
                 (A) (A) (A) (A) (A) (A) (A) (A) (A) (A) (A) (A)
                 (A) (A) (A) (A) (A) (A) (A) (A) (A) (A) (A) (A)
                 (A) (A) (A) (A) (A) (A) (A) (A) (A) (A) (A) (A)
                 (A) (A) (A) (A) (A) (A) (A) (A) (A) (A) (A) (A)
                 (A) (A) (A) (A) (A) (A) (A) (A) (A) (A) (A) (A)
                 (A) (A) (A) (A) (A) (A) (A) (A) (A) (A) (A) (A)
                 (A) (A) (A) (A) (A) (A) (A) (A) (A) (A) (A) (A)
                 (A) (A) (A) (A) (A) (A) (A) (A) (A) (A) (A) (A)
                 (A) (A) (A) (A) (A) (A) (A) (A) (A) (A) (A) (A)
                 (A) (A) (A) (A) (A) (A) (A) (A) (A) (A) (A) (A)
                 (A) (A) (A) (A) (A) (A) (A) (A) (A) (A) (A) (A)
                 (A) (A) (A) (A) (A) (A) (A) (A) (A) (A) (A) (A)
                 (A) (A) (A) (A) (A) (A) (A) (A) (A) (A) (A) (A)
                 (A) (A) (A) (A) (A) (A) (A) (A) (A) (A) (A) (A)
                 (A) (A) (A) (A) (A) (A) (A) (A) (A) (A) (A) (A)
                 (A) (A) (A) (A) (A) (A) (A) (A) (A) (A) (A) (A)
                 (A) (A) (A) (A) (A) (A) (A) (A) (A) (A) (A) (A)
                 (A) (A) (A) (A) (A) (A) (A) (A) (A) (A) (A) (A)
                 (A) (A) (A) (A) (A) (A) (A) (A) (A) (A) (A) (A)
                 (A) (A) (A) (A) (A) (A) (A) (A) (A) (A) (A) (A)
                 (A) (A) (A) (A) (A) (A) (A) (A) (A) (A) (A) (A)
                 (A) (A) (A) (A) (A) (A) (A) (A) (A) (A) (A) (A)
                 (A) (A) (A) (A) (A) (A) (A) (A) (A) (A) (A) (A)
                 (A) (A) (A) (A) (A) (A) (A) (A) (A) (A) (A) (A)
                 (A) (A) (A) (A) (A) (A) (A) (A) (A) (A) (A) (A)
                 (A) (A) (A) (A) (A) (A) (A) (A) (A) (A) (A) (A)
                 (A) (A) (A) (A) (A) (A) (A) (A) (A) (A) (A) (A)
                 (A) (A) (A) (A) (A) (A) (A) (A) (A) (A) (A) (A)
                 (A) (A) (A) (A) (A) (A) (A) (A) (A) (A) (A) (A)
                 (A) (A) (A) (A) (A) (A) (A) (A) (A) (A) (A) (A)
                 (A) (A) (A) (A) (A) (A) (A) (A) (A) (A) (A) (A)
                 (A) (A)
 The electronic state of the initial guess is 1-A.
 Requested convergence on RMS density matrix=1.00D-08 within 128 cycles.
 Requested convergence on MAX density matrix=1.00D-06.
 Requested convergence on             energy=1.00D-06.
 No special actions if energy rises.
 EnCoef did     5 forward-backward iterations
 EnCoef did     5 forward-backward iterations
 Restarting incremental Fock formation.
 SCF Done:  E(RB3LYP) =  -2462.26200652     A.U. after   25 cycles
             Convg  =    0.8568D-08             -V/T =  2.0067

 **********************************************************************

            Population analysis using the SCF density.

 **********************************************************************

 Orbital symmetries:
       Occupied  (A) (A) (A) (A) (A) (A) (A) (A) (A) (A) (A) (A)
                 (A) (A) (A) (A) (A) (A) (A) (A) (A) (A) (A) (A)
                 (A) (A) (A) (A) (A) (A) (A) (A) (A) (A) (A) (A)
                 (A) (A) (A) (A) (A) (A) (A) (A) (A) (A) (A) (A)
                 (A) (A) (A) (A) (A) (A) (A) (A) (A) (A) (A) (A)
                 (A) (A) (A) (A) (A) (A) (A) (A) (A) (A) (A) (A)
                 (A) (A) (A) (A) (A) (A) (A) (A) (A) (A) (A) (A)
                 (A) (A) (A) (A) (A) (A) (A) (A) (A) (A) (A) (A)
                 (A) (A) (A) (A) (A) (A) (A) (A) (A) (A) (A) (A)
                 (A) (A) (A) (A) (A) (A) (A) (A) (A) (A) (A) (A)
       Virtual   (A) (A) (A) (A) (A) (A) (A) (A) (A) (A) (A) (A)
                 (A) (A) (A) (A) (A) (A) (A) (A) (A) (A) (A) (A)
                 (A) (A) (A) (A) (A) (A) (A) (A) (A) (A) (A) (A)
                 (A) (A) (A) (A) (A) (A) (A) (A) (A) (A) (A) (A)
                 (A) (A) (A) (A) (A) (A) (A) (A) (A) (A) (A) (A)
                 (A) (A) (A) (A) (A) (A) (A) (A) (A) (A) (A) (A)
                 (A) (A) (A) (A) (A) (A) (A) (A) (A) (A) (A) (A)
                 (A) (A) (A) (A) (A) (A) (A) (A) (A) (A) (A) (A)
                 (A) (A) (A) (A) (A) (A) (A) (A) (A) (A) (A) (A)
                 (A) (A) (A) (A) (A) (A) (A) (A) (A) (A) (A) (A)
                 (A) (A) (A) (A) (A) (A) (A) (A) (A) (A) (A) (A)
                 (A) (A) (A) (A) (A) (A) (A) (A) (A) (A) (A) (A)
                 (A) (A) (A) (A) (A) (A) (A) (A) (A) (A) (A) (A)
                 (A) (A) (A) (A) (A) (A) (A) (A) (A) (A) (A) (A)
                 (A) (A) (A) (A) (A) (A) (A) (A) (A) (A) (A) (A)
                 (A) (A) (A) (A) (A) (A) (A) (A) (A) (A) (A) (A)
                 (A) (A) (A) (A) (A) (A) (A) (A) (A) (A) (A) (A)
                 (A) (A) (A) (A) (A) (A) (A) (A) (A) (A) (A) (A)
                 (A) (A) (A) (A) (A) (A) (A) (A) (A) (A) (A) (A)
                 (A) (A) (A) (A) (A) (A) (A) (A) (A) (A) (A) (A)
                 (A) (A) (A) (A) (A) (A) (A) (A) (A) (A) (A) (A)
                 (A) (A) (A) (A) (A) (A) (A) (A) (A) (A) (A) (A)
                 (A) (A) (A) (A) (A) (A) (A) (A) (A) (A) (A) (A)
                 (A) (A) (A) (A) (A) (A) (A) (A) (A) (A) (A) (A)
                 (A) (A) (A) (A) (A) (A) (A) (A) (A) (A) (A) (A)
                 (A) (A) (A) (A) (A) (A) (A) (A) (A) (A) (A) (A)
                 (A) (A) (A) (A) (A) (A) (A) (A) (A) (A) (A) (A)
                 (A) (A) (A) (A) (A) (A) (A) (A) (A) (A) (A) (A)
                 (A) (A) (A) (A) (A) (A) (A) (A) (A) (A) (A) (A)
                 (A) (A) (A) (A) (A) (A) (A) (A) (A) (A) (A) (A)
                 (A) (A) (A) (A) (A) (A) (A) (A) (A) (A) (A) (A)
                 (A) (A) (A) (A) (A) (A) (A) (A) (A) (A) (A) (A)
                 (A) (A) (A) (A) (A) (A) (A) (A) (A) (A) (A) (A)
                 (A) (A) (A) (A) (A) (A) (A) (A) (A) (A) (A) (A)
                 (A) (A) (A) (A) (A) (A) (A) (A) (A) (A) (A) (A)
                 (A) (A) (A) (A) (A) (A) (A) (A) (A) (A) (A) (A)
                 (A) (A) (A) (A) (A) (A) (A) (A) (A) (A) (A) (A)
                 (A) (A) (A) (A) (A) (A) (A) (A) (A) (A) (A) (A)
                 (A) (A) (A) (A) (A) (A) (A) (A) (A) (A) (A) (A)
                 (A) (A) (A) (A) (A) (A) (A) (A) (A) (A) (A) (A)
                 (A) (A) (A) (A) (A) (A) (A) (A) (A) (A) (A) (A)
                 (A) (A) (A) (A) (A) (A) (A) (A) (A) (A) (A) (A)
                 (A) (A) (A) (A) (A) (A) (A) (A) (A) (A) (A) (A)
                 (A) (A) (A) (A) (A) (A) (A) (A) (A) (A) (A) (A)
                 (A) (A) (A) (A) (A) (A) (A) (A) (A) (A) (A) (A)
                 (A) (A) (A) (A) (A) (A) (A) (A) (A) (A) (A) (A)
                 (A) (A) (A) (A) (A) (A) (A) (A) (A) (A) (A) (A)
                 (A) (A)
 The electronic state is 1-A.
 Alpha  occ. eigenvalues --  -88.95742 -88.91470 -66.21485 -66.21086 -14.37818
 Alpha  occ. eigenvalues --  -14.36560 -14.35752 -10.29812 -10.29370 -10.28810
 Alpha  occ. eigenvalues --  -10.28224 -10.28031 -10.27923 -10.27222 -10.26353
 Alpha  occ. eigenvalues --  -10.26205 -10.25404 -10.24957 -10.24743 -10.24372
 Alpha  occ. eigenvalues --  -10.23623 -10.22144 -10.21891 -10.20914 -10.20812
 Alpha  occ. eigenvalues --  -10.20794 -10.20669 -10.20429 -10.20184 -10.19799
 Alpha  occ. eigenvalues --  -10.19700  -8.01080  -7.97338  -5.97710  -5.97153
 Alpha  occ. eigenvalues --   -5.96651  -5.93772  -5.93367  -5.93067  -5.35426
 Alpha  occ. eigenvalues --   -5.34957  -3.71693  -3.71154  -3.71056  -3.71036
 Alpha  occ. eigenvalues --   -3.70881  -3.70618  -1.00713  -0.94308  -0.92202
 Alpha  occ. eigenvalues --   -0.90447  -0.88787  -0.87466  -0.83719  -0.83019
 Alpha  occ. eigenvalues --   -0.82357  -0.78887  -0.76965  -0.75141  -0.73907
 Alpha  occ. eigenvalues --   -0.72892  -0.71185  -0.69326  -0.66534  -0.64916
 Alpha  occ. eigenvalues --   -0.64248  -0.61466  -0.59928  -0.59328  -0.57758
 Alpha  occ. eigenvalues --   -0.57183  -0.56994  -0.55092  -0.54327  -0.53409
 Alpha  occ. eigenvalues --   -0.52665  -0.52037  -0.51212  -0.49686  -0.48801
 Alpha  occ. eigenvalues --   -0.48374  -0.47460  -0.46338  -0.45933  -0.45840
 Alpha  occ. eigenvalues --   -0.45039  -0.43746  -0.42380  -0.41929  -0.41603
 Alpha  occ. eigenvalues --   -0.41236  -0.40127  -0.39959  -0.39282  -0.39178
 Alpha  occ. eigenvalues --   -0.38544  -0.37907  -0.37528  -0.36870  -0.36520
 Alpha  occ. eigenvalues --   -0.35816  -0.35749  -0.34845  -0.33442  -0.33174
 Alpha  occ. eigenvalues --   -0.32724  -0.32374  -0.31851  -0.30303  -0.29266
 Alpha  occ. eigenvalues --   -0.28152  -0.27336  -0.27188  -0.25536  -0.25020
 Alpha  occ. eigenvalues --   -0.23747  -0.22383  -0.21736  -0.21107  -0.20480
 Alpha virt. eigenvalues --   -0.14299  -0.12760  -0.11712  -0.10931  -0.08445
 Alpha virt. eigenvalues --   -0.08265  -0.05634  -0.04836  -0.03733  -0.03162
 Alpha virt. eigenvalues --   -0.02215  -0.01490  -0.01352  -0.00862  -0.00304
 Alpha virt. eigenvalues --   -0.00175   0.00236   0.00429   0.00613   0.01089
 Alpha virt. eigenvalues --    0.01163   0.01644   0.02154   0.02214   0.02664
 Alpha virt. eigenvalues --    0.02832   0.03109   0.03308   0.03575   0.03827
 Alpha virt. eigenvalues --    0.04123   0.04315   0.04772   0.05022   0.05176
 Alpha virt. eigenvalues --    0.05427   0.05528   0.05692   0.06099   0.06593
 Alpha virt. eigenvalues --    0.06703   0.06934   0.07035   0.07591   0.07728
 Alpha virt. eigenvalues --    0.07936   0.08112   0.08276   0.08716   0.08966
 Alpha virt. eigenvalues --    0.09146   0.09321   0.09587   0.09719   0.10049
 Alpha virt. eigenvalues --    0.10231   0.10444   0.10651   0.10799   0.11125
 Alpha virt. eigenvalues --    0.11448   0.11538   0.11615   0.11889   0.12163
 Alpha virt. eigenvalues --    0.12353   0.12560   0.12725   0.12862   0.13056
 Alpha virt. eigenvalues --    0.13186   0.13316   0.13491   0.13601   0.13991
 Alpha virt. eigenvalues --    0.14077   0.14101   0.14377   0.14509   0.14679
 Alpha virt. eigenvalues --    0.14794   0.14972   0.15364   0.15456   0.15796
 Alpha virt. eigenvalues --    0.16155   0.16403   0.16583   0.16873   0.16959
 Alpha virt. eigenvalues --    0.17168   0.17292   0.17508   0.17887   0.18105
 Alpha virt. eigenvalues --    0.18206   0.18467   0.18725   0.18895   0.19346
 Alpha virt. eigenvalues --    0.19469   0.19556   0.19840   0.20025   0.20174
 Alpha virt. eigenvalues --    0.20510   0.20764   0.21092   0.21280   0.21508
 Alpha virt. eigenvalues --    0.21648   0.21952   0.22105   0.22557   0.22704
 Alpha virt. eigenvalues --    0.22948   0.23018   0.23224   0.23317   0.23798
 Alpha virt. eigenvalues --    0.23969   0.24175   0.24412   0.24689   0.24955
 Alpha virt. eigenvalues --    0.25187   0.25397   0.25528   0.25927   0.25950
 Alpha virt. eigenvalues --    0.26358   0.26494   0.26964   0.27069   0.27306
 Alpha virt. eigenvalues --    0.27581   0.27810   0.28095   0.28456   0.28667
 Alpha virt. eigenvalues --    0.28796   0.29202   0.29376   0.29783   0.29890
 Alpha virt. eigenvalues --    0.30008   0.30103   0.30696   0.31060   0.31512
 Alpha virt. eigenvalues --    0.31562   0.31861   0.32143   0.32375   0.32621
 Alpha virt. eigenvalues --    0.32934   0.33018   0.33502   0.33892   0.33972
 Alpha virt. eigenvalues --    0.34140   0.34441   0.34533   0.34929   0.35107
 Alpha virt. eigenvalues --    0.35401   0.35744   0.36111   0.36773   0.36907
 Alpha virt. eigenvalues --    0.37001   0.37355   0.37884   0.38435   0.38639
 Alpha virt. eigenvalues --    0.39061   0.39262   0.39566   0.39953   0.40530
 Alpha virt. eigenvalues --    0.40611   0.40883   0.41736   0.42258   0.42801
 Alpha virt. eigenvalues --    0.43070   0.43526   0.43653   0.44307   0.45073
 Alpha virt. eigenvalues --    0.45453   0.46281   0.46649   0.47058   0.47814
 Alpha virt. eigenvalues --    0.48256   0.49801   0.49920   0.51905   0.52185
 Alpha virt. eigenvalues --    0.53677   0.53945   0.54876   0.56000   0.57012
 Alpha virt. eigenvalues --    0.57564   0.59116   0.59537   0.60064   0.61488
 Alpha virt. eigenvalues --    0.61836   0.64052   0.64109   0.65772   0.66168
 Alpha virt. eigenvalues --    0.66392   0.66947   0.67769   0.68393   0.68597
 Alpha virt. eigenvalues --    0.69054   0.69441   0.69928   0.70632   0.70973
 Alpha virt. eigenvalues --    0.71193   0.71887   0.72206   0.72639   0.72670
 Alpha virt. eigenvalues --    0.73146   0.73580   0.73974   0.74695   0.74944
 Alpha virt. eigenvalues --    0.75382   0.75569   0.76004   0.76223   0.76338
 Alpha virt. eigenvalues --    0.76673   0.77338   0.77589   0.78043   0.78491
 Alpha virt. eigenvalues --    0.79312   0.79896   0.80101   0.80931   0.81362
 Alpha virt. eigenvalues --    0.81842   0.81903   0.82605   0.82885   0.83167
 Alpha virt. eigenvalues --    0.83994   0.84488   0.84787   0.85037   0.85567
 Alpha virt. eigenvalues --    0.86463   0.87513   0.87591   0.87926   0.88673
 Alpha virt. eigenvalues --    0.89018   0.89476   0.89598   0.90067   0.90488
 Alpha virt. eigenvalues --    0.90809   0.91445   0.92657   0.93416   0.93819
 Alpha virt. eigenvalues --    0.94798   0.95920   0.96098   0.96259   0.97605
 Alpha virt. eigenvalues --    0.97717   0.98149   0.98458   0.99555   0.99959
 Alpha virt. eigenvalues --    1.00371   1.01356   1.01489   1.01965   1.02349
 Alpha virt. eigenvalues --    1.03496   1.03979   1.04664   1.06030   1.06484
 Alpha virt. eigenvalues --    1.07390   1.07595   1.08300   1.08954   1.09544
 Alpha virt. eigenvalues --    1.10036   1.10661   1.11625   1.12104   1.12750
 Alpha virt. eigenvalues --    1.12985   1.13671   1.14648   1.15280   1.15912
 Alpha virt. eigenvalues --    1.16412   1.17303   1.17408   1.18341   1.18617
 Alpha virt. eigenvalues --    1.18990   1.19433   1.20052   1.20283   1.20803
 Alpha virt. eigenvalues --    1.22461   1.22716   1.23190   1.23744   1.24769
 Alpha virt. eigenvalues --    1.25212   1.25246   1.26190   1.27264   1.27585
 Alpha virt. eigenvalues --    1.28853   1.29204   1.30194   1.30695   1.31227
 Alpha virt. eigenvalues --    1.31627   1.32786   1.33427   1.33645   1.34715
 Alpha virt. eigenvalues --    1.35475   1.36553   1.36978   1.37308   1.37640
 Alpha virt. eigenvalues --    1.38345   1.38622   1.39690   1.41413   1.42363
 Alpha virt. eigenvalues --    1.42733   1.43372   1.45695   1.46471   1.47521
 Alpha virt. eigenvalues --    1.48759   1.50478   1.51189   1.51491   1.52514
 Alpha virt. eigenvalues --    1.54318   1.55693   1.57471   1.58522   1.60122
 Alpha virt. eigenvalues --    1.60838   1.61563   1.62278   1.64714   1.65515
 Alpha virt. eigenvalues --    1.66918   1.67613   1.68068   1.68916   1.70975
 Alpha virt. eigenvalues --    1.71739   1.73128   1.74091   1.74243   1.74962
 Alpha virt. eigenvalues --    1.76082   1.77417   1.78331   1.78977   1.79570
 Alpha virt. eigenvalues --    1.80712   1.81680   1.82245   1.82901   1.83278
 Alpha virt. eigenvalues --    1.83747   1.85337   1.86188   1.86375   1.87724
 Alpha virt. eigenvalues --    1.88291   1.89162   1.91059   1.91994   1.92547
 Alpha virt. eigenvalues --    1.93302   1.94681   1.95197   1.95851   1.96005
 Alpha virt. eigenvalues --    1.96744   1.98428   1.99110   2.00832   2.02016
 Alpha virt. eigenvalues --    2.02463   2.03317   2.03817   2.04649   2.05948
 Alpha virt. eigenvalues --    2.07142   2.07536   2.08248   2.08683   2.09633
 Alpha virt. eigenvalues --    2.10106   2.10754   2.11649   2.12455   2.13008
 Alpha virt. eigenvalues --    2.14188   2.14357   2.15144   2.15433   2.16294
 Alpha virt. eigenvalues --    2.17557   2.17660   2.19077   2.19333   2.19778
 Alpha virt. eigenvalues --    2.20440   2.21878   2.22441   2.23055   2.23864
 Alpha virt. eigenvalues --    2.24944   2.25057   2.26972   2.29400   2.29646
 Alpha virt. eigenvalues --    2.30202   2.30892   2.31237   2.32407   2.32916
 Alpha virt. eigenvalues --    2.33664   2.34449   2.35335   2.35593   2.36991
 Alpha virt. eigenvalues --    2.37562   2.38454   2.39828   2.40172   2.40622
 Alpha virt. eigenvalues --    2.42367   2.43895   2.44273   2.45428   2.46936
 Alpha virt. eigenvalues --    2.48179   2.48680   2.49518   2.50875   2.51048
 Alpha virt. eigenvalues --    2.52237   2.52347   2.52838   2.53365   2.54417
 Alpha virt. eigenvalues --    2.55013   2.56015   2.56414   2.57291   2.58351
 Alpha virt. eigenvalues --    2.58952   2.59835   2.60662   2.61375   2.61752
 Alpha virt. eigenvalues --    2.62650   2.63256   2.64456   2.64859   2.66034
 Alpha virt. eigenvalues --    2.67071   2.67929   2.69797   2.70420   2.70921
 Alpha virt. eigenvalues --    2.71372   2.73648   2.74470   2.75648   2.76244
 Alpha virt. eigenvalues --    2.77431   2.78093   2.78565   2.79620   2.81416
 Alpha virt. eigenvalues --    2.82460   2.85312   2.86726   2.87343   2.90280
 Alpha virt. eigenvalues --    2.91870   2.92270   2.95476   2.95892   2.98742
 Alpha virt. eigenvalues --    3.01540   3.03109   3.05880   3.06980   3.07317
 Alpha virt. eigenvalues --    3.11695   3.13977   3.16266   3.20645   3.23274
 Alpha virt. eigenvalues --    3.28665   3.29102   3.34365   3.37869   3.38955
 Alpha virt. eigenvalues --    3.44187   3.45007   3.46383   3.47356   3.52608
 Alpha virt. eigenvalues --    3.61554   3.70732   4.00813   4.02544   4.18116
 Alpha virt. eigenvalues --    4.25195   4.28285   4.29440   4.30063   4.32953
 Alpha virt. eigenvalues --    4.34745   4.35830   4.36175   4.39475   4.41209
 Alpha virt. eigenvalues --    4.43263   4.44155   4.45798   4.47503   4.49790
 Alpha virt. eigenvalues --    4.51388   4.54370   4.57889   4.59715   4.60852
 Alpha virt. eigenvalues --    4.64324   4.68382   4.77638   4.78345   4.80896
 Alpha virt. eigenvalues --    4.84533
          Condensed to atoms (all electrons):
              1          2          3          4          5          6
     1  C   13.854222  -5.298694   2.924413  -0.588715   0.325083   0.281988
     2  C   -5.298694  10.712391  -1.930902  -0.254786  -0.061641  -0.034765
     3  C    2.924413  -1.930902  12.598879   1.198159  -2.015408   0.316572
     4  C   -0.588715  -0.254786   1.198159  16.584812  -7.318558   0.508466
     5  C    0.325083  -0.061641  -2.015408  -7.318558  13.193198  -0.550313
     6  S    0.281988  -0.034765   0.316572   0.508466  -0.550313  16.107610
     7  C   -0.418409   0.574489  -2.805730  -3.534160   1.995987  -0.160503
     8  C   -5.143150   2.433192  -3.891442   1.240423  -0.503551  -0.256378
     9  C    0.019038   0.435093  -0.309413  -2.238599   1.062253  -0.244865
    10  C    0.252952  -0.555452  -0.000859   0.060307  -0.283253  -0.020983
    11  C   -0.265093  -0.244875   0.213338   0.451920  -0.043406  -0.064304
    12  C    0.621787   0.222061  -0.186755  -0.489484   0.094614   0.028611
    13  N    0.029315   0.000403   0.007547   0.008511  -0.007083  -0.000439
    14  S   -0.013954   0.002260  -0.000345  -0.007528  -0.000575  -0.000142
    15  N    0.003863   0.001311  -0.000092  -0.000840  -0.000203   0.000009
    16  C    0.101005   0.025994  -0.011403  -0.022343   0.008188   0.000030
    17  C    0.070769   0.013952  -0.002039  -0.005354  -0.000139   0.001000
    18  C    0.001116   0.001165   0.000003   0.000631  -0.000931   0.000659
    19  Si   0.001416  -0.000010  -0.000005  -0.000477   0.000098  -0.001094
    20  H   -0.000014   0.000010  -0.000007  -0.000080   0.000011   0.000314
    21  H   -0.000379  -0.000044   0.000028   0.000289  -0.000031  -0.000139
    22  C   -0.000012  -0.000001   0.000000   0.000004   0.000000   0.000002
    23  C    0.000012   0.000001  -0.000000  -0.000013   0.000000   0.000037
    24  C    0.001358   0.000003   0.000008  -0.000135  -0.000000  -0.000149
    25  C   -0.001855  -0.000058  -0.000007   0.000272   0.000028  -0.000036
    26  C   -0.000366  -0.000088  -0.000013   0.000137   0.000028  -0.000101
    27  Si   0.000105   0.000067   0.000019  -0.000130  -0.000012  -0.000022
    28  H    0.000040  -0.000014   0.000005   0.000001  -0.000000  -0.000000
    29  H    0.000072  -0.000017   0.000003   0.000005   0.000002  -0.000001
    30  C    0.020296   0.004914  -0.000082  -0.005567  -0.000504   0.000931
    31  C   -0.043371  -0.005487   0.001044   0.009610  -0.001996   0.000743
    32  C    0.027603  -0.002073   0.002097   0.014236  -0.006823  -0.002693
    33  C   -0.081135  -0.071174   0.044714  -0.033691  -0.052846   0.004365
    34  C   -0.101160   0.042339   0.020889   0.420099  -0.104251  -0.016411
    35  N   -0.018937  -0.000451  -0.008688  -0.006503  -0.007413   0.002811
    36  H    0.343702   0.069375  -0.082480  -0.073613   0.072315   0.001429
    37  H    0.310918   0.074682  -0.036595  -0.037247   0.051792  -0.004377
    38  H   -0.164723   0.426015  -0.062545   0.064346  -0.051078   0.002035
    39  H    0.185835  -0.207014   0.406281   0.059315  -0.127188  -0.000495
    40  H   -0.036697   0.030356  -0.195717  -0.137803   0.493417  -0.059632
    41  H   -0.185874  -0.274556   0.129455   0.297368  -0.129911  -0.014891
    42  H   -0.000009  -0.000001   0.000000   0.000001   0.000001  -0.000005
    43  H    0.000004   0.000000  -0.000000  -0.000002   0.000000   0.000004
    44  H   -0.000008  -0.000001  -0.000000   0.000002   0.000000  -0.000001
    45  H    0.000424   0.000181  -0.000029  -0.000031  -0.000010   0.000047
    46  H    0.003148   0.003267  -0.000329   0.007588  -0.005823   0.000090
              7          8          9         10         11         12
     1  C   -0.418409  -5.143150   0.019038   0.252952  -0.265093   0.621787
     2  C    0.574489   2.433192   0.435093  -0.555452  -0.244875   0.222061
     3  C   -2.805730  -3.891442  -0.309413  -0.000859   0.213338  -0.186755
     4  C   -3.534160   1.240423  -2.238599   0.060307   0.451920  -0.489484
     5  C    1.995987  -0.503551   1.062253  -0.283253  -0.043406   0.094614
     6  S   -0.160503  -0.256378  -0.244865  -0.020983  -0.064304   0.028611
     7  C   11.098559   0.896162   1.663302  -1.533891  -0.821099  -1.326120
     8  C    0.896162  12.265498  -1.017208  -0.580686   0.637938  -1.470262
     9  C    1.663302  -1.017208  11.859931  -1.610063  -2.145167  -1.630129
    10  C   -1.533891  -0.580686  -1.610063  17.451468   7.654489  -5.902004
[...]
 .00143534,-0.24634846,0.11303959,-0.02275953,-0.02006966,0.00774360,-0
 .00397727,-0.00117402,0.00033633,0.00187535,0.00066084,-0.00006946,-0.
 00025543,-0.00033237,-0.00029893,-0.00013351,0.00008764,0.00005726,0.0
 0002375,0.00007981,0.00003650,0.00000253,0.00027755,0.00012643,-0.0000
 6053,-0.00021821,-0.00043940,0.00004263,0.00012229,0.00028511,0.000619
 69,-0.00023670,0.00006159,-0.00005511,0.00007979,0.00004433,0.00016650
 ,-0.00016556,-0.00010790,0.00005944,0.00000168,0.00000127,0.00000756,0
 .00000206,0.00000063,0.00000755,-0.00000609,-0.00000294,0.00000511,-0.
 00000707,-0.00000365,0.00000085,-0.00000202,-0.00000143,0.00000219,-0.
 00001159,-0.00000339,0.00000063,0.00236523,0.00235236,-0.00048490,0.26
 868510,0.00001057,0.00000568,0.00000184,-0.00000112,-0.00000098,0.0000
 1335,0.00001096,0.00000564,-0.00001277,-0.00002659,-0.00000848,-0.0000
 8596,-0.00007295,-0.00003922,0.00002605,0.00002220,0.00000870,0.000039
 57,-0.00013303,-0.00005689,0.00003729,0.00007005,0.00003784,-0.0000588
 6,0.00012904,0.00007894,0.00001790,-0.00006449,-0.00007037,-0.00009322
 ,0.00010269,-0.00002213,-0.00010882,-0.00014840,0.00006159,-0.00008781
 ,0.00005021,0.00002991,-0.00000142,-0.00004861,-0.00003671,0.00014385,
 0.00020202,0.00010014,0.00005642,-0.00001566,-0.00002781,-0.00034132,0
 .00051901,-0.00220978,0.00029114,-0.00054432,0.00106259,-0.00142432,-0
 .00002511,-0.00198391,0.00046796,0.00017325,0.00030807,-0.00004049,-0.
 00003315,0.00042124,-0.00031697,0.01639532,-0.01962325,-0.00291928,0.1
 1546378,-0.09635788,0.00891188,-0.01737266,0.00660520,-0.00395201,-0.0
 0038335,0.00049939,0.00109697,0.00058914,0.00029165,-0.00007078,-0.000
 19955,-0.00014781,-0.00005788,0.00003904,0.00002414,0.00000755,0.00004
 625,0.00002555,0.00001092,0.00016568,0.00007378,-0.00002348,-0.0000748
 5,-0.00046798,0.00045941,0.00007346,0.00005023,0.00040059,-0.00024521,
 0.00020078,-0.00005566,0.00003818,0.00006459,0.00014108,-0.00012418,-0
 .00010911,0.00004948,0.00000048,0.00000200,0.00000654,0.00000180,-0.00
 000055,0.00000570,-0.00000457,-0.00000298,0.00000385,-0.00000500,-0.00
 000329,0.00000087,-0.00000109,-0.00000150,0.00000161,-0.00001281,-0.00
 000640,-0.00000101,0.00721179,0.00188649,-0.00568606,-0.12169988,0.109
 22425,-0.00001235,-0.00000558,-0.00000216,0.00000263,0.00000110,-0.000
 01625,-0.00001414,-0.00000681,0.00001390,0.00002984,0.00001021,0.00009
 728,0.00007679,0.00004103,-0.00003003,-0.00002580,-0.00000952,-0.00004
 749,0.00015654,0.00007312,-0.00003927,-0.00007968,-0.00004471,0.000067
 20,-0.00015979,-0.00009204,-0.00005821,0.00011719,0.00008180,0.0001147
 9,-0.00015152,-0.00001151,0.00011064,0.00016060,0.00008847,0.00022697,
 -0.00012267,-0.00007244,0.00000761,0.00006781,0.00002482,-0.00015219,-
 0.00025320,-0.00012400,-0.00014630,-0.00033116,-0.00026986,0.00042544,
 0.00067107,0.00183100,0.00108826,-0.00208763,-0.00342920,0.00100531,-0
 .00029765,0.00049131,0.00055423,-0.00046539,0.00011356,-0.00001841,-0.
 00010029,-0.00019471,0.00020575,0.01961061,0.00236833,0.01521482,-0.03
 776331,-0.00291696,-0.05754607,-0.00538819,0.00894785,0.00513245,0.001
 08471,-0.00139916,-0.00052026,-0.00064062,-0.00012493,0.00000335,0.000
 27875,0.00022789,-0.00011300,-0.00000520,-0.00005922,-0.00002288,-0.00
 005239,-0.00004662,0.00000521,-0.00008455,0.00006724,0.00015627,-0.000
 10079,-0.00028924,-0.00001488,-0.00016013,-0.00022306,-0.00097499,0.00
 029972,-0.00006092,-0.00002130,-0.00007167,-0.00010212,-0.00014570,0.0
 0013414,0.00009738,-0.00005782,-0.00000038,-0.00000275,-0.00000653,-0.
 00000252,0.00000132,-0.00000600,0.00000550,0.00000336,-0.00000466,0.00
 000601,0.00000379,-0.00000094,0.00000118,0.00000105,-0.00000174,0.0000
 1582,0.00000610,0.00000290,-0.00248095,-0.00806120,0.00163422,0.028172
 93,0.00315582,0.03442080,-0.00000278,-0.00000186,0.00000086,0.00000155
 ,0.00000085,-0.00000185,-0.00000365,-0.00000138,0.00000137,0.00000501,
 -0.00000193,0.00001722,0.00001187,0.00000869,-0.00000674,-0.00000157,-
 0.00000261,-0.00000710,0.00002273,0.00001749,-0.00000552,-0.00001506,-
 0.00000559,0.00001132,0.00000853,0.00000726,-0.00005882,0.00002495,0.0
 0005192,0.00009463,-0.00015916,-0.00005199,-0.00003028,-0.00000509,-0.
 00000713,0.00003481,0.00000662,0.00000173,-0.00002246,-0.00004396,-0.0
 0002431,0.00006239,-0.00000070,0.00002460,-0.00001092,0.00012376,0.000
 02339,-0.00000480,-0.00023446,0.00024447,0.00001244,-0.00006280,-0.000
 23200,-0.00001930,0.00016283,-0.00014424,0.00038233,0.00002204,0.00005
 699,0.00000304,-0.00005105,-0.00004094,-0.00004311,-0.00044636,0.00003
 930,0.00017982,0.00080016,-0.00010104,-0.00040144,-0.00069175,0.002608
 47,-0.00299118,-0.01432216,-0.01361972,-0.00244172,-0.24087642,-0.1465
 0397,-0.00513560,0.00073540,0.00156983,0.00195100,0.00001278,0.0000995
 0,-0.00003242,-0.00034327,-0.00031711,-0.00035507,0.00001273,0.0012193
 3,-0.00037847,0.00122329,-0.00139406,0.00475424,-0.00049417,-0.0008016
 9,-0.00060235,0.00009592,-0.00007687,0.00043651,0.00011332,-0.00000661
 ,-0.00002527,-0.00001092,-0.00003691,-0.00001507,0.00000131,-0.0000007
 8,-0.00000106,-0.00000112,0.00000195,-0.00000189,0.00000046,-0.0000000
 6,-0.00000048,0.00000080,0.00000006,-0.00000038,-0.00000019,-0.0000006
 6,-0.00000002,-0.00000710,-0.00000862,-0.00000079,0.00006073,0.0001195
 3,-0.00002494,0.00011593,-0.00005904,-0.00002935,0.25357943,0.00000165
 ,0.00000066,-0.00000204,0.00000057,-0.00000038,0.00000565,0.00000360,0
 .00000157,-0.00000452,-0.00000579,-0.00000014,-0.00001369,-0.00001175,
 -0.00000724,0.00000142,0.00000527,0.00000421,0.00000785,-0.00002068,-0
 .00001510,0.00001119,0.00000814,0.00000479,-0.00001297,0.00002573,0.00
 000651,0.00008393,-0.00005787,-0.00006866,-0.00004639,0.00007786,0.000
 06343,-0.00004594,0.00000194,-0.00000161,-0.00001844,0.00001693,0.0000
 0933,0.00002436,-0.00005561,-0.00001853,0.00006399,0.00004804,-0.00000
 567,-0.00005355,-0.00002047,0.00006906,0.00004741,0.00024915,-0.000083
 95,0.00026101,-0.00051166,0.00002549,-0.00018073,-0.00028950,0.0002416
 6,-0.00000524,-0.00001343,-0.00007518,-0.00003357,0.00010020,0.0000522
 5,0.00004687,0.00070578,-0.00007584,-0.00012380,-0.00115369,0.00071602
 ,0.00078605,0.00284058,-0.00369856,0.00191060,0.00343907,0.00415422,-0
 .00342385,-0.15349533,-0.13688301,-0.01348196,-0.00558317,-0.00066778,
 0.00238381,-0.00025030,-0.00065046,-0.00064694,0.00051240,-0.00015547,
 0.00003105,-0.00053656,-0.00212940,0.00045548,-0.00311025,0.00425937,-
 0.00293134,0.00017810,0.00005429,-0.00040209,-0.00016780,0.00013187,-0
 .00000884,-0.00011245,0.00004484,0.00000359,-0.00000642,0.00002352,-0.
 00000136,0.00000099,-0.00000071,0.00000103,0.00000229,0.00000082,0.000
 00155,-0.00000205,-0.00000064,0.00000161,-0.00000230,-0.00000104,0.000
 00015,-0.00000075,-0.00000055,0.00000039,0.00000028,-0.00000235,-0.000
 00125,-0.00011644,-0.00026890,-0.00000908,0.00033354,0.00007979,-0.000
 03680,0.15792931,0.13399174,-0.00000037,-0.00000002,-0.00000006,0.0000
 0168,0.00000024,0.00000049,-0.00000085,0.00000111,-0.00000037,0.000002
 69,-0.00000263,0.00000732,0.00000528,0.00000478,-0.00000328,0.00000184
 ,-0.00000040,-0.00000163,0.00000834,0.00000754,-0.00000197,-0.00000872
 ,-0.00000270,0.00000402,0.00001970,-0.00000788,-0.00003176,0.00001259,
 0.00005014,-0.00000758,0.00005565,0.00000869,0.00008684,-0.00000358,-0
 .00001069,0.00005705,-0.00003638,-0.00002314,-0.00001888,0.00000262,-0
 .00000397,-0.00001277,-0.00001950,0.00000039,0.00001000,0.00000725,0.0
 0000851,-0.00005398,-0.00030072,0.00020934,0.00010050,0.00009547,-0.00
 032948,0.00015300,0.00039349,0.00007713,-0.00026609,-0.00001215,-0.000
 00058,0.00005327,-0.00005198,-0.00003196,-0.00003397,0.00019259,0.0002
 4154,0.00016011,-0.00028582,-0.00030686,-0.00001279,-0.00191429,0.0026
 3204,-0.00030735,0.02052552,0.01401800,0.00524365,-0.01683655,-0.02242
 269,-0.04330132,-0.00845435,-0.00398409,0.00198212,0.00003327,0.000124
 79,-0.00067490,0.00018353,-0.00054126,-0.00044639,-0.00233626,-0.00201
 605,-0.00212902,0.00354364,-0.00316152,-0.00167807,0.00087421,0.000630
 17,0.00071973,0.00030024,-0.00020316,-0.00019533,0.00003469,0.00001992
 ,-0.00009278,0.00001654,0.00000959,0.00001935,0.00000138,0.00000009,0.
 00000003,-0.00000144,0.00000133,-0.00000083,0.00000008,-0.00000021,0.0
 0000036,-0.00000018,-0.00000069,-0.00000021,-0.00000025,-0.00000047,0.
 00000004,0.00001073,0.00000745,0.00000515,-0.00013634,-0.00002055,0.00
 010235,-0.00020454,0.00000628,-0.00052610,0.00439699,0.01542860,0.0398
 4590,0.00000396,-0.00000820,0.00000210,0.00000036,0.00000464,-0.000006
 95,-0.00000351,0.00000165,0.00000310,0.00000449,0.00000518,0.00000394,
 0.00001027,0.00000533,-0.00000174,-0.00002857,-0.00000351,0.00000241,0
 .00000431,-0.00002879,-0.00001807,0.00000797,0.00001244,0.00000689,-0.
 00003325,-0.00026066,-0.00005767,-0.00002176,0.00003266,-0.00000989,0.
 00032459,-0.00032409,-0.00030883,0.00003052,0.00007681,0.00013195,0.00
 002619,0.00001401,-0.00008396,-0.00006093,-0.00000593,0.00006256,0.000
 02747,-0.00001539,-0.00018322,-0.00000955,-0.00022330,0.00015548,-0.00
 015529,-0.00032433,-0.00067299,0.00004796,0.00009685,-0.00023654,0.000
 05608,0.00007154,0.00007322,-0.00001552,-0.00000979,-0.00002763,-0.000
 00237,-0.00000926,-0.00001974,-0.00000882,0.00006223,-0.00003045,0.000
 02435,-0.00006483,-0.00000380,0.00034014,0.00011205,0.00036317,0.00225
 782,-0.00293052,0.00230933,-0.00259908,-0.00038575,0.00009744,-0.00284
 118,-0.00647738,-0.00418530,-0.00058725,-0.00010611,0.00070386,-0.0001
 5748,0.00049955,0.00014578,-0.18992805,-0.16130667,-0.03988990,0.00508
 633,0.00256347,0.00174134,-0.00203616,0.00216539,-0.00107428,-0.000012
 77,0.00058618,0.00094928,-0.00345845,0.00177580,0.00017983,-0.00038337
 ,-0.00001293,0.00020830,-0.00000232,0.00000196,-0.00000068,-0.00000047
 ,-0.00000249,-0.00000300,0.00000335,-0.00000036,-0.00000200,0.00000382
 ,-0.00000004,-0.00000054,0.00000494,0.00000041,-0.00000115,-0.00003066
 ,0.00006093,-0.00001413,-0.00001673,-0.00001527,0.00000143,0.00000864,
 -0.00002169,0.00001065,0.00060532,-0.00093437,-0.00012727,0.19779474,-
 0.00000895,0.00000685,-0.00001374,0.00000445,-0.00000273,0.00000899,-0
 .00000240,-0.00000094,-0.00000675,-0.00000197,0.00000326,0.00002459,-0
 .00000125,-0.00001879,-0.00001613,0.00002618,0.00003115,-0.00001782,0.
 00007585,-0.00000046,0.00009606,-0.00005874,-0.00002908,-0.00000693,0.
 00004219,-0.00030475,0.00038746,-0.00033998,-0.00015941,-0.00012726,0.
 00027657,0.00028187,0.00027442,-0.00008171,-0.00008837,-0.00021362,-0.
 00001810,0.00000544,0.00013077,0.00001803,-0.00007037,-0.00003169,0.00
 002410,0.00007306,0.00020324,0.00003831,0.00046432,-0.00037243,-0.0001
 2319,0.00045573,0.00102310,-0.00017584,-0.00043565,0.00009569,-0.00009
 195,-0.00005195,0.00016944,0.00000203,-0.00000400,-0.00001838,0.000012
 57,0.00000038,-0.00001882,-0.00023249,-0.00030879,-0.00001903,0.000329
 62,0.00020869,-0.00039100,-0.00122959,-0.00043336,-0.00001020,-0.00074
 797,0.00325932,-0.00527328,0.00163282,-0.00069139,0.00001593,0.0014068
 7,0.00139681,-0.00148491,0.00023872,-0.00004050,-0.00004986,-0.0006026
 6,-0.00042533,0.00034643,-0.15172602,-0.18731746,-0.05086568,-0.015167
 83,-0.00658718,0.00043113,0.00225287,-0.00299755,0.00211461,0.00047616
 ,0.00008973,-0.00012484,-0.00011163,0.00094746,-0.00168013,-0.00026843
 ,0.00010107,0.00018628,0.00000815,-0.00000302,-0.00000212,0.00000480,0
 .00000707,0.00000303,-0.00000482,-0.00000086,0.00000270,-0.00000535,-0
 .00000135,0.00000052,-0.00000685,-0.00000066,0.00000148,0.00000608,0.0
 0002888,0.00000766,0.00009511,0.00010179,-0.00002600,-0.00003178,0.000
 03564,-0.00008019,-0.00061757,0.00090747,-0.00042557,0.16352814,0.1918
 2882,0.00000689,0.00000632,0.00000312,0.00001023,0.00000785,-0.0000002
 5,0.00000077,-0.00000477,-0.00001558,-0.00003369,0.00000739,-0.0000878
 6,-0.00009232,-0.00006580,0.00001770,0.00001474,0.00000896,0.00003655,
 -0.00010104,-0.00004892,0.00006697,0.00008721,0.00002009,-0.00006521,0
 .00012484,0.00012115,0.00031211,-0.00023400,-0.00013725,-0.00010792,0.
 00044384,0.00007394,-0.00054266,-0.00001220,-0.00000759,0.00007329,0.0
 0004336,0.00002457,-0.00007316,-0.00000210,0.00007694,0.00008212,0.000
 05229,-0.00003200,-0.00015910,-0.00000836,-0.00035876,0.00043173,-0.00
 003210,-0.00029058,-0.00070867,0.00000195,0.00034829,0.00001790,-0.000
 02900,-0.00005791,-0.00003258,0.00000559,0.00001822,-0.00000812,0.0000
 1118,0.00000622,-0.00000867,0.00001401,0.00015794,-0.00022533,0.000099
 77,-0.00042638,-0.00002441,-0.00096590,-0.00043268,0.00061138,0.003485
 40,-0.00468027,-0.00166443,0.00211344,0.00248402,-0.00082757,0.0050920
 3,0.00556449,0.00402993,-0.00039542,-0.00005646,-0.00045713,0.00052419
 ,-0.00013933,-0.00041722,-0.02789490,-0.04149092,-0.05174528,-0.018802
 13,-0.01894741,-0.00223645,-0.00264198,0.00333368,0.00032177,-0.000270
 26,-0.00016213,0.00019148,0.00088136,-0.00000884,0.00029988,0.00017916
 ,0.00009051,-0.00010879,0.00000430,-0.00000117,0.00000244,0.00000353,0
 .00000594,0.00000114,-0.00000405,-0.00000278,0.00000247,-0.00000426,-0
 .00000183,-0.00000015,-0.00000387,-0.00000057,0.00000306,-0.00001618,-
 0.00000813,-0.00001039,-0.00002473,-0.00003876,0.00003009,-0.00001278,
 -0.00001538,-0.00000341,0.00033704,-0.00013961,0.00126563,0.03851540,0
 .05508546,0.05082522,0.00000865,0.00001190,-0.00001286,0.00000639,0.00
 000305,0.00001583,-0.00001921,-0.00000386,-0.00003312,-0.00005811,-0.0
 0001119,0.00002035,-0.00006865,-0.00009495,-0.00002308,-0.00002423,0.0
 0007962,0.00002069,0.00001814,-0.00018413,0.00108317,-0.00019960,-0.00
 004195,-0.00027330,-0.00112825,-0.00616508,-0.00033338,-0.00084261,0.0
 0004592,-0.00018819,0.00007019,-0.00307464,-0.00277594,0.00085970,0.00
 013252,-0.00035414,-0.00015262,-0.00006164,-0.00030044,-0.00005279,-0.
 00002507,-0.00009363,-0.00005110,-0.00003653,0.00005758,0.00016874,0.0
 0014613,-0.00015623,-0.00010004,0.00000807,0.00036050,-0.00004648,-0.0
 0002595,0.00002635,0.00001195,0.00001311,-0.00011992,0.00000158,0.0000
 0021,0.00002059,-0.00001105,0.00000268,0.00002968,-0.00000184,0.000060
 60,0.00007697,-0.00005112,-0.00009335,-0.00000972,0.00010167,0.0000390
 1,-0.00001429,0.00029784,-0.00022978,0.00004619,0.00004112,0.00012114,
 -0.00000424,-0.00028991,0.00006657,0.00032720,-0.00002474,-0.00001638,
 -0.00005228,0.00002889,-0.00002084,-0.00003865,-0.00344764,0.00136458,
 0.00122909,-0.00068644,-0.00014703,-0.00169055,-0.00052474,0.00083948,
 0.00022988,0.01064761,0.00320364,-0.00949103,-0.10380430,-0.04233982,0
 .10454909,-0.02539408,-0.01245526,0.02366438,-0.00000172,-0.00000664,0
 .00000535,0.00000575,-0.00000166,0.00000500,-0.00000548,-0.00000448,0.
 00000249,-0.00000582,-0.00000767,0.00000786,-0.00000799,-0.00000893,0.
 00000631,-0.00022188,0.00073010,0.00011046,0.00000165,0.00000585,0.000
 00174,0.00000368,0.00000240,-0.00002113,0.00002627,-0.00002281,0.00001
 157,-0.00428009,0.00115744,-0.00047125,0.12920272,0.00000124,0.0000021
 5,-0.00000477,-0.00000142,0.00000026,0.00002758,0.00001571,-0.00000793
 ,-0.00002284,-0.00000373,-0.00009905,0.00000856,-0.00007685,0.00008001
 ,0.00000413,0.00013058,-0.00012952,-0.00000547,-0.00021335,0.00042659,
 0.00039641,-0.00003509,-0.00011793,-0.00012646,-0.00527139,0.00899729,
 -0.00039298,0.00058706,-0.00029054,0.00043097,-0.00243154,0.00423671,-
 0.00119982,0.00004454,-0.00016070,0.00009745,0.00006164,0.00006949,-0.
 00016964,-0.00001805,0.00005639,0.00010248,0.00007347,-0.00007548,-0.0
 0022976,-0.00027628,-0.00007084,0.00046266,-0.00004704,-0.00052969,-0.
 00098643,0.00028832,0.00022399,-0.00001125,-0.00002294,-0.00002148,0.0
 0004060,0.00000246,0.00000445,-0.00000710,0.00001065,-0.00000042,-0.00
 001171,0.00002019,-0.00003469,-0.00007854,0.00003083,0.00009215,0.0000
 7367,-0.00007860,-0.00004767,0.00003669,-0.00010436,-0.00006400,-0.000
 09877,-0.00009910,0.00004496,0.00013843,-0.00032492,-0.00020468,-0.000
 02724,0.00003290,0.00001961,0.00003626,0.00006714,0.00004481,-0.000009
 99,0.00055474,0.00040980,0.00005253,-0.00008398,0.00014445,-0.00020919
 ,0.00187212,-0.00073789,0.00059950,-0.00117686,0.00653256,-0.00636866,
 -0.04083537,-0.06852883,0.07498448,-0.01223060,-0.01086257,0.00980708,
 -0.00000184,0.00000935,0.00001303,-0.00001128,0.00000047,0.00001069,-0
 .00000636,0.00000098,0.00000361,-0.00000942,0.00000352,0.00000438,-0.0
 0001696,0.00000489,0.00000557,0.00071986,-0.00135468,0.00029786,0.0000
 0110,-0.00001098,0.00000263,-0.00001132,-0.00000677,0.00002699,0.00003
 403,-0.00003175,0.00000889,0.00179444,-0.00026084,0.00011423,0.0570456
 2,0.06224405,0.00000448,0.00000060,-0.00001110,0.00000283,0.00000373,-
 0.00002155,-0.00001963,-0.00001217,0.00000685,0.00003409,0.00000195,0.
 00003254,-0.00002083,0.00000457,-0.00003123,0.00000633,-0.00001989,0.0
 0001830,0.00009439,0.00009124,0.00025938,-0.00010715,-0.00004338,-0.00
 002579,-0.00306956,-0.00065435,0.00249036,-0.00062322,-0.00028763,0.00
 020752,-0.00381903,-0.00103178,-0.00331662,0.00121051,0.00052658,-0.00
 036875,-0.00015189,-0.00022664,-0.00039053,-0.00006037,-0.00002597,-0.
 00016292,-0.00012562,-0.00009209,0.00003399,0.00016959,0.00016764,-0.0
 0015376,-0.00017942,-0.00016636,0.00003473,0.00003627,0.00000859,0.000
 02318,0.00004340,0.00002313,-0.00014663,-0.00000087,0.00000041,0.00002
 619,-0.00001377,-0.00000316,0.00002904,-0.00000010,0.00003532,0.000051
 69,-0.00004060,-0.00003861,0.00006120,0.00003255,-0.00004274,-0.000049
 56,-0.00036916,-0.00014633,-0.00010151,0.00034743,0.00019929,-0.000092
 96,0.00011136,0.00009500,0.00046444,0.00002415,0.00000080,-0.00008070,
 0.00003078,-0.00002129,-0.00005468,0.00115323,-0.00111827,0.00005145,-
 0.00003606,-0.00013951,0.00029957,0.00151849,0.00017854,0.00005169,0.0
 1368836,0.00828938,-0.01820622,0.10476350,0.07317634,-0.26360977,-0.00
 062021,-0.00155576,0.01171112,-0.00000038,0.00000392,-0.00000619,0.000
 00274,-0.00000118,-0.00000654,0.00000269,0.00000197,-0.00000379,0.0000
 0377,0.00000242,0.00000077,0.00000544,0.00000593,-0.00000148,0.0001624
 7,-0.00009410,0.00002793,0.00000023,-0.00000277,0.00000502,-0.00000490
 ,-0.00000042,-0.00001081,-0.00002759,0.00006642,-0.00001948,0.00129225
 ,0.00066739,0.00090435,-0.11545094,-0.07782676,0.27008127\\0.00000259,
 -0.00000008,0.00000239,-0.00000177,-0.00000050,0.00000058,-0.00000086,
 0.00000038,-0.00000326,0.00000218,0.00000198,0.00000272,0.00000078,0.0
 0000116,-0.00000659,0.00000170,0.00000205,0.00000019,-0.00000561,-0.00
 000025,0.00000043,0.00000370,0.00000279,-0.00000302,-0.00000011,0.0000
 0364,-0.00000799,-0.00000286,0.00001121,0.00000430,-0.00000995,-0.0000
 0678,0.00000231,0.00000783,-0.00000066,-0.00000643,-0.00001971,0.00000
 472,0.00001074,0.00000802,-0.00001510,-0.00000328,0.00000591,0.0000082
 9,0.00000336,-0.00001579,0.00000572,0.00002855,-0.00000699,-0.00001687
 ,-0.00007359,0.00000297,-0.00000248,0.00002436,0.00001373,0.00004018,-
 0.00000313,0.00000160,-0.00000860,-0.00000764,0.00000027,-0.00000486,0
 .00000583,-0.00002349,-0.00002166,-0.00000037,0.00001864,-0.00001454,-
 0.00001877,-0.00001888,0.00001267,0.00002815,0.00002609,0.00001050,-0.
 00001875,-0.00001166,-0.00001030,0.00000619,0.00001720,0.00000981,0.00
 001059,-0.00001211,-0.00000440,0.00000165,-0.00000225,-0.00000186,-0.0
 0000045,-0.00001310,0.00001824,0.00001052,-0.00003041,-0.00002762,0.00
 003349,0.00004421,0.00000270,-0.00002292,0.00001066,-0.00001733,-0.000
 00487,-0.00002106,0.00001879,-0.00000495,0.00001748,-0.00000852,0.0000
 0533,-0.00000156,0.00000019,-0.00000139,-0.00000032,0.00000011,-0.0000
 0175,-0.00000010,0.,-0.00000119,-0.00000087,0.00000018,-0.00000162,0.0
 0000027,0.00000031,-0.00000119,0.00000244,-0.00000431,0.00000129,0.000
 00309,0.00000329,0.00000159,-0.00000279,0.00000319,0.00000835,-0.00000
 047,0.00000247,0.00000593,0.00000638,0.00000800,-0.00000405,0.00000496
 ,-0.00000585,-0.00000162\\\@


 IN-LAWS ARE LIKE SEEDS. YOU DON'T NEED THEM
 BUT THEY COME WITH THE TOMATO.
 Job cpu time:  1 days  8 hours 38 minutes  3.0 seconds.
 File lengths (MBytes):  RWF=   2284 Int=      0 D2E=      0 Chk=     34 Scr=      1
 Normal termination of Gaussian 09 at Sun Dec 29 09:11:45 2013.
