 Entering Gaussian System, Link 0=g09
 Initial command:
 /opt/gaussian/g09/l1.exe /panfs/panfs.cluster/home/shuo/Gau-16148.inp -scrdir=/panfs/panfs.cluster/home/shuo/
 Default is to use a total of  12 processors:
                               12 via shared-memory
                                1 via Linda
 Entering Link 1 = /opt/gaussian/g09/l1.exe PID=     16149.
  
 Copyright (c) 1988,1990,1992,1993,1995,1998,2003,2009,2011,
            Gaussian, Inc.  All Rights Reserved.
  
 This is part of the Gaussian(R) 09 program.  It is based on
 the Gaussian(R) 03 system (copyright 2003, Gaussian, Inc.),
 the Gaussian(R) 98 system (copyright 1998, Gaussian, Inc.),
 the Gaussian(R) 94 system (copyright 1995, Gaussian, Inc.),
 the Gaussian 92(TM) system (copyright 1992, Gaussian, Inc.),
 the Gaussian 90(TM) system (copyright 1990, Gaussian, Inc.),
 the Gaussian 88(TM) system (copyright 1988, Gaussian, Inc.),
 the Gaussian 86(TM) system (copyright 1986, Carnegie Mellon
 University), and the Gaussian 82(TM) system (copyright 1983,
 Carnegie Mellon University). Gaussian is a federally registered
 trademark of Gaussian, Inc.
  
 This software contains proprietary and confidential information,
 including trade secrets, belonging to Gaussian, Inc.
  
 This software is provided under written license and may be
 used, copied, transmitted, or stored only in accord with that
 written license.
  
 The following legend is applicable only to US Government
 contracts under FAR:
  
                    RESTRICTED RIGHTS LEGEND
  
 Use, reproduction and disclosure by the US Government is
 subject to restrictions as set forth in subparagraphs (a)
 and (c) of the Commercial Computer Software - Restricted
 Rights clause in FAR 52.227-19.
  
 Gaussian, Inc.
 340 Quinnipiac St., Bldg. 40, Wallingford CT 06492
  
  
 ---------------------------------------------------------------
 Warning -- This program may not be used in any manner that
 competes with the business of Gaussian, Inc. or will provide
 assistance to any competitor of Gaussian, Inc.  The licensee
 of this program is prohibited from giving any competitor of
 Gaussian, Inc. access to this program.  By using this program,
 the user acknowledges that Gaussian, Inc. is engaged in the
 business of creating and licensing software in the field of
 computational chemistry and represents and warrants to the
 licensee that it is not a competitor of Gaussian, Inc. and that
 it will not use this program in any manner prohibited above.
 ---------------------------------------------------------------
  

 Cite this work as:
 Gaussian 09, Revision C.01,
 M. J. Frisch, G. W. Trucks, H. B. Schlegel, G. E. Scuseria, 
 M. A. Robb, J. R. Cheeseman, G. Scalmani, V. Barone, B. Mennucci, 
 G. A. Petersson, H. Nakatsuji, M. Caricato, X. Li, H. P. Hratchian, 
 A. F. Izmaylov, J. Bloino, G. Zheng, J. L. Sonnenberg, M. Hada, 
 M. Ehara, K. Toyota, R. Fukuda, J. Hasegawa, M. Ishida, T. Nakajima, 
 Y. Honda, O. Kitao, H. Nakai, T. Vreven, J. A. Montgomery, Jr., 
 J. E. Peralta, F. Ogliaro, M. Bearpark, J. J. Heyd, E. Brothers, 
 K. N. Kudin, V. N. Staroverov, T. Keith, R. Kobayashi, J. Normand, 
 K. Raghavachari, A. Rendell, J. C. Burant, S. S. Iyengar, J. Tomasi, 
 M. Cossi, N. Rega, J. M. Millam, M. Klene, J. E. Knox, J. B. Cross, 
 V. Bakken, C. Adamo, J. Jaramillo, R. Gomperts, R. E. Stratmann, 
 O. Yazyev, A. J. Austin, R. Cammi, C. Pomelli, J. W. Ochterski, 
 R. L. Martin, K. Morokuma, V. G. Zakrzewski, G. A. Voth, 
 P. Salvador, J. J. Dannenberg, S. Dapprich, A. D. Daniels, 
 O. Farkas, J. B. Foresman, J. V. Ortiz, J. Cioslowski, 
 and D. J. Fox, Gaussian, Inc., Wallingford CT, 2010.
 
 ******************************************
 Gaussian 09:  EM64L-G09RevC.01 23-Sep-2011
                29-Dec-2013 
 ******************************************
 %chk=40_C20H7N7S3Se.chk
 %NProcShared=12
 Will use up to   12 processors via shared memory.
 %Mem=8000MB
 Default route:  MaxDisk=100GB
 --------------------------------------------
 #B3LYP/6-31++G(d,p) opt scf=direct freq test
 --------------------------------------------
 1/14=-1,18=20,19=15,26=3,38=1/1,3;
 2/9=110,12=2,17=6,18=5,40=1/2;
 3/5=1,6=6,7=1111,11=2,16=1,25=1,30=1,71=1,74=-5/1,2,3;
 4//1;
 5/5=2,38=5/2;
 6/7=2,8=2,9=2,10=2,28=1/1;
 7//1,2,3,16;
 1/14=-1,18=20,19=15/3(2);
 2/9=110/2;
 99//99;
 2/9=110/2;
 3/5=1,6=6,7=1111,11=2,16=1,25=1,30=1,71=1,74=-5/1,2,3;
 4/5=5,16=3/1;
 5/5=2,38=5/2;
 7//1,2,3,16;
 1/14=-1,18=20,19=15/3(-5);
 2/9=110/2;
 6/7=2,8=2,9=2,10=2,19=2,28=1/1;
 99/9=1/99;
 ----------------------------------------------------------------------
 Geom opt of No.40 candidate from the CEPDB database with SMILE code of
  [SiH2]1ccc2csc(-c3ccc([nH]3)-c3ncc(s3)-c3cncc4nsnc34)c12, HPC, 201312
 27, Shuo Dai, Gaussian09
 ----------------------------------------------------------------------
 Charge =  0 Multiplicity = 1
 Symbolic Z-Matrix:
 Si                   -1.57476   1.39182   0.00496 
 H                    -1.68214   2.22667  -1.22243 
 H                    -1.67515   2.21041   1.24323 
 C                    -2.32643  -0.3045    0.00164 
 C                    -1.38128  -1.26922  -0.00031 
 C                    -0.03554  -0.78003  -0.00169 
 C                     1.18524  -1.40059  -0.00227 
 S                     2.4638   -0.22956  -0.00276 
 C                     1.35985   1.10141  -0.00542 
 C                     1.74579   2.46465  -0.00615 
 C                     1.01999   3.64392  -0.023 
 C                     1.91002   4.72701  -0.00321 
 C                     3.15706   4.17519   0.02044 
 N                     3.05375   2.81385   0.01493 
 H                     3.83027   2.16712   0.02807 
 C                     4.40449   4.78976   0.04467 
 N                     4.58628   6.08778   0.04576 
 C                     5.94037   6.31105   0.06398 
 C                     6.73514   5.17617   0.07698 
 S                     5.75991   3.79654   0.07068 
 C                     8.15121   4.95498   0.09697 
 C                     8.76861   3.69027   0.10511 
 N                     10.10127   3.42277   0.13065 
 C                     10.99434   4.44679   0.15016 
 C                     10.51447   5.77254   0.14124 
 N                     11.24734   6.89596   0.15538 
 S                     10.17931   8.16565   0.13488 
 N                     8.74824   7.3448    0.10871 
 C                     9.04828   6.03395   0.11377 
 C                     0.09164   0.62172  -0.002 
 H                    -3.39734  -0.40595   0.00312 
 H                    -1.61104  -2.32535  -0.00074 
 H                     1.42899  -2.45237  -0.0018 
 H                    -0.04818   3.7585   -0.04512 
 H                     1.69618   5.78627  -0.00589 
 H                     6.27765   7.34024   0.06627 
 H                     8.17588   2.77245   0.09108 
 H                     12.03844   4.18122   0.17107 
 

 GradGradGradGradGradGradGradGradGradGradGradGradGradGradGradGradGradGrad
 Berny optimization.
 Initialization pass.
                           ----------------------------
                           !    Initial Parameters    !
                           ! (Angstroms and Degrees)  !
 --------------------------                            --------------------------
 ! Name  Definition              Value          Derivative Info.                !
 --------------------------------------------------------------------------------
 ! R1    R(1,2)                  1.4883         estimate D2E/DX2                !
 ! R2    R(1,3)                  1.4878         estimate D2E/DX2                !
 ! R3    R(1,4)                  1.8554         estimate D2E/DX2                !
 ! R4    R(1,30)                 1.8358         estimate D2E/DX2                !
 ! R5    R(4,5)                  1.3506         estimate D2E/DX2                !
 ! R6    R(4,31)                 1.0757         estimate D2E/DX2                !
 ! R7    R(5,6)                  1.4319         estimate D2E/DX2                !
 ! R8    R(5,32)                 1.0808         estimate D2E/DX2                !
 ! R9    R(6,7)                  1.3695         estimate D2E/DX2                !
 ! R10   R(6,30)                 1.4075         estimate D2E/DX2                !
 ! R11   R(7,8)                  1.7338         estimate D2E/DX2                !
 ! R12   R(7,33)                 1.0797         estimate D2E/DX2                !
 ! R13   R(8,9)                  1.7292         estimate D2E/DX2                !
 ! R14   R(9,10)                 1.4168         estimate D2E/DX2                !
 ! R15   R(9,30)                 1.3559         estimate D2E/DX2                !
 ! R16   R(10,11)                1.3848         estimate D2E/DX2                !
 ! R17   R(10,14)                1.3539         estimate D2E/DX2                !
 ! R18   R(11,12)                1.402          estimate D2E/DX2                !
 ! R19   R(11,34)                1.0745         estimate D2E/DX2                !
 ! R20   R(12,13)                1.3639         estimate D2E/DX2                !
 ! R21   R(12,35)                1.0806         estimate D2E/DX2                !
 ! R22   R(13,14)                1.3653         estimate D2E/DX2                !
 ! R23   R(13,16)                1.3908         estimate D2E/DX2                !
 ! R24   R(14,15)                1.0107         estimate D2E/DX2                !
 ! R25   R(16,17)                1.3107         estimate D2E/DX2                !
 ! R26   R(16,20)                1.6806         estimate D2E/DX2                !
 ! R27   R(17,18)                1.3725         estimate D2E/DX2                !
 ! R28   R(18,19)                1.3856         estimate D2E/DX2                !
 ! R29   R(18,36)                1.083          estimate D2E/DX2                !
 ! R30   R(19,20)                1.6895         estimate D2E/DX2                !
 ! R31   R(19,21)                1.4334         estimate D2E/DX2                !
 ! R32   R(21,22)                1.4074         estimate D2E/DX2                !
 ! R33   R(21,29)                1.4033         estimate D2E/DX2                !
 ! R34   R(22,23)                1.3595         estimate D2E/DX2                !
 ! R35   R(22,37)                1.0927         estimate D2E/DX2                !
 ! R36   R(23,24)                1.3589         estimate D2E/DX2                !
 ! R37   R(24,25)                1.41           estimate D2E/DX2                !
 ! R38   R(24,38)                1.0775         estimate D2E/DX2                !
 ! R39   R(25,26)                1.3414         estimate D2E/DX2                !
 ! R40   R(25,29)                1.4896         estimate D2E/DX2                !
 ! R41   R(26,27)                1.6593         estimate D2E/DX2                !
 ! R42   R(27,28)                1.65           estimate D2E/DX2                !
 ! R43   R(28,29)                1.3448         estimate D2E/DX2                !
 ! A1    A(2,1,3)              111.8938         estimate D2E/DX2                !
 ! A2    A(2,1,4)              118.8257         estimate D2E/DX2                !
 ! A3    A(2,1,30)             107.3186         estimate D2E/DX2                !
 ! A4    A(3,1,4)              118.5019         estimate D2E/DX2                !
 ! A5    A(3,1,30)             107.1708         estimate D2E/DX2                !
 ! A6    A(4,1,30)              89.0954         estimate D2E/DX2                !
 ! A7    A(1,4,5)              111.6882         estimate D2E/DX2                !
 ! A8    A(1,4,31)             119.3104         estimate D2E/DX2                !
 ! A9    A(5,4,31)             129.0014         estimate D2E/DX2                !
 ! A10   A(4,5,6)              114.4363         estimate D2E/DX2                !
 ! A11   A(4,5,32)             123.3137         estimate D2E/DX2                !
 ! A12   A(6,5,32)             122.2501         estimate D2E/DX2                !
 ! A13   A(5,6,7)              133.0777         estimate D2E/DX2                !
 ! A14   A(5,6,30)             115.1609         estimate D2E/DX2                !
 ! A15   A(7,6,30)             111.7614         estimate D2E/DX2                !
 ! A16   A(6,7,8)              110.5679         estimate D2E/DX2                !
 ! A17   A(6,7,33)             129.9936         estimate D2E/DX2                !
 ! A18   A(8,7,33)             119.4385         estimate D2E/DX2                !
 ! A19   A(7,8,9)               92.8131         estimate D2E/DX2                !
 ! A20   A(8,9,10)             124.5195         estimate D2E/DX2                !
 ! A21   A(8,9,30)             108.9544         estimate D2E/DX2                !
 ! A22   A(10,9,30)            126.5257         estimate D2E/DX2                !
 ! A23   A(9,10,11)            132.5786         estimate D2E/DX2                !
 ! A24   A(9,10,14)            120.7506         estimate D2E/DX2                !
 ! A25   A(11,10,14)           106.6706         estimate D2E/DX2                !
 ! A26   A(10,11,12)           108.9636         estimate D2E/DX2                !
 ! A27   A(10,11,34)           127.7389         estimate D2E/DX2                !
 ! A28   A(12,11,34)           123.2973         estimate D2E/DX2                !
 ! A29   A(11,12,13)           105.5527         estimate D2E/DX2                !
 ! A30   A(11,12,35)           129.1676         estimate D2E/DX2                !
 ! A31   A(13,12,35)           125.2797         estimate D2E/DX2                !
 ! A32   A(12,13,14)           109.5223         estimate D2E/DX2                !
 ! A33   A(12,13,16)           129.9105         estimate D2E/DX2                !
 ! A34   A(14,13,16)           120.5671         estimate D2E/DX2                !
 ! A35   A(10,14,13)           109.2892         estimate D2E/DX2                !
 ! A36   A(10,14,15)           125.2682         estimate D2E/DX2                !
 ! A37   A(13,14,15)           125.4422         estimate D2E/DX2                !
 ! A38   A(13,16,17)           124.1956         estimate D2E/DX2                !
 ! A39   A(13,16,20)           117.5482         estimate D2E/DX2                !
 ! A40   A(17,16,20)           118.256          estimate D2E/DX2                !
 ! A41   A(16,17,18)           107.3346         estimate D2E/DX2                !
 ! A42   A(17,18,19)           115.6453         estimate D2E/DX2                !
 ! A43   A(17,18,36)           117.5068         estimate D2E/DX2                !
 ! A44   A(19,18,36)           126.8479         estimate D2E/DX2                !
 ! A45   A(18,19,20)           109.7372         estimate D2E/DX2                !
 ! A46   A(18,19,21)           133.8845         estimate D2E/DX2                !
 ! A47   A(20,19,21)           116.3782         estimate D2E/DX2                !
 ! A48   A(16,20,19)            89.026          estimate D2E/DX2                !
 ! A49   A(19,21,22)           124.8994         estimate D2E/DX2                !
 ! A50   A(19,21,29)           120.8681         estimate D2E/DX2                !
 ! A51   A(22,21,29)           114.2323         estimate D2E/DX2                !
 ! A52   A(21,22,23)           127.3698         estimate D2E/DX2                !
 ! A53   A(21,22,37)           121.1167         estimate D2E/DX2                !
 ! A54   A(23,22,37)           111.5135         estimate D2E/DX2                !
 ! A55   A(22,23,24)           119.7511         estimate D2E/DX2                !
 ! A56   A(23,24,25)           118.9995         estimate D2E/DX2                !
 ! A57   A(23,24,38)           116.8311         estimate D2E/DX2                !
 ! A58   A(25,24,38)           124.1694         estimate D2E/DX2                !
 ! A59   A(24,25,26)           126.975          estimate D2E/DX2                !
 ! A60   A(24,25,29)           120.0089         estimate D2E/DX2                !
 ! A61   A(26,25,29)           113.0161         estimate D2E/DX2                !
 ! A62   A(25,26,27)           106.8016         estimate D2E/DX2                !
 ! A63   A(26,27,28)           100.2408         estimate D2E/DX2                !
 ! A64   A(27,28,29)           106.94           estimate D2E/DX2                !
 ! A65   A(21,29,25)           119.6381         estimate D2E/DX2                !
 ! A66   A(21,29,28)           127.3604         estimate D2E/DX2                !
 ! A67   A(25,29,28)           113.0015         estimate D2E/DX2                !
 ! A68   A(1,30,6)             109.6188         estimate D2E/DX2                !
 ! A69   A(1,30,9)             134.4782         estimate D2E/DX2                !
 ! A70   A(6,30,9)             115.9029         estimate D2E/DX2                !
 ! D1    D(2,1,4,5)            109.5054         estimate D2E/DX2                !
 ! D2    D(2,1,4,31)           -70.5943         estimate D2E/DX2                !
 ! D3    D(3,1,4,5)           -108.9439         estimate D2E/DX2                !
 ! D4    D(3,1,4,31)            70.9564         estimate D2E/DX2                !
 ! D5    D(30,1,4,5)             0.1674         estimate D2E/DX2                !
 ! D6    D(30,1,4,31)         -179.9323         estimate D2E/DX2                !
 ! D7    D(2,1,30,6)          -120.202          estimate D2E/DX2                !
 ! D8    D(2,1,30,9)            59.8996         estimate D2E/DX2                !
 ! D9    D(3,1,30,6)           119.4555         estimate D2E/DX2                !
 ! D10   D(3,1,30,9)           -60.4429         estimate D2E/DX2                !
 ! D11   D(4,1,30,6)            -0.1899         estimate D2E/DX2                !
 ! D12   D(4,1,30,9)           179.9117         estimate D2E/DX2                !
 ! D13   D(1,4,5,6)             -0.1005         estimate D2E/DX2                !
 ! D14   D(1,4,5,32)           179.8955         estimate D2E/DX2                !
 ! D15   D(31,4,5,6)          -179.9886         estimate D2E/DX2                !
 ! D16   D(31,4,5,32)            0.0074         estimate D2E/DX2                !
 ! D17   D(4,5,6,7)            179.9158         estimate D2E/DX2                !
 ! D18   D(4,5,6,30)            -0.0538         estimate D2E/DX2                !
 ! D19   D(32,5,6,7)            -0.0802         estimate D2E/DX2                !
 ! D20   D(32,5,6,30)          179.9502         estimate D2E/DX2                !
 ! D21   D(5,6,7,8)           -179.9553         estimate D2E/DX2                !
 ! D22   D(5,6,7,33)             0.0            estimate D2E/DX2                !
 ! D23   D(30,6,7,8)             0.0151         estimate D2E/DX2                !
 ! D24   D(30,6,7,33)          179.9704         estimate D2E/DX2                !
 ! D25   D(5,6,30,1)             0.18           estimate D2E/DX2                !
 ! D26   D(5,6,30,9)          -179.9006         estimate D2E/DX2                !
 ! D27   D(7,6,30,1)          -179.7961         estimate D2E/DX2                !
 ! D28   D(7,6,30,9)             0.1234         estimate D2E/DX2                !
 ! D29   D(6,7,8,9)             -0.1073         estimate D2E/DX2                !
 ! D30   D(33,7,8,9)           179.9321         estimate D2E/DX2                !
 ! D31   D(7,8,9,10)           179.9633         estimate D2E/DX2                !
 ! D32   D(7,8,9,30)             0.1712         estimate D2E/DX2                !
 ! D33   D(8,9,10,11)          179.167          estimate D2E/DX2                !
 ! D34   D(8,9,10,14)           -0.969          estimate D2E/DX2                !
 ! D35   D(30,9,10,11)          -1.0777         estimate D2E/DX2                !
 ! D36   D(30,9,10,14)         178.7864         estimate D2E/DX2                !
 ! D37   D(8,9,30,1)           179.6946         estimate D2E/DX2                !
 ! D38   D(8,9,30,6)            -0.199          estimate D2E/DX2                !
 ! D39   D(10,9,30,1)           -0.0922         estimate D2E/DX2                !
 ! D40   D(10,9,30,6)         -179.9859         estimate D2E/DX2                !
 ! D41   D(9,10,11,12)         179.5057         estimate D2E/DX2                !
 ! D42   D(9,10,11,34)          -0.3515         estimate D2E/DX2                !
 ! D43   D(14,10,11,12)         -0.3724         estimate D2E/DX2                !
 ! D44   D(14,10,11,34)        179.7705         estimate D2E/DX2                !
 ! D45   D(9,10,14,13)        -179.5021         estimate D2E/DX2                !
 ! D46   D(9,10,14,15)           0.2836         estimate D2E/DX2                !
 ! D47   D(11,10,14,13)          0.3934         estimate D2E/DX2                !
 ! D48   D(11,10,14,15)       -179.8209         estimate D2E/DX2                !
 ! D49   D(10,11,12,13)          0.2089         estimate D2E/DX2                !
 ! D50   D(10,11,12,35)       -179.827          estimate D2E/DX2                !
 ! D51   D(34,11,12,13)       -179.9262         estimate D2E/DX2                !
 ! D52   D(34,11,12,35)          0.0378         estimate D2E/DX2                !
 ! D53   D(11,12,13,14)          0.0346         estimate D2E/DX2                !
 ! D54   D(11,12,13,16)        179.9073         estimate D2E/DX2                !
 ! D55   D(35,12,13,14)       -179.9312         estimate D2E/DX2                !
 ! D56   D(35,12,13,16)         -0.0586         estimate D2E/DX2                !
 ! D57   D(12,13,14,10)         -0.272          estimate D2E/DX2                !
 ! D58   D(12,13,14,15)        179.9428         estimate D2E/DX2                !
 ! D59   D(16,13,14,10)        179.8415         estimate D2E/DX2                !
 ! D60   D(16,13,14,15)          0.0563         estimate D2E/DX2                !
 ! D61   D(12,13,16,17)         -0.1603         estimate D2E/DX2                !
 ! D62   D(12,13,16,20)        179.9809         estimate D2E/DX2                !
 ! D63   D(14,13,16,17)        179.7003         estimate D2E/DX2                !
 ! D64   D(14,13,16,20)         -0.1585         estimate D2E/DX2                !
 ! D65   D(13,16,17,18)       -179.6074         estimate D2E/DX2                !
 ! D66   D(20,16,17,18)          0.2504         estimate D2E/DX2                !
 ! D67   D(13,16,20,19)        179.5654         estimate D2E/DX2                !
 ! D68   D(17,16,20,19)         -0.302          estimate D2E/DX2                !
 ! D69   D(16,17,18,19)         -0.0437         estimate D2E/DX2                !
 ! D70   D(16,17,18,36)        179.928          estimate D2E/DX2                !
 ! D71   D(17,18,19,20)         -0.1658         estimate D2E/DX2                !
 ! D72   D(17,18,19,21)       -179.994          estimate D2E/DX2                !
 ! D73   D(36,18,19,20)        179.8656         estimate D2E/DX2                !
 ! D74   D(36,18,19,21)          0.0374         estimate D2E/DX2                !
 ! D75   D(18,19,20,16)          0.2428         estimate D2E/DX2                !
 ! D76   D(21,19,20,16)       -179.8954         estimate D2E/DX2                !
 ! D77   D(18,19,21,22)       -179.8693         estimate D2E/DX2                !
 ! D78   D(18,19,21,29)          0.2989         estimate D2E/DX2                !
 ! D79   D(20,19,21,22)          0.3112         estimate D2E/DX2                !
 ! D80   D(20,19,21,29)       -179.5206         estimate D2E/DX2                !
 ! D81   D(19,21,22,23)       -179.6417         estimate D2E/DX2                !
 ! D82   D(19,21,22,37)          0.3163         estimate D2E/DX2                !
 ! D83   D(29,21,22,23)          0.2            estimate D2E/DX2                !
 ! D84   D(29,21,22,37)       -179.842          estimate D2E/DX2                !
 ! D85   D(19,21,29,25)        179.6955         estimate D2E/DX2                !
 ! D86   D(19,21,29,28)         -0.2741         estimate D2E/DX2                !
 ! D87   D(22,21,29,25)         -0.1533         estimate D2E/DX2                !
 ! D88   D(22,21,29,28)        179.8772         estimate D2E/DX2                !
 ! D89   D(21,22,23,24)         -0.0728         estimate D2E/DX2                !
 ! D90   D(37,22,23,24)        179.9658         estimate D2E/DX2                !
 ! D91   D(22,23,24,25)         -0.1008         estimate D2E/DX2                !
 ! D92   D(22,23,24,38)        179.9397         estimate D2E/DX2                !
 ! D93   D(23,24,25,26)       -179.8874         estimate D2E/DX2                !
 ! D94   D(23,24,25,29)          0.1306         estimate D2E/DX2                !
 ! D95   D(38,24,25,26)          0.0689         estimate D2E/DX2                !
 ! D96   D(38,24,25,29)       -179.9131         estimate D2E/DX2                !
 ! D97   D(24,25,26,27)        179.9866         estimate D2E/DX2                !
 ! D98   D(29,25,26,27)         -0.0304         estimate D2E/DX2                !
 ! D99   D(24,25,29,21)          0.0037         estimate D2E/DX2                !
 ! D100  D(24,25,29,28)        179.9773         estimate D2E/DX2                !
 ! D101  D(26,25,29,21)       -179.9807         estimate D2E/DX2                !
 ! D102  D(26,25,29,28)         -0.007          estimate D2E/DX2                !
 ! D103  D(25,26,27,28)          0.0491         estimate D2E/DX2                !
 ! D104  D(26,27,28,29)         -0.053          estimate D2E/DX2                !
 ! D105  D(27,28,29,21)       -179.988          estimate D2E/DX2                !
 ! D106  D(27,28,29,25)          0.0407         estimate D2E/DX2                !
 --------------------------------------------------------------------------------
 Trust Radius=3.00D-01 FncErr=1.00D-07 GrdErr=1.00D-06
 Number of steps in this run=    228 maximum allowed number of steps=    228.
 GradGradGradGradGradGradGradGradGradGradGradGradGradGradGradGradGradGrad

                          Input orientation:                          
 ---------------------------------------------------------------------
 Center     Atomic      Atomic             Coordinates (Angstroms)
 Number     Number       Type             X           Y           Z
 ---------------------------------------------------------------------
      1         14           0       -1.574760    1.391820    0.004960
      2          1           0       -1.682140    2.226670   -1.222430
      3          1           0       -1.675150    2.210410    1.243230
      4          6           0       -2.326430   -0.304500    0.001640
      5          6           0       -1.381280   -1.269220   -0.000310
      6          6           0       -0.035540   -0.780030   -0.001690
      7          6           0        1.185240   -1.400590   -0.002270
      8         16           0        2.463800   -0.229560   -0.002760
      9          6           0        1.359850    1.101410   -0.005420
     10          6           0        1.745790    2.464650   -0.006150
     11          6           0        1.019990    3.643920   -0.023000
     12          6           0        1.910020    4.727010   -0.003210
     13          6           0        3.157060    4.175190    0.020440
     14          7           0        3.053750    2.813850    0.014930
     15          1           0        3.830270    2.167120    0.028070
     16          6           0        4.404490    4.789760    0.044670
     17          7           0        4.586280    6.087780    0.045760
     18          6           0        5.940370    6.311050    0.063980
     19          6           0        6.735140    5.176170    0.076980
     20         16           0        5.759910    3.796540    0.070680
     21          6           0        8.151210    4.954980    0.096970
     22          6           0        8.768610    3.690270    0.105110
     23          7           0       10.101270    3.422770    0.130650
     24          6           0       10.994340    4.446790    0.150160
     25          6           0       10.514470    5.772540    0.141240
     26          7           0       11.247340    6.895960    0.155380
     27         16           0       10.179310    8.165650    0.134880
     28          7           0        8.748240    7.344800    0.108710
     29          6           0        9.048280    6.033950    0.113770
     30          6           0        0.091640    0.621720   -0.002000
     31          1           0       -3.397340   -0.405950    0.003120
     32          1           0       -1.611040   -2.325350   -0.000740
     33          1           0        1.428990   -2.452370   -0.001800
     34          1           0       -0.048180    3.758500   -0.045120
     35          1           0        1.696180    5.786270   -0.005890
     36          1           0        6.277650    7.340240    0.066270
     37          1           0        8.175880    2.772450    0.091080
     38          1           0       12.038440    4.181220    0.171070
 ---------------------------------------------------------------------
                    Distance matrix (angstroms):
                    1          2          3          4          5
     1  Si   0.000000
     2  H    1.488285   0.000000
     3  H    1.487777   2.465724   0.000000
     4  C    1.855403   2.884489   2.879320   0.000000
     5  C    2.668070   3.715554   3.706828   1.350554   0.000000
     6  C    2.661987   3.638921   3.630548   2.339726   1.431896
     7  C    3.926220   4.782016   4.772046   3.678757   2.569881
     8  S    4.351885   4.970863   4.963552   4.790818   3.983157
     9  C    2.948963   3.464250   3.464135   3.945287   3.624046
    10  C    3.489576   3.645089   3.650811   4.924554   4.870358
    11  C    3.435908   3.278527   3.304855   5.175824   5.468597
    12  C    4.823614   4.543326   4.554155   6.577509   6.840134
    13  C    5.489764   5.362771   5.357782   7.080723   7.087917
    14  N    4.842042   4.929959   4.922942   6.218571   6.028365
    15  H    5.460400   5.652783   5.638097   6.634347   6.242555
    16  C    6.877427   6.724733   6.712050   8.441482   8.377852
    17  N    7.746749   7.470580   7.461464   9.415347   9.473085
    18  C    8.982176   8.742978   8.729377  10.588171  10.539032
    19  C    9.131316   9.013247   8.993823  10.590348  10.364618
    20  S    7.719092   7.714968   7.692256   9.067094   8.755773
    21  C   10.358526  10.289765  10.266641  11.723999  11.385012
    22  C   10.596141  10.635914  10.609308  11.792744  11.297253
    23  N   11.852014  11.921000  11.890825  12.975242  12.404873
    24  C   12.935849  12.942414  12.911707  14.143540  13.632732
    25  C   12.859190  12.774587  12.747156  14.206992  13.824445
    26  N   13.954370  13.815646  13.788711  15.366115  15.039164
    27  S   13.566865  13.334458  13.312458  15.104792  14.922543
    28  N   11.916923  11.694444  11.674594  13.459999  13.297383
    29  C   11.593541  11.463975  11.440590  13.022003  12.732833
    30  C    1.835754   2.685444   2.682551   2.589394   2.396904
    31  H    2.560035   3.372621   3.368850   1.075706   2.193113
    32  H    3.717351   4.713647   4.703689   2.143740   1.080833
    33  H    4.878561   5.749999   5.738232   4.326261   3.049174
    34  H    2.816759   2.530294   2.589104   4.658388   5.201647
    35  H    5.478171   5.056062   5.070793   7.299242   7.697450
    36  H    9.851284   9.548173   9.536636  11.509840  11.523300
    37  H    9.848276   9.960108   9.934089  10.944137  10.377030
    38  H   13.897034  13.928978  13.895905  15.049913  14.485356
                    6          7          8          9         10
     6  C    0.000000
     7  C    1.369452   0.000000
     8  S    2.559242   1.733790   0.000000
     9  C    2.342423   2.508087   1.729218   0.000000
    10  C    3.701500   3.905677   2.788246   1.416818   0.000000
    11  C    4.548179   5.047259   4.133866   2.565184   1.384828
    12  C    5.840607   6.170315   4.987410   3.667106   2.268315
    13  C    5.894692   5.914213   4.459032   3.560724   2.217732
    14  N    4.739194   4.610112   3.100113   2.408768   1.353937
    15  H    4.861179   4.441358   2.759033   2.690694   2.105885
    16  C    7.123102   6.977550   5.381645   4.782914   3.532337
    17  N    8.278302   8.224662   6.664538   5.939390   4.604145
    18  C    9.273577   9.060080   7.407467   6.937314   5.691591
    19  C    9.018016   8.605896   6.890038   6.745680   5.679161
    20  S    7.384949   6.924095   5.203769   5.160431   4.230011
    21  C    9.996147   9.430157   7.696495   7.809165   6.873266
    22  C    9.874616   9.134325   7.424778   7.848830   7.129833
    23  N   10.974332  10.137951   8.466892   9.045422   8.411347
    24  C   12.206595  11.420750   9.729427  10.199959   9.459862
    25  C   12.420117  11.768981  10.042870  10.278523   9.373026
    26  N   13.647303  13.042371  11.311438  11.461463  10.485326
    27  S   13.578918  13.131072  11.402964  11.300710  10.180646
    28  N   11.965778  11.562575   9.842639   9.673740   8.536004
    29  C   11.356031  10.821887   9.088482   9.135432   8.129000
    30  C    1.407508   2.299065   2.520282   1.355902   2.476413
    31  H    3.382552   4.689283   5.863797   4.990297   5.890010
    32  H    2.206856   2.945228   4.582211   4.535294   5.849140
    33  H    2.222964   1.079655   2.451880   3.554454   4.927217
    34  H    4.538755   5.304656   4.713434   3.007366   2.212215
    35  H    6.790815   7.205000   6.064607   4.696917   3.321990
    36  H   10.285902  10.116296   8.476561   7.944363   6.656905
    37  H    8.947410   8.141991   6.453583   7.018543   6.438187
    38  H   13.054687  12.205679  10.543193  11.115245  10.436315
                   11         12         13         14         15
    11  C    0.000000
    12  C    1.402009   0.000000
    13  C    2.202545   1.363882   0.000000
    14  N    2.196960   2.229042   1.365266   0.000000
    15  H    3.175094   3.200215   2.117927   1.010651   0.000000
    16  C    3.573845   2.495718   1.390815   2.393659   2.684817
    17  N    4.323841   3.002742   2.387742   3.614999   3.992924
    18  C    5.597436   4.330984   3.508648   4.534908   4.650373
    19  C    5.917831   4.846644   3.715887   4.374590   4.182708
    20  S    4.743302   3.961425   2.630728   2.879599   2.525933
    21  C    7.251729   6.246156   5.055241   5.529491   5.142707
    22  C    7.749818   6.937350   5.633099   5.782376   5.168474
    23  N    9.085272   8.295513   6.985724   7.074724   6.396297
    24  C   10.008109   9.089935   7.843058   8.107882   7.519023
    25  C    9.731554   8.668942   7.529781   8.026964   7.595419
    26  N   10.733418   9.587233   8.536594   9.155232   8.797219
    27  S   10.215875   8.956811   8.077677   8.912337   8.735221
    28  N    8.569697   7.323019   6.427714   7.277741   7.141520
    29  C    8.377612   7.257860   6.178201   6.805380   6.495179
    30  C    3.161640   4.489979   4.693022   3.685080   4.045556
    31  H    5.992907   7.383454   7.996706   7.209980   7.672005
    32  H    6.523419   7.882490   8.061777   6.940597   7.056272
    33  H    6.110031   7.195477   6.849180   5.511188   5.206412
    34  H    1.074525   2.185021   3.232877   3.243137   4.192877
    35  H    2.246595   1.080632   2.174958   3.267830   4.201635
    36  H    6.427576   5.090186   4.444966   5.557371   5.722962
    37  H    7.209663   6.564312   5.211643   5.122863   4.388020
    38  H   11.033250  10.144612   8.882659   9.089485   8.452875
                   16         17         18         19         20
    16  C    0.000000
    17  N    1.310689   0.000000
    18  C    2.161856   1.372495   0.000000
    19  C    2.362686   2.334439   1.385562   0.000000
    20  S    1.680573   2.574453   2.520986   1.689524   0.000000
    21  C    3.750726   3.740934   2.593806   1.433380   2.657252
    22  C    4.500897   4.821147   3.856050   2.518668   3.010773
    23  N    5.859126   6.125733   5.065540   3.795803   4.357833
    24  C    6.599612   6.615662   5.387532   4.321821   5.275263
    25  C    6.189268   5.937334   4.606338   3.826633   5.149310
    26  N    7.160512   6.710804   5.339888   4.829469   6.302814
    27  S    6.689792   5.967200   4.627438   4.560992   6.214848
    28  N    5.039890   4.348100   2.992453   2.959144   4.639150
    29  C    4.808073   4.462843   3.120636   2.467338   3.977592
    30  C    5.997951   7.076855   8.159686   8.055144   6.497234
    31  H    9.373670  10.291187  11.502809  11.568607  10.075749
    32  H    9.317374  10.449387  11.472375  11.222191   9.581938
    33  H    7.829700   9.105213   9.856693   9.292796   7.603354
    34  H    4.571414   5.187680   6.510771   6.930954   5.809369
    35  H    2.886266   2.906244   4.277081   5.076436   4.525350
    36  H    3.164513   2.104711   1.083049   2.211925   3.581324
    37  H    4.277274   4.886583   4.185681   2.802463   2.624136
    38  H    7.659210   7.693202   6.460194   5.396644   6.291104
                   21         22         23         24         25
    21  C    0.000000
    22  C    1.407388   0.000000
    23  N    2.480229   1.359482   0.000000
    24  C    2.888680   2.351218   1.358886   0.000000
    25  C    2.501072   2.717569   2.385847   1.409953   0.000000
    26  N    3.654701   4.052540   3.657477   2.462208   1.341406
    27  S    3.797766   4.692546   4.743524   3.807155   2.416474
    28  N    2.463295   3.654589   4.148914   3.666762   2.364874
    29  C    1.403279   2.360323   2.815552   2.511484   1.489565
    30  C    9.151153   9.204199  10.395007  11.555223  11.626988
    31  H   12.732533  12.837436  14.031672  15.188521  15.222722
    32  H   12.178435  11.997334  13.047465  14.310145  14.581631
    33  H   10.003341   9.571493  10.475841  11.794805  12.256245
    34  H    8.287445   8.818334  10.156522  11.065673  10.754565
    35  H    6.509150   7.377317   8.732143   9.395442   8.819528
    36  H    3.033255   4.419126   5.474558   5.534099   4.518180
    37  H    2.182677   1.092666   2.032636   3.278814   3.804216
    38  H    3.964184   3.307139   2.080747   1.077548   2.203559
                   26         27         28         29         30
    26  N    0.000000
    27  S    1.659283   0.000000
    28  N    2.539515   1.649982   0.000000
    29  C    2.362342   2.413259   1.344759   0.000000
    30  C   12.800019  12.597250  10.961240  10.465517   0.000000
    31  H   16.364832  16.056622  14.408344  14.013494   3.637185
    32  H   15.823870  15.782643  14.171749  13.546664   3.403578
    33  H   13.557875  13.759692  12.229807  11.405462   3.352392
    34  H   11.724872  11.138084   9.500643   9.378086   3.140191
    35  H    9.616760   8.811626   7.223136   7.357244   5.408063
    36  H    4.990305   3.988604   2.470959   3.063501   9.132902
    37  H    5.142114   5.753456   4.608068   3.376237   8.365957
    38  H    2.827702   4.396971   4.564816   3.518089  12.466997
                   31         32         33         34         35
    31  H    0.000000
    32  H    2.622018   0.000000
    33  H    5.242263   3.042683   0.000000
    34  H    5.344328   6.281539   6.384263   0.000000
    35  H    8.017956   8.759915   8.242973   2.675104   0.000000
    36  H   12.394066  12.476360  10.927458   7.270309   4.838378
    37  H   12.002058  11.035388   8.533926   8.284082   7.146959
    38  H   16.103839  15.121947  12.513786  12.095942  10.467561
                   36         37         38
    36  H    0.000000
    37  H    4.946574   0.000000
    38  H    6.570928   4.112226   0.000000
 Stoichiometry    C18H11N5S3Si
 Framework group  C1[X(C18H11N5S3Si)]
 Deg. of freedom   108
 Full point group                 C1      NOp   1
 Largest Abelian subgroup         C1      NOp   1
 Largest concise Abelian subgroup C1      NOp   1
                         Standard orientation:                         
 ---------------------------------------------------------------------
 Center     Atomic      Atomic             Coordinates (Angstroms)
 Number     Number       Type             X           Y           Z
 ---------------------------------------------------------------------
      1         14           0        6.338568   -1.380826    0.031170
      2          1           0        6.018239   -2.161099   -1.195026
      3          1           0        5.993059   -2.128179    1.270350
      4          6           0        7.851063   -0.306194    0.038005
      5          6           0        7.531168    1.005857    0.024310
      6          6           0        6.124426    1.272410    0.005592
      7          6           0        5.391806    2.429308   -0.010365
      8         16           0        3.694623    2.075328   -0.027561
      9          6           0        3.964063    0.367267   -0.016570
     10          6           0        2.936126   -0.607763   -0.022677
     11          6           0        2.958091   -1.992393   -0.030651
     12          6           0        1.639613   -2.469027   -0.022581
     13          6           0        0.849045   -1.357672   -0.014667
     14          7           0        1.633100   -0.239999   -0.018408
     15          1           0        1.295627    0.712637   -0.014967
     16          6           0       -0.537491   -1.248957   -0.006564
     17          7           0       -1.356633   -2.272142   -0.008224
     18          6           0       -2.634978   -1.772569   -0.007362
     19          6           0       -2.738862   -0.390911   -0.004133
     20         16           0       -1.195857    0.297263    0.002471
     21          6           0       -3.843546    0.522461   -0.002146
     22          6           0       -3.728590    1.925146   -0.001469
     23          7           0       -4.737979    2.835779    0.007148
     24          6           0       -6.028902    2.411483    0.014919
     25          6           0       -6.293256    1.026537    0.011686
     26          7           0       -7.497153    0.434943    0.016100
     27         16           0       -7.227102   -1.202201    0.008814
     28          7           0       -5.577329   -1.227341    0.001183
     29          6           0       -5.165939    0.052945    0.002846
     30          6           0        5.299278    0.132146    0.003195
     31          1           0        8.823527   -0.765786    0.053187
     32          1           0        8.268020    1.796579    0.027162
     33          1           0        5.719344    3.458079   -0.012659
     34          1           0        3.818145   -2.636473   -0.039173
     35          1           0        1.282566   -3.488970   -0.022881
     36          1           0       -3.450530   -2.485215   -0.009718
     37          1           0       -2.750166    2.411527   -0.007629
     38          1           0       -6.791146    3.173083    0.022588
 ---------------------------------------------------------------------
 Rotational constants (GHZ):      0.5259170      0.0507327      0.0462964
 Standard basis: 6-31++G(d,p) (6D, 7F)
 There are   595 symmetry adapted basis functions of A   symmetry.
 Integral buffers will be    131072 words long.
 Raffenetti 2 integral format.
 Two-electron integral symmetry is turned on.
   595 basis functions,  1048 primitive gaussians,   595 cartesian basis functions
   108 alpha electrons      108 beta electrons
       nuclear repulsion energy      2726.1149946832 Hartrees.
 NAtoms=   38 NActive=   38 NUniq=   38 SFac= 1.00D+00 NAtFMM=   60 NAOKFM=F Big=F
 One-electron integrals computed using PRISM.
 NBasis=   595 RedAO= T  NBF=   595
 NBsUse=   588 1.00D-06 NBFU=   588
 Harris functional with IExCor=  402 diagonalized for initial guess.
 ExpMin= 3.31D-02 ExpMax= 2.19D+04 ExpMxC= 3.30D+03 IAcc=3 IRadAn=         5 AccDes= 0.00D+00
 HarFok:  IExCor=  402 AccDes= 0.00D+00 IRadAn=         5 IDoV= 1
 ScaDFX=  1.000000  1.000000  1.000000  1.000000
 FoFCou: FMM=F IPFlag=           0 FMFlag=      100000 FMFlg1=           0
         NFxFlg=           0 DoJE=T BraDBF=F KetDBF=T FulRan=T
         Omega=  0.000000  0.000000  1.000000  0.000000  0.000000 ICntrl=     500 IOpCl=  0
         NMat0=    1 NMatS0=    1 NMatT0=    0 NMatD0=    1 NMtDS0=    0 NMtDT0=    0
         I1Cent=           4 NGrid=           0.
 Petite list used in FoFCou.
 Initial guess orbital symmetries:
       Occupied  (A) (A) (A) (A) (A) (A) (A) (A) (A) (A) (A) (A)
                 (A) (A) (A) (A) (A) (A) (A) (A) (A) (A) (A) (A)
                 (A) (A) (A) (A) (A) (A) (A) (A) (A) (A) (A) (A)
                 (A) (A) (A) (A) (A) (A) (A) (A) (A) (A) (A) (A)
                 (A) (A) (A) (A) (A) (A) (A) (A) (A) (A) (A) (A)
                 (A) (A) (A) (A) (A) (A) (A) (A) (A) (A) (A) (A)
                 (A) (A) (A) (A) (A) (A) (A) (A) (A) (A) (A) (A)
                 (A) (A) (A) (A) (A) (A) (A) (A) (A) (A) (A) (A)
                 (A) (A) (A) (A) (A) (A) (A) (A) (A) (A) (A) (A)
       Virtual   (A) (A) (A) (A) (A) (A) (A) (A) (A) (A) (A) (A)
                 (A) (A) (A) (A) (A) (A) (A) (A) (A) (A) (A) (A)
                 (A) (A) (A) (A) (A) (A) (A) (A) (A) (A) (A) (A)
                 (A) (A) (A) (A) (A) (A) (A) (A) (A) (A) (A) (A)
                 (A) (A) (A) (A) (A) (A) (A) (A) (A) (A) (A) (A)
                 (A) (A) (A) (A) (A) (A) (A) (A) (A) (A) (A) (A)
                 (A) (A) (A) (A) (A) (A) (A) (A) (A) (A) (A) (A)
                 (A) (A) (A) (A) (A) (A) (A) (A) (A) (A) (A) (A)
                 (A) (A) (A) (A) (A) (A) (A) (A) (A) (A) (A) (A)
                 (A) (A) (A) (A) (A) (A) (A) (A) (A) (A) (A) (A)
                 (A) (A) (A) (A) (A) (A) (A) (A) (A) (A) (A) (A)
                 (A) (A) (A) (A) (A) (A) (A) (A) (A) (A) (A) (A)
                 (A) (A) (A) (A) (A) (A) (A) (A) (A) (A) (A) (A)
                 (A) (A) (A) (A) (A) (A) (A) (A) (A) (A) (A) (A)
                 (A) (A) (A) (A) (A) (A) (A) (A) (A) (A) (A) (A)
                 (A) (A) (A) (A) (A) (A) (A) (A) (A) (A) (A) (A)
                 (A) (A) (A) (A) (A) (A) (A) (A) (A) (A) (A) (A)
                 (A) (A) (A) (A) (A) (A) (A) (A) (A) (A) (A) (A)
                 (A) (A) (A) (A) (A) (A) (A) (A) (A) (A) (A) (A)
                 (A) (A) (A) (A) (A) (A) (A) (A) (A) (A) (A) (A)
                 (A) (A) (A) (A) (A) (A) (A) (A) (A) (A) (A) (A)
                 (A) (A) (A) (A) (A) (A) (A) (A) (A) (A) (A) (A)
                 (A) (A) (A) (A) (A) (A) (A) (A) (A) (A) (A) (A)
                 (A) (A) (A) (A) (A) (A) (A) (A) (A) (A) (A) (A)
                 (A) (A) (A) (A) (A) (A) (A) (A) (A) (A) (A) (A)
                 (A) (A) (A) (A) (A) (A) (A) (A) (A) (A) (A) (A)
                 (A) (A) (A) (A) (A) (A) (A) (A) (A) (A) (A) (A)
                 (A) (A) (A) (A) (A) (A) (A) (A) (A) (A) (A) (A)
                 (A) (A) (A) (A) (A) (A) (A) (A) (A) (A) (A) (A)
                 (A) (A) (A) (A) (A) (A) (A) (A) (A) (A) (A) (A)
                 (A) (A) (A) (A) (A) (A) (A) (A) (A) (A) (A) (A)
                 (A) (A) (A) (A) (A) (A) (A) (A) (A) (A) (A) (A)
                 (A) (A) (A) (A) (A) (A) (A) (A) (A) (A) (A) (A)
                 (A) (A) (A) (A) (A) (A) (A) (A) (A) (A) (A) (A)
                 (A) (A) (A) (A) (A) (A) (A) (A) (A) (A) (A) (A)
                 (A) (A) (A) (A) (A) (A) (A) (A) (A) (A) (A) (A)
                 (A) (A) (A) (A) (A) (A) (A) (A) (A) (A) (A) (A)
                 (A) (A) (A) (A) (A) (A) (A) (A) (A) (A) (A) (A)
                 (A) (A) (A) (A) (A) (A) (A) (A) (A) (A) (A) (A)
                 (A) (A) (A) (A) (A) (A) (A) (A) (A) (A) (A) (A)
 The electronic state of the initial guess is 1-A.
 Requested convergence on RMS density matrix=1.00D-08 within 128 cycles.
 Requested convergence on MAX density matrix=1.00D-06.
 Requested convergence on             energy=1.00D-06.
 No special actions if energy rises.
 SCF Done:  E(RB3LYP) =  -2450.32535317     A.U. after   19 cycles
             Convg  =    0.9023D-08             -V/T =  2.0054

 **********************************************************************

            Population analysis using the SCF density.

 **********************************************************************

 Orbital symmetries:
       Occupied  (A) (A) (A) (A) (A) (A) (A) (A) (A) (A) (A) (A)
                 (A) (A) (A) (A) (A) (A) (A) (A) (A) (A) (A) (A)
                 (A) (A) (A) (A) (A) (A) (A) (A) (A) (A) (A) (A)
                 (A) (A) (A) (A) (A) (A) (A) (A) (A) (A) (A) (A)
                 (A) (A) (A) (A) (A) (A) (A) (A) (A) (A) (A) (A)
                 (A) (A) (A) (A) (A) (A) (A) (A) (A) (A) (A) (A)
                 (A) (A) (A) (A) (A) (A) (A) (A) (A) (A) (A) (A)
                 (A) (A) (A) (A) (A) (A) (A) (A) (A) (A) (A) (A)
                 (A) (A) (A) (A) (A) (A) (A) (A) (A) (A) (A) (A)
       Virtual   (A) (A) (A) (A) (A) (A) (A) (A) (A) (A) (A) (A)
                 (A) (A) (A) (A) (A) (A) (A) (A) (A) (A) (A) (A)
                 (A) (A) (A) (A) (A) (A) (A) (A) (A) (A) (A) (A)
                 (A) (A) (A) (A) (A) (A) (A) (A) (A) (A) (A) (A)
                 (A) (A) (A) (A) (A) (A) (A) (A) (A) (A) (A) (A)
                 (A) (A) (A) (A) (A) (A) (A) (A) (A) (A) (A) (A)
                 (A) (A) (A) (A) (A) (A) (A) (A) (A) (A) (A) (A)
                 (A) (A) (A) (A) (A) (A) (A) (A) (A) (A) (A) (A)
                 (A) (A) (A) (A) (A) (A) (A) (A) (A) (A) (A) (A)
                 (A) (A) (A) (A) (A) (A) (A) (A) (A) (A) (A) (A)
                 (A) (A) (A) (A) (A) (A) (A) (A) (A) (A) (A) (A)
                 (A) (A) (A) (A) (A) (A) (A) (A) (A) (A) (A) (A)
                 (A) (A) (A) (A) (A) (A) (A) (A) (A) (A) (A) (A)
                 (A) (A) (A) (A) (A) (A) (A) (A) (A) (A) (A) (A)
                 (A) (A) (A) (A) (A) (A) (A) (A) (A) (A) (A) (A)
                 (A) (A) (A) (A) (A) (A) (A) (A) (A) (A) (A) (A)
                 (A) (A) (A) (A) (A) (A) (A) (A) (A) (A) (A) (A)
                 (A) (A) (A) (A) (A) (A) (A) (A) (A) (A) (A) (A)
                 (A) (A) (A) (A) (A) (A) (A) (A) (A) (A) (A) (A)
                 (A) (A) (A) (A) (A) (A) (A) (A) (A) (A) (A) (A)
                 (A) (A) (A) (A) (A) (A) (A) (A) (A) (A) (A) (A)
                 (A) (A) (A) (A) (A) (A) (A) (A) (A) (A) (A) (A)
                 (A) (A) (A) (A) (A) (A) (A) (A) (A) (A) (A) (A)
                 (A) (A) (A) (A) (A) (A) (A) (A) (A) (A) (A) (A)
                 (A) (A) (A) (A) (A) (A) (A) (A) (A) (A) (A) (A)
                 (A) (A) (A) (A) (A) (A) (A) (A) (A) (A) (A) (A)
                 (A) (A) (A) (A) (A) (A) (A) (A) (A) (A) (A) (A)
                 (A) (A) (A) (A) (A) (A) (A) (A) (A) (A) (A) (A)
                 (A) (A) (A) (A) (A) (A) (A) (A) (A) (A) (A) (A)
                 (A) (A) (A) (A) (A) (A) (A) (A) (A) (A) (A) (A)
                 (A) (A) (A) (A) (A) (A) (A) (A) (A) (A) (A) (A)
                 (A) (A) (A) (A) (A) (A) (A) (A) (A) (A) (A) (A)
                 (A) (A) (A) (A) (A) (A) (A) (A) (A) (A) (A) (A)
                 (A) (A) (A) (A) (A) (A) (A) (A) (A) (A) (A) (A)
                 (A) (A) (A) (A) (A) (A) (A) (A) (A) (A) (A) (A)
                 (A) (A) (A) (A) (A) (A) (A) (A) (A) (A) (A) (A)
                 (A) (A) (A) (A) (A) (A) (A) (A) (A) (A) (A) (A)
                 (A) (A) (A) (A) (A) (A) (A) (A) (A) (A) (A) (A)
                 (A) (A) (A) (A) (A) (A) (A) (A) (A) (A) (A) (A)
                 (A) (A) (A) (A) (A) (A) (A) (A) (A) (A) (A) (A)
 The electronic state is 1-A.
 Alpha  occ. eigenvalues --  -88.99855 -88.93100 -88.92836 -66.13452 -14.40593
 Alpha  occ. eigenvalues --  -14.39764 -14.39471 -14.36482 -14.34939 -10.26910
 Alpha  occ. eigenvalues --  -10.26637 -10.26492 -10.25297 -10.24828 -10.24728
 Alpha  occ. eigenvalues --  -10.24278 -10.24140 -10.23924 -10.23772 -10.23419
 Alpha  occ. eigenvalues --  -10.23353 -10.22216 -10.21172 -10.19751 -10.19674
 Alpha  occ. eigenvalues --  -10.19359 -10.17924  -8.05131  -7.99475  -7.98839
 Alpha  occ. eigenvalues --   -6.01689  -6.01102  -6.00895  -5.95859  -5.95501
 Alpha  occ. eigenvalues --   -5.95272  -5.95161  -5.94882  -5.94539  -5.28436
 Alpha  occ. eigenvalues --   -3.64348  -3.64245  -3.64229  -1.03527  -1.02656
 Alpha  occ. eigenvalues --   -0.98907  -0.95414  -0.91521  -0.91125  -0.85776
 Alpha  occ. eigenvalues --   -0.83350  -0.82190  -0.80962  -0.80539  -0.78193
 Alpha  occ. eigenvalues --   -0.76101  -0.72573  -0.71437  -0.68997  -0.65662
 Alpha  occ. eigenvalues --   -0.64524  -0.63231  -0.62708  -0.62030  -0.60346
 Alpha  occ. eigenvalues --   -0.58688  -0.57354  -0.55523  -0.54021  -0.53347
 Alpha  occ. eigenvalues --   -0.51901  -0.51390  -0.49609  -0.48725  -0.47704
 Alpha  occ. eigenvalues --   -0.47402  -0.46673  -0.46283  -0.45254  -0.43995
 Alpha  occ. eigenvalues --   -0.43823  -0.43509  -0.42589  -0.41643  -0.41258
 Alpha  occ. eigenvalues --   -0.40656  -0.39868  -0.39661  -0.39638  -0.38769
 Alpha  occ. eigenvalues --   -0.37661  -0.36664  -0.36334  -0.34389  -0.34064
 Alpha  occ. eigenvalues --   -0.33085  -0.32410  -0.31668  -0.30997  -0.30094
 Alpha  occ. eigenvalues --   -0.29851  -0.29485  -0.28264  -0.27750  -0.27498
 Alpha  occ. eigenvalues --   -0.24817  -0.23934  -0.19986
 Alpha virt. eigenvalues --   -0.12104  -0.07520  -0.05756  -0.03779  -0.02910
 Alpha virt. eigenvalues --   -0.02091  -0.01715  -0.01233  -0.01199  -0.00653
 Alpha virt. eigenvalues --   -0.00386   0.00193   0.00654   0.00948   0.01372
 Alpha virt. eigenvalues --    0.01574   0.02013   0.02205   0.02427   0.02851
 Alpha virt. eigenvalues --    0.03112   0.03189   0.03766   0.04147   0.04411
 Alpha virt. eigenvalues --    0.04492   0.04784   0.04982   0.05406   0.05526
 Alpha virt. eigenvalues --    0.06056   0.06190   0.07089   0.07277   0.07870
 Alpha virt. eigenvalues --    0.07966   0.08165   0.08388   0.08579   0.08706
 Alpha virt. eigenvalues --    0.09421   0.09466   0.09764   0.10289   0.10484
 Alpha virt. eigenvalues --    0.10628   0.10686   0.10852   0.11223   0.11593
 Alpha virt. eigenvalues --    0.11661   0.11947   0.11977   0.12291   0.12418
 Alpha virt. eigenvalues --    0.12430   0.12601   0.12679   0.13134   0.13321
 Alpha virt. eigenvalues --    0.13446   0.13534   0.14015   0.14243   0.14429
 Alpha virt. eigenvalues --    0.14634   0.14644   0.14833   0.15465   0.15611
 Alpha virt. eigenvalues --    0.15904   0.16065   0.16130   0.16747   0.17242
 Alpha virt. eigenvalues --    0.17303   0.17800   0.17955   0.18152   0.18212
 Alpha virt. eigenvalues --    0.18448   0.18694   0.19062   0.19362   0.19862
 Alpha virt. eigenvalues --    0.19930   0.20127   0.20541   0.20657   0.20951
 Alpha virt. eigenvalues --    0.21281   0.21537   0.21809   0.22139   0.22325
 Alpha virt. eigenvalues --    0.22470   0.22663   0.23224   0.23292   0.23655
 Alpha virt. eigenvalues --    0.23763   0.24096   0.24251   0.24503   0.24766
 Alpha virt. eigenvalues --    0.25055   0.25533   0.25885   0.25977   0.26060
 Alpha virt. eigenvalues --    0.26460   0.26627   0.26994   0.27205   0.27458
 Alpha virt. eigenvalues --    0.27613   0.27885   0.28166   0.28786   0.28969
 Alpha virt. eigenvalues --    0.29075   0.29311   0.29682   0.29854   0.30248
 Alpha virt. eigenvalues --    0.30466   0.31228   0.31827   0.32296   0.32493
 Alpha virt. eigenvalues --    0.32765   0.33187   0.33331   0.33698   0.34253
 Alpha virt. eigenvalues --    0.34509   0.34578   0.35035   0.35461   0.35871
 Alpha virt. eigenvalues --    0.36010   0.36541   0.37178   0.38036   0.38258
 Alpha virt. eigenvalues --    0.38809   0.39293   0.39418   0.39914   0.40503
 Alpha virt. eigenvalues --    0.40647   0.41294   0.42108   0.42845   0.43439
 Alpha virt. eigenvalues --    0.43705   0.45765   0.46077   0.46636   0.48072
 Alpha virt. eigenvalues --    0.48373   0.48779   0.49536   0.49973   0.50114
 Alpha virt. eigenvalues --    0.51136   0.51353   0.52246   0.54908   0.55368
 Alpha virt. eigenvalues --    0.56728   0.57904   0.58366   0.58419   0.59973
 Alpha virt. eigenvalues --    0.61165   0.62688   0.63317   0.63559   0.64404
 Alpha virt. eigenvalues --    0.64622   0.64854   0.65078   0.65839   0.65912
 Alpha virt. eigenvalues --    0.66094   0.66282   0.66911   0.67986   0.68112
 Alpha virt. eigenvalues --    0.68713   0.69328   0.70387   0.70931   0.71066
 Alpha virt. eigenvalues --    0.71983   0.72546   0.72700   0.72914   0.74589
 Alpha virt. eigenvalues --    0.74768   0.75358   0.75704   0.76216   0.76247
 Alpha virt. eigenvalues --    0.77270   0.77355   0.78008   0.78800   0.79121
 Alpha virt. eigenvalues --    0.79480   0.80184   0.80758   0.82034   0.82720
 Alpha virt. eigenvalues --    0.82876   0.83526   0.85785   0.85981   0.87075
 Alpha virt. eigenvalues --    0.88512   0.88835   0.89233   0.90183   0.91058
 Alpha virt. eigenvalues --    0.91706   0.92962   0.93328   0.94108   0.94431
 Alpha virt. eigenvalues --    0.95265   0.95870   0.96201   0.96403   0.96987
 Alpha virt. eigenvalues --    0.97042   0.97439   0.99125   0.99284   1.00311
 Alpha virt. eigenvalues --    1.00368   1.00619   1.01060   1.02120   1.03399
 Alpha virt. eigenvalues --    1.03756   1.04104   1.04311   1.04511   1.05175
 Alpha virt. eigenvalues --    1.06572   1.07463   1.07700   1.08511   1.10122
 Alpha virt. eigenvalues --    1.11376   1.11620   1.12017   1.12493   1.13046
 Alpha virt. eigenvalues --    1.13618   1.14484   1.14962   1.16546   1.17463
 Alpha virt. eigenvalues --    1.18065   1.18710   1.19264   1.20039   1.20425
 Alpha virt. eigenvalues --    1.20607   1.20897   1.22374   1.22968   1.23380
 Alpha virt. eigenvalues --    1.23414   1.24185   1.24867   1.26615   1.27088
 Alpha virt. eigenvalues --    1.27752   1.28210   1.29081   1.29325   1.30065
 Alpha virt. eigenvalues --    1.31127   1.31459   1.32031   1.32512   1.32906
 Alpha virt. eigenvalues --    1.33007   1.35407   1.35592   1.35805   1.36391
 Alpha virt. eigenvalues --    1.37953   1.38425   1.40216   1.40330   1.40655
 Alpha virt. eigenvalues --    1.41186   1.41836   1.43327   1.44652   1.45782
 Alpha virt. eigenvalues --    1.46537   1.47670   1.49960   1.51058   1.52731
 Alpha virt. eigenvalues --    1.54244   1.55838   1.57887   1.60781   1.62039
 Alpha virt. eigenvalues --    1.63152   1.64536   1.66292   1.66515   1.67653
 Alpha virt. eigenvalues --    1.68151   1.69261   1.71210   1.74126   1.75118
 Alpha virt. eigenvalues --    1.76214   1.79194   1.79864   1.80942   1.82547
 Alpha virt. eigenvalues --    1.82831   1.83869   1.84880   1.86151   1.86518
 Alpha virt. eigenvalues --    1.87015   1.87580   1.89779   1.90248   1.91893
 Alpha virt. eigenvalues --    1.92297   1.92776   1.93213   1.95252   1.96675
 Alpha virt. eigenvalues --    1.98076   1.98388   1.99710   2.01760   2.02376
 Alpha virt. eigenvalues --    2.04083   2.05815   2.06667   2.08157   2.08635
 Alpha virt. eigenvalues --    2.08889   2.10466   2.11341   2.12321   2.14167
 Alpha virt. eigenvalues --    2.15124   2.16632   2.17934   2.19206   2.19624
 Alpha virt. eigenvalues --    2.20635   2.21266   2.22356   2.22691   2.23909
 Alpha virt. eigenvalues --    2.24545   2.24685   2.28497   2.28557   2.29167
 Alpha virt. eigenvalues --    2.30170   2.30684   2.32281   2.33235   2.33979
 Alpha virt. eigenvalues --    2.34364   2.35888   2.37249   2.38979   2.38997
 Alpha virt. eigenvalues --    2.40247   2.40977   2.41772   2.42526   2.42757
 Alpha virt. eigenvalues --    2.43123   2.43892   2.44688   2.45322   2.45398
 Alpha virt. eigenvalues --    2.49154   2.49533   2.51011   2.55115   2.55888
 Alpha virt. eigenvalues --    2.57351   2.57786   2.57888   2.59699   2.59873
 Alpha virt. eigenvalues --    2.60740   2.60990   2.62661   2.63697   2.63949
 Alpha virt. eigenvalues --    2.64191   2.66598   2.68402   2.68557   2.69230
 Alpha virt. eigenvalues --    2.69701   2.72016   2.73388   2.73464   2.74190
 Alpha virt. eigenvalues --    2.74960   2.76171   2.79817   2.80752   2.82004
 Alpha virt. eigenvalues --    2.83686   2.85030   2.87078   2.91260   2.93992
 Alpha virt. eigenvalues --    2.95399   2.96948   2.97971   3.01110   3.03539
 Alpha virt. eigenvalues --    3.06523   3.08710   3.09505   3.12753   3.13636
 Alpha virt. eigenvalues --    3.14822   3.21725   3.26452   3.29238   3.33102
 Alpha virt. eigenvalues --    3.35149   3.38902   3.44475   3.51195   3.54940
 Alpha virt. eigenvalues --    3.63873   3.65374   3.68028   3.76487   3.94233
 Alpha virt. eigenvalues --    3.99512   4.00779   4.10987   4.19065   4.27872
 Alpha virt. eigenvalues --    4.30565   4.31192   4.32842   4.32887   4.33068
 Alpha virt. eigenvalues --    4.37469   4.38006   4.39741   4.45174   4.45749
 Alpha virt. eigenvalues --    4.49158   4.53702   4.55049   4.56586   4.58472
 Alpha virt. eigenvalues --    4.62055   4.72483   4.78354   4.80643   4.83260
          Condensed to atoms (all electrons):
              1          2          3          4          5          6
     1  Si  12.461105   0.357315   0.356483   0.188987   0.189509  -0.151831
     2  H    0.357315   0.804262  -0.047344  -0.004520  -0.056018  -0.065636
     3  H    0.356483  -0.047344   0.797706  -0.011016  -0.040953  -0.067997
     4  C    0.188987  -0.004520  -0.011016   6.041744   0.475763  -0.044134
     5  C    0.189509  -0.056018  -0.040953   0.475763  11.871791   0.562661
     6  C   -0.151831  -0.065636  -0.067997  -0.044134   0.562661  20.142844
     7  C    0.159045   0.014656   0.014279  -0.471591   0.019105  -9.092197
     8  S   -0.020023   0.002283   0.003157   0.065324   0.419722   1.950750
     9  C   -0.218942   0.101192   0.085386  -0.000910  -3.355246  -5.124910
    10  C    0.004169   0.004699  -0.020039   0.121305  -0.711041  -2.373635
    11  C    0.096335   0.028110   0.038626  -0.044824  -0.313265  -1.128193
    12  C    0.024387  -0.001769   0.003089  -0.012079  -0.054264  -0.123322
    13  C   -0.002907   0.002561  -0.002797   0.012959  -0.018919   0.398895
    14  N    0.011345  -0.001273  -0.001256   0.009550  -0.028704  -0.022062
    15  H    0.018463  -0.000478  -0.001398  -0.013195   0.003530  -0.180606
    16  C    0.018696  -0.001073  -0.001168   0.003082  -0.010046  -0.114123
    17  N    0.000255  -0.000040  -0.000029   0.000052  -0.000109   0.000303
    18  C    0.001567  -0.000054  -0.000079  -0.000098  -0.000089  -0.009600
    19  C    0.005089  -0.000407  -0.000436   0.000611  -0.001814  -0.008336
    20  S   -0.001865  -0.000379  -0.000036   0.002220  -0.001767   0.039040
    21  C   -0.000278   0.000020   0.000025  -0.000026   0.000097   0.000549
    22  C    0.000066  -0.000002   0.000002   0.000011  -0.000050  -0.000194
    23  N   -0.000002   0.000000   0.000000   0.000000   0.000000   0.000013
    24  C    0.000002   0.000000   0.000000   0.000000  -0.000000  -0.000005
    25  C   -0.000005   0.000000   0.000000  -0.000000   0.000000   0.000008
    26  N    0.000000  -0.000000  -0.000000   0.000000  -0.000000  -0.000000
    27  S    0.000000  -0.000000  -0.000000   0.000000  -0.000000  -0.000001
    28  N    0.000001  -0.000000  -0.000000  -0.000000  -0.000000  -0.000002
    29  C    0.000084  -0.000001  -0.000003   0.000002  -0.000008  -0.000148
    30  C   -0.244907  -0.027148  -0.001918  -0.158926  -3.244722   1.569283
    31  H   -0.041166   0.000128  -0.000107   0.357792  -0.096374   0.082095
    32  H    0.016193  -0.000397  -0.000259  -0.105924   0.227181   0.208986
    33  H   -0.007818   0.000200   0.000154  -0.000510  -0.215080  -0.204278
    34  H    0.013072  -0.008702  -0.003845   0.000651   0.009941   0.055226
    35  H    0.001934   0.000165   0.000002  -0.000338   0.000397   0.003764
    36  H    0.000035   0.000000  -0.000002  -0.000003   0.000002  -0.000098
    37  H   -0.000119   0.000005   0.000007   0.000010   0.000009   0.001447
    38  H   -0.000000   0.000000   0.000000  -0.000000  -0.000000  -0.000000
              7          8          9         10         11         12
     1  Si   0.159045  -0.020023  -0.218942   0.004169   0.096335   0.024387
     2  H    0.014656   0.002283   0.101192   0.004699   0.028110  -0.001769
     3  H    0.014279   0.003157   0.085386  -0.020039   0.038626   0.003089
     4  C   -0.471591   0.065324  -0.000910   0.121305  -0.044824  -0.012079
     5  C    0.019105   0.419722  -3.355246  -0.711041  -0.313265  -0.054264
     6  C   -9.092197   1.950750  -5.124910  -2.373635  -1.128193  -0.123322
     7  C   14.180988  -1.483713   1.886722   1.411906   0.422045   0.125156
     8  S   -1.483713  17.212587  -1.622344  -0.887661   0.201989   0.300637
     9  C    1.886722  -1.622344  13.207753   1.576351  -1.185803  -0.986199
    10  C    1.411906  -0.887661   1.576351  12.762644  -0.179116  -3.792078
    11  C    0.422045   0.201989  -1.185803  -0.179116   9.429426   0.552474
    12  C    0.125156   0.300637  -0.986199  -3.792078   0.552474  10.288355
    13  C   -0.067871   0.058913   0.242653  -1.157885  -1.940472   0.446195
    14  N   -0.072110  -0.016388  -0.058252  -0.076387  -0.114307  -0.222704
    15  H    0.099959  -0.303053   0.357619   0.291795  -0.111204  -0.335360
    16  C    0.008388  -0.136203   0.242795   0.839790  -0.209548  -0.404819
    17  N   -0.000087   0.002372  -0.000338  -0.071913   0.096133  -0.005303
    18  C    0.000817   0.004101  -0.061313   0.482871  -0.097895  -0.260577
    19  C   -0.000599   0.039329  -0.226595  -0.767718   0.628074   0.043125
    20  S   -0.009749   0.160537  -0.302080  -0.628171   0.231001   0.445538
    21  C   -0.000339  -0.013259   0.030432   0.026762  -0.047556   0.005043
    22  C    0.000317   0.016607  -0.026335   0.032197  -0.019410   0.031836
    23  N   -0.000014   0.000152   0.000064   0.000034  -0.000135   0.000693
    24  C    0.000001   0.000349  -0.000595   0.003169   0.000595  -0.005730
    25  C   -0.000011  -0.000498   0.000663   0.000259   0.001718  -0.001380
    26  N    0.000000   0.000001  -0.000004  -0.000068   0.000004   0.000034
    27  S    0.000000   0.000002  -0.000017  -0.000239  -0.000147   0.000376
    28  N    0.000002  -0.000010  -0.000069  -0.001070  -0.000293   0.000365
    29  C   -0.000055  -0.000475  -0.004163  -0.000135   0.018181  -0.012580
    30  C   -1.197531   0.023073   1.880890  -0.881988  -0.480862  -0.564767
    31  H   -0.076789   0.002077   0.026244   0.007686  -0.002737  -0.001572
    32  H   -0.205529   0.008421   0.018675  -0.008398  -0.004202  -0.001796
    33  H    0.477371  -0.082702   0.165286   0.033440   0.011237   0.001593
    34  H   -0.023638   0.033096  -0.253407  -0.452222   0.579792   0.207758
    35  H    0.001459   0.001676   0.006840  -0.049462  -0.130827   0.450895
    36  H    0.000024  -0.000008   0.000324   0.014585  -0.004310  -0.010255
    37  H   -0.001274   0.007950  -0.006449   0.009182  -0.004018   0.009781
    38  H    0.000001   0.000009  -0.000014   0.000075  -0.000003  -0.000095
             13         14         15         16         17         18
     1  Si  -0.002907   0.011345   0.018463   0.018696   0.000255   0.001567
     2  H    0.002561  -0.001273  -0.000478  -0.001073  -0.000040  -0.000054
     3  H   -0.002797  -0.001256  -0.001398  -0.001168  -0.000029  -0.000079
     4  C    0.012959   0.009550  -0.013195   0.003082   0.000052  -0.000098
     5  C   -0.018919  -0.028704   0.003530  -0.010046  -0.000109  -0.000089
     6  C    0.398895  -0.022062  -0.180606  -0.114123   0.000303  -0.009600
     7  C   -0.067871  -0.072110   0.099959   0.008388  -0.000087   0.000817
     8  S    0.058913  -0.016388  -0.303053  -0.136203   0.002372   0.004101
     9  C    0.242653  -0.058252   0.357619   0.242795  -0.000338  -0.061313
    10  C   -1.157885  -0.076387   0.291795   0.839790  -0.071913   0.482871
    11  C   -1.940472  -0.114307  -0.111204  -0.209548   0.096133  -0.097895
    12  C    0.446195  -0.222704  -0.335360  -0.404819  -0.005303  -0.260577
    13  C    9.872207  -0.028268  -0.064115  -0.849719  -0.302134   0.486600
    14  N   -0.028268   7.187827   0.324681   0.128892   0.016284  -0.116752
    15  H   -0.064115   0.324681   0.759709   0.355890  -0.025647   0.142964
    16  C   -0.849719   0.128892   0.355890  14.115869  -0.068361   0.356639
    17  N   -0.302134   0.016284  -0.025647  -0.068361   7.166078  -0.749589
    18  C    0.486600  -0.116752   0.142964   0.356639  -0.749589  12.555988
    19  C   -0.365432  -0.021800  -0.158599  -6.783505   1.100926  -5.988624
    20  S   -0.555243   0.079774  -0.457454  -1.086623   0.155829  -2.717669
    21  C   -0.023883   0.020587   0.026324   0.775295  -0.036165  -1.664953
    22  C   -0.142926  -0.004900  -0.087407  -0.364184  -0.020637   1.754531
    23  N    0.000986  -0.000152  -0.000636   0.023694   0.000654   0.000344
    24  C   -0.007712  -0.000234  -0.002589  -0.198253  -0.000782  -0.027637
    25  C    0.021940   0.001136   0.004966   0.003876   0.012649  -0.219633
    26  N   -0.000577  -0.000009  -0.000031  -0.010301  -0.000198   0.004176
    27  S   -0.001437  -0.000012   0.000381   0.011973  -0.004508   0.038551
    28  N   -0.004594  -0.000231   0.000433  -0.002334  -0.011653   0.245578
    29  C    0.025611  -0.002967   0.022058  -0.634114   0.029352   1.122300
    30  C   -0.094015   0.041586  -0.049542  -0.050289  -0.000528  -0.013736
    31  H    0.000491   0.000531  -0.000219   0.000283   0.000002   0.000002
    32  H   -0.000614   0.000257   0.000495   0.000149  -0.000001   0.000008
    33  H   -0.003216  -0.000052   0.002213   0.000780  -0.000002   0.000052
    34  H   -0.141727   0.060934  -0.016889   0.025599   0.003053  -0.003064
    35  H   -0.025531   0.030023  -0.001583   0.020133  -0.023373  -0.013231
    36  H    0.017717  -0.001005   0.001347   0.144152  -0.118314   0.638100
    37  H   -0.014740  -0.002141  -0.030546   0.001232  -0.001515   0.093757
    38  H   -0.000425   0.000008  -0.000024  -0.003492   0.000025   0.002515
             19         20         21         22         23         24
     1  Si   0.005089  -0.001865  -0.000278   0.000066  -0.000002   0.000002
     2  H   -0.000407  -0.000379   0.000020  -0.000002   0.000000   0.000000
     3  H   -0.000436  -0.000036   0.000025   0.000002   0.000000   0.000000
     4  C    0.000611   0.002220  -0.000026   0.000011   0.000000   0.000000
     5  C   -0.001814  -0.001767   0.000097  -0.000050   0.000000  -0.000000
     6  C   -0.008336   0.039040   0.000549  -0.000194   0.000013  -0.000005
     7  C   -0.000599  -0.009749  -0.000339   0.000317  -0.000014   0.000001
     8  S    0.039329   0.160537  -0.013259   0.016607   0.000152   0.000349
     9  C   -0.226595  -0.302080   0.030432  -0.026335   0.000064  -0.000595
    10  C   -0.767718  -0.628171   0.026762   0.032197   0.000034   0.003169
    11  C    0.628074   0.231001  -0.047556  -0.019410  -0.000135   0.000595
    12  C    0.043125   0.445538   0.005043   0.031836   0.000693  -0.005730
    13  C   -0.365432  -0.555243  -0.023883  -0.142926   0.000986  -0.007712
    14  N   -0.021800   0.079774   0.020587  -0.004900  -0.000152  -0.000234
    15  H   -0.158599  -0.457454   0.026324  -0.087407  -0.000636  -0.002589
    16  C   -6.783505  -1.086623   0.775295  -0.364184   0.023694  -0.198253
    17  N    1.100926   0.155829  -0.036165  -0.020637   0.000654  -0.000782
    18  C   -5.988624  -2.717669  -1.664953   1.754531   0.000344  -0.027637
    19  C   20.308515   2.305904   2.446058  -3.453265   0.040548  -0.171276
    20  S    2.305904  19.408127   1.089811  -1.417546   0.052002  -0.239288
    21  C    2.446058   1.089811  17.149982  -8.697004   0.807561   0.572620
    22  C   -3.453265  -1.417546  -8.697004  14.998570  -0.323840  -0.566850
    23  N    0.040548   0.052002   0.807561  -0.323840   6.755271   0.031575
    24  C   -0.171276  -0.239288   0.572620  -0.566850   0.031575  11.452794
    25  C   -0.806073   0.136792  -2.278822   0.039506   0.210253  -2.664131
    26  N    0.009236  -0.009325   0.129891   0.034759  -0.001435  -0.469290
    27  S   -0.065171   0.007326  -0.050460   0.007316  -0.002418   0.005460
    28  N   -0.371474  -0.022979  -0.327525   0.257645   0.001355   0.021621
    29  C   -0.814461  -0.514146  -2.708286   2.778314  -0.172150  -2.155299
    30  C   -0.008028   0.003641   0.001828  -0.002342   0.000007   0.000015
    31  H    0.000020   0.000029  -0.000001   0.000000   0.000000   0.000000
    32  H   -0.000006  -0.000105   0.000001  -0.000000   0.000000   0.000000
    33  H   -0.000020  -0.000294   0.000001   0.000005  -0.000001  -0.000000
    34  H    0.035757   0.022057  -0.002270  -0.000487  -0.000003   0.000017
    35  H   -0.037890   0.016312   0.004823   0.004313   0.000009  -0.000113
    36  H   -0.467694  -0.008016  -0.057994   0.012188   0.000087  -0.002420
    37  H   -0.288405  -0.118444  -0.966622   1.284962  -0.204081   0.040956
    38  H   -0.014345  -0.010091  -0.024750   0.014066  -0.121573   0.739044
             25         26         27         28         29         30
     1  Si  -0.000005   0.000000   0.000000   0.000001   0.000084  -0.244907
     2  H    0.000000  -0.000000  -0.000000  -0.000000  -0.000001  -0.027148
     3  H    0.000000  -0.000000  -0.000000  -0.000000  -0.000003  -0.001918
     4  C   -0.000000   0.000000   0.000000  -0.000000   0.000002  -0.158926
     5  C    0.000000  -0.000000  -0.000000  -0.000000  -0.000008  -3.244722
     6  C    0.000008  -0.000000  -0.000001  -0.000002  -0.000148   1.569283
     7  C   -0.000011   0.000000   0.000000   0.000002  -0.000055  -1.197531
     8  S   -0.000498   0.000001   0.000002  -0.000010  -0.000475   0.023073
     9  C    0.000663  -0.000004  -0.000017  -0.000069  -0.004163   1.880890
    10  C    0.000259  -0.000068  -0.000239  -0.001070  -0.000135  -0.881988
    11  C    0.001718   0.000004  -0.000147  -0.000293   0.018181  -0.480862
    12  C   -0.001380   0.000034   0.000376   0.000365  -0.012580  -0.564767
    13  C    0.021940  -0.000577  -0.001437  -0.004594   0.025611  -0.094015
    14  N    0.001136  -0.000009  -0.000012  -0.000231  -0.002967   0.041586
    15  H    0.004966  -0.000031   0.000381   0.000433   0.022058  -0.049542
    16  C    0.003876  -0.010301   0.011973  -0.002334  -0.634114  -0.050289
    17  N    0.012649  -0.000198  -0.004508  -0.011653   0.029352  -0.000528
    18  C   -0.219633   0.004176   0.038551   0.245578   1.122300  -0.013736
    19  C   -0.806073   0.009236  -0.065171  -0.371474  -0.814461  -0.008028
    20  S    0.136792  -0.009325   0.007326  -0.022979  -0.514146   0.003641
    21  C   -2.278822   0.129891  -0.050460  -0.327525  -2.708286   0.001828
    22  C    0.039506   0.034759   0.007316   0.257645   2.778314  -0.002342
    23  N    0.210253  -0.001435  -0.002418   0.001355  -0.172150   0.000007
    24  C   -2.664131  -0.469290   0.005460   0.021621  -2.155299   0.000015
    25  C   14.756764   0.016087  -0.095166   0.219302  -3.229793   0.000044
    26  N    0.016087   7.377299   0.022955  -0.133888   0.437244  -0.000000
    27  S   -0.095166   0.022955  15.553526  -0.092647  -0.182049  -0.000004
    28  N    0.219302  -0.133888  -0.092647   7.807845  -0.110967  -0.000009
    29  C   -3.229793   0.437244  -0.182049  -0.110967  11.909703  -0.000214
    30  C    0.000044  -0.000000  -0.000004  -0.000009  -0.000214   9.862017
    31  H   -0.000000   0.000000   0.000000  -0.000000   0.000000   0.044064
    32  H    0.000000  -0.000000  -0.000000  -0.000000   0.000000   0.076185
    33  H   -0.000000   0.000000   0.000000   0.000000  -0.000002   0.116757
    34  H    0.000057   0.000000  -0.000002   0.000002   0.000625   0.037718
    35  H   -0.000538   0.000003   0.000043   0.000014  -0.002130  -0.011068
    36  H   -0.005387  -0.000491  -0.004576  -0.005904   0.013157  -0.000194
    37  H   -0.000617   0.000922  -0.001124   0.003298   0.145408  -0.000245
    38  H   -0.414901  -0.003100  -0.001583  -0.006853   0.019823  -0.000000
             31         32         33         34         35         36
     1  Si  -0.041166   0.016193  -0.007818   0.013072   0.001934   0.000035
     2  H    0.000128  -0.000397   0.000200  -0.008702   0.000165   0.000000
     3  H   -0.000107  -0.000259   0.000154  -0.003845   0.000002  -0.000002
     4  C    0.357792  -0.105924  -0.000510   0.000651  -0.000338  -0.000003
     5  C   -0.096374   0.227181  -0.215080   0.009941   0.000397   0.000002
     6  C    0.082095   0.208986  -0.204278   0.055226   0.003764  -0.000098
     7  C   -0.076789  -0.205529   0.477371  -0.023638   0.001459   0.000024
     8  S    0.002077   0.008421  -0.082702   0.033096   0.001676  -0.000008
     9  C    0.026244   0.018675   0.165286  -0.253407   0.006840   0.000324
    10  C    0.007686  -0.008398   0.033440  -0.452222  -0.049462   0.014585
    11  C   -0.002737  -0.004202   0.011237   0.579792  -0.130827  -0.004310
    12  C   -0.001572  -0.001796   0.001593   0.207758   0.450895  -0.010255
    13  C    0.000491  -0.000614  -0.003216  -0.141727  -0.025531   0.017717
    14  N    0.000531   0.000257  -0.000052   0.060934   0.030023  -0.001005
    15  H   -0.000219   0.000495   0.002213  -0.016889  -0.001583   0.001347
    16  C    0.000283   0.000149   0.000780   0.025599   0.020133   0.144152
    17  N    0.000002  -0.000001  -0.000002   0.003053  -0.023373  -0.118314
    18  C    0.000002   0.000008   0.000052  -0.003064  -0.013231   0.638100
    19  C    0.000020  -0.000006  -0.000020   0.035757  -0.037890  -0.467694
    20  S    0.000029  -0.000105  -0.000294   0.022057   0.016312  -0.008016
    21  C   -0.000001   0.000001   0.000001  -0.002270   0.004823  -0.057994
    22  C    0.000000  -0.000000   0.000005  -0.000487   0.004313   0.012188
    23  N    0.000000   0.000000  -0.000001  -0.000003   0.000009   0.000087
    24  C    0.000000   0.000000  -0.000000   0.000017  -0.000113  -0.002420
    25  C   -0.000000   0.000000  -0.000000   0.000057  -0.000538  -0.005387
    26  N    0.000000  -0.000000   0.000000   0.000000   0.000003  -0.000491
    27  S    0.000000  -0.000000   0.000000  -0.000002   0.000043  -0.004576
    28  N   -0.000000  -0.000000   0.000000   0.000002   0.000014  -0.005904
    29  C    0.000000   0.000000  -0.000002   0.000625  -0.002130   0.013157
    30  C    0.044064   0.076185   0.116757   0.037718  -0.011068  -0.000194
    31  H    0.546205  -0.009507   0.000616  -0.001333  -0.000028  -0.000000
    32  H   -0.009507   0.666636  -0.003007   0.000162  -0.000030   0.000000
    33  H    0.000616  -0.003007   0.542779  -0.000526   0.000010   0.000001
    34  H   -0.001333   0.000162  -0.000526   0.784173  -0.021578  -0.000436
    35  H   -0.000028  -0.000030   0.000010  -0.021578   0.590012  -0.000039
    36  H   -0.000000   0.000000   0.000001  -0.000436  -0.000039   0.610765
    37  H    0.000000   0.000001  -0.000056  -0.000016   0.000420   0.001571
    38  H    0.000000   0.000000   0.000000  -0.000000  -0.000001   0.000074
             37         38
     1  Si  -0.000119  -0.000000
     2  H    0.000005   0.000000
     3  H    0.000007   0.000000
     4  C    0.000010  -0.000000
     5  C    0.000009  -0.000000
     6  C    0.001447  -0.000000
     7  C   -0.001274   0.000001
     8  S    0.007950   0.000009
     9  C   -0.006449  -0.000014
    10  C    0.009182   0.000075
    11  C   -0.004018  -0.000003
    12  C    0.009781  -0.000095
    13  C   -0.014740  -0.000425
    14  N   -0.002141   0.000008
    15  H   -0.030546  -0.000024
    16  C    0.001232  -0.003492
    17  N   -0.001515   0.000025
    18  C    0.093757   0.002515
    19  C   -0.288405  -0.014345
    20  S   -0.118444  -0.010091
    21  C   -0.966622  -0.024750
    22  C    1.284962   0.014066
    23  N   -0.204081  -0.121573
    24  C    0.040956   0.739044
    25  C   -0.000617  -0.414901
    26  N    0.000922  -0.003100
    27  S   -0.001124  -0.001583
    28  N    0.003298  -0.006853
    29  C    0.145408   0.019823
    30  C   -0.000245  -0.000000
    31  H    0.000000   0.000000
    32  H    0.000001   0.000000
    33  H   -0.000056   0.000000
    34  H   -0.000016  -0.000000
    35  H    0.000420  -0.000001
    36  H    0.001571   0.000074
    37  H    0.826991   0.006557
    38  H    0.006557   0.633455
 Mulliken atomic charges:
              1
     1  Si   0.765728
     2  H   -0.100355
     3  H   -0.098236
     4  C   -0.411971
     5  C    0.368763
     6  C   -0.304557
     7  C   -0.119145
     8  S    0.051224
     9  C   -0.395903
    10  C    0.436309
    11  C   -0.316610
    12  C   -0.140683
[...]
 07633,0.00001454,-0.00010995,-0.00013027,-0.00001313,0.00009933,-0.000
 04739,0.00002451,-0.00002279,0.00003743,-0.00000421,0.00000669,-0.0000
 0311,0.00000294,-0.00002074,-0.00000690,-0.00000205,-0.00001680,0.0000
 0151,-0.00000192,-0.00002516,0.00000741,-0.00000266,0.00001026,-0.0000
 1849,0.00000120,-0.00000100,-0.00000295,0.00000152,-0.00001287,0.00000
 737,-0.00000773,-0.00001257,-0.00009805,-0.00001265,-0.00000296,-0.000
 05021,0.00000482,0.00000491,-0.00000571,0.00000595,0.00002268,0.000006
 30,-0.00002651,0.36097461,-0.00067165,-0.00110813,0.00097892,0.0001680
 7,0.00017151,-0.00015049,0.00007268,0.00008195,-0.00014804,-0.00009000
 ,0.00002108,-0.00014001,0.00010325,0.00007827,-0.00000844,-0.00025009,
 -0.00019628,-0.00013257,0.00000018,0.00018029,0.00000809,-0.00008828,0
 .00007837,-0.00005709,0.00004641,0.00111498,-0.00033268,0.02473860,0.0
 0406122,0.00330654,0.03985404,-0.06396726,0.00786617,-0.02041229,0.010
 41597,-0.00350240,-0.00377081,-0.00416008,0.00024690,0.00281618,-0.005
 51218,0.00106276,0.00125590,0.00073405,0.00008402,-0.00036670,0.001129
 81,0.00002037,0.00003591,-0.00005434,0.00000460,0.00004248,0.00004176,
 0.00000655,-0.00021957,0.00003924,-0.00003535,-0.00030329,-0.00012770,
 -0.00003352,0.00005819,-0.00003985,0.00000423,-0.00001658,0.00002352,-
 0.00000288,0.00000572,-0.00000501,-0.00000074,-0.00001405,-0.00000163,
 -0.00000091,-0.00000976,-0.00000149,-0.00000126,-0.00001204,0.00000438
 ,-0.00000135,0.00000025,-0.00001375,0.00000035,0.00000414,0.00000006,0
 .00000039,-0.00001003,0.00000472,0.00000041,-0.00008552,0.00014559,0.0
 0003199,0.00000885,0.00006338,-0.00000257,-0.00000576,0.00002730,0.000
 04283,-0.00002241,0.00000521,0.00004721,-0.04398961,0.05640076,0.00053
 623,0.00146465,0.00041526,-0.00029420,-0.00033964,-0.00005828,-0.00003
 497,-0.00016672,-0.00011621,0.00007969,-0.00000276,-0.00018870,-0.0001
 4794,-0.00010207,0.00004891,0.00006414,0.00002968,-0.00031901,0.000041
 29,0.00000621,-0.00005432,0.00014950,-0.00020956,-0.00014603,0.0005297
 9,0.00033560,-0.00247801,-0.00183947,-0.00144964,-0.00078755,-0.049787
 58,0.00824337,-0.03550497,0.00123383,0.00043738,0.00070048,-0.00074059
 ,0.00109092,0.00418143,-0.00111338,0.00003160,0.00377076,-0.00010641,0
 .00012631,0.00214987,-0.00000617,0.00010008,0.00115180,-0.00002801,-0.
 00005405,0.00001711,0.00001592,-0.00000085,0.00003152,-0.00001175,0.00
 000433,-0.00020548,0.00001283,-0.00000062,0.00001004,0.00004144,-0.000
 01071,-0.00008516,-0.00001071,0.00001050,0.00000617,0.00000755,0.00000
 059,-0.00001285,-0.00000631,-0.00000369,-0.00000080,-0.00000381,0.0000
 0182,0.00000541,-0.00000484,0.00000210,-0.00000114,0.00000230,-0.00000
 511,0.00000222,0.00000020,0.00000164,-0.00000800,-0.00000648,0.0000000
 8,0.00003363,-0.00013141,-0.00008679,0.00012079,-0.00001551,-0.0000593
 8,0.00000255,0.00004804,-0.00003981,0.00002607,0.00004045,-0.00003285,
 0.00012768,0.05120571,-0.00908465,0.02984747,0.00016010,-0.00015413,-0
 .00001737,-0.00002381,0.00005261,-0.00001044,-0.00002631,0.00003808,0.
 00001211,-0.00005258,0.00002846,0.00001053,0.00004330,0.00000299,-0.00
 002154,0.00002183,0.00000239,0.00000267,0.00004375,-0.00019821,0.00001
 242,-0.00012965,-0.00024235,0.00003483,0.00102068,-0.00044619,-0.00001
 959,-0.00422105,-0.00351347,-0.00076715,0.00990834,-0.02019076,0.00268
 200,-0.06200249,0.03516318,-0.00605527,0.00446144,0.02484033,-0.001426
 77,-0.00531759,0.00295472,-0.00140554,0.00075920,0.00122636,-0.0001216
 0,0.00092820,0.00064944,0.00040276,0.00018753,-0.00014394,-0.00001168,
 -0.00038370,-0.00044194,0.00003327,0.00030843,-0.00011048,0.00003741,0
 .00018563,-0.00012912,0.00004002,-0.00008457,-0.00006234,-0.00003841,0
 .00005066,-0.00002591,0.00000816,-0.00000413,-0.00000674,0.00000558,0.
 00001684,0.00001265,0.00000078,0.00001531,-0.00000807,0.00000148,0.000
 03527,-0.00000727,0.00000478,-0.00003008,-0.00000243,-0.00000428,0.000
 01879,0.00001377,0.00000447,0.00000239,0.00001229,0.00000173,-0.000015
 01,0.00004326,-0.00002897,-0.00000190,-0.00000286,0.00000101,-0.000006
 41,0.00000030,0.00000508,-0.00004231,-0.00001137,-0.00001347,0.0004067
 0,0.00113505,0.00028081,0.05378030,0.00012111,-0.00007257,-0.00003542,
 -0.00002441,0.00001972,0.00000263,-0.00001882,0.00002378,0.00001296,-0
 .00004462,0.00001779,0.00001331,0.00003551,0.00000328,-0.00001563,0.00
 000130,-0.00002998,0.00001541,0.00001196,-0.00008754,-0.00003297,-0.00
 010252,-0.00005582,0.00009177,0.00042676,-0.00017850,0.00006338,-0.002
 01392,-0.00125009,0.00013250,0.00600225,-0.00857198,0.00148106,0.03865
 797,-0.35462021,0.02913410,-0.00215901,-0.00524272,0.00021348,0.000840
 38,0.00044524,0.00050975,-0.00024719,-0.00000042,0.00002992,-0.0002262
 9,-0.00084396,-0.00020252,-0.00055867,0.00010661,-0.00006448,0.0000152
 6,0.00027836,-0.00002667,-0.00011553,-0.00008689,-0.00001574,0.0001284
 3,-0.00000711,0.00000277,0.00004770,0.00003573,0.00001699,-0.00001746,
 -0.00000439,-0.00000231,-0.00000089,-0.00000476,-0.00000208,-0.0000100
 2,0.00000543,-0.00000122,-0.00000506,0.00000155,-0.00000080,-0.0000089
 0,0.00000270,-0.00000194,0.00000147,-0.00000278,0.00000082,0.00000349,
 -0.00000671,-0.00000051,0.00000044,0.00000898,0.00000153,-0.00001552,-
 0.00000083,-0.00001411,-0.00000343,-0.00000372,0.00000102,-0.00000579,
 -0.00000318,0.00000278,-0.00002799,-0.00000389,-0.00001471,-0.00016667
 ,0.00037457,-0.00023505,-0.04050272,0.36975605,0.00002974,0.00003948,0
 .00010466,-0.00001156,-0.00000466,-0.00001832,-0.00001913,-0.00001147,
 -0.00002166,0.00000660,-0.00000138,-0.00003722,0.00000851,-0.00001568,
 -0.00001240,0.00002311,-0.00002385,0.00002279,-0.00014389,0.00001133,-
 0.00003432,0.00015963,0.00002284,-0.00007992,0.00004724,0.00019626,0.0
 0091055,-0.00114979,-0.00018574,0.00426273,0.00047565,-0.00169406,0.00
 138430,-0.00674085,0.02889649,-0.03329522,0.00117420,0.00307845,0.0004
 4740,-0.00069181,0.00091814,0.00349433,-0.00029757,0.00016277,0.002235
 94,0.00024009,-0.00018428,-0.00270515,0.00004405,0.00011214,0.00024564
 ,-0.00003797,-0.00009853,-0.00033530,0.00008344,-0.00001427,-0.0000320
 2,0.00007174,-0.00007316,-0.00012103,-0.00005619,0.00000051,0.00020128
 ,0.00001661,-0.00001334,-0.00000717,-0.00000367,-0.00000466,-0.0000291
 2,0.00000653,0.00000528,0.00000100,0.00000459,-0.00000168,0.00000152,0
 .00000864,-0.00000337,-0.00000811,-0.00000552,0.00000559,0.00001029,0.
 00000477,-0.00000183,-0.00001703,0.00000125,0.00000509,-0.00000958,-0.
 00011558,-0.00000842,-0.00004448,0.00000105,0.00000077,0.00000350,0.00
 000407,-0.00000200,0.00000799,0.00001843,0.00001934,-0.00004928,0.0004
 8230,-0.00007868,-0.00269545,0.00636798,-0.03106160,0.02618462,-0.0000
 0060,-0.00000968,-0.00000281,0.00000075,0.00000255,0.00000031,0.000001
 35,0.00000283,0.00000104,0.00000490,0.00000141,-0.00000085,-0.00000183
 ,-0.00000628,-0.00000102,0.00001091,-0.00000286,-0.00000588,-0.0000189
 5,-0.00002658,0.00000791,0.00000655,0.00000680,-0.00000502,-0.00003726
 ,0.00004955,0.00001059,-0.00015950,-0.00020771,0.00000815,0.00002423,-
 0.00006335,0.00000985,0.00009599,0.00002522,0.00000849,0.00050427,-0.0
 0110833,0.00000337,-0.00030094,0.00001360,-0.00004923,-0.00016313,-0.0
 0008801,-0.00000528,-0.00597675,-0.00183978,-0.00089229,-0.01133855,-0
 .03063646,-0.00028198,-0.07563608,-0.07749831,-0.00207714,0.00882042,0
 .01774535,-0.00000276,0.00006423,0.00461448,-0.00064141,0.00110402,-0.
 00069229,0.00037011,-0.00029025,0.00023981,-0.00002501,0.00003010,-0.0
 0025218,0.00002305,-0.00017693,0.00016323,-0.00002150,0.00011569,0.000
 13830,-0.00002263,0.00108244,-0.00032028,0.00011972,-0.00134597,-0.001
 64365,-0.00007560,-0.00265507,-0.00038631,-0.00017799,-0.00046279,0.00
 169082,-0.00011722,0.00000261,-0.00000651,0.00000002,0.00000102,0.0000
 0044,-0.00000010,-0.00000033,0.00000160,0.00000008,0.00000126,0.000000
 85,0.00000104,-0.00000331,-0.00001128,-0.00000026,-0.00000992,-0.00001
 855,-0.00000371,0.08666321,0.00001511,0.00000265,-0.00000609,-0.000003
 04,-0.00000038,0.00000114,-0.00000260,0.00000013,0.00000171,-0.0000042
 9,0.00000059,0.00000272,0.00000374,0.00000024,-0.00000205,-0.00000020,
 -0.00000559,0.00000376,-0.00000326,-0.00000418,-0.00000173,-0.00000048
 ,-0.00000050,0.00000011,0.00000087,0.00000404,0.00000511,0.00002943,0.
 00003580,-0.00001245,-0.00001876,-0.00001133,0.00000131,-0.00000243,-0
 .00002958,-0.00000685,-0.00013066,0.00007984,0.00001936,0.00000266,0.0
 0003493,0.00000015,0.00004613,0.00003301,-0.00000621,0.00066626,0.0016
 8188,0.00012366,-0.00214640,0.00165094,-0.00028034,-0.07998838,-0.3332
 7138,-0.00106889,-0.00741667,-0.01463350,-0.00029975,0.00114248,-0.000
 69058,0.00027186,-0.00010223,0.00025559,-0.00008987,0.00012249,-0.0001
 1336,0.00001545,-0.00000573,-0.00001038,-0.00000272,-0.00001012,0.0000
 2338,-0.00000194,0.00004922,-0.00017551,0.00001940,-0.00052797,0.00004
 272,-0.00005565,-0.00057872,0.00014099,-0.00005619,-0.00268566,-0.0018
 2602,-0.00019613,0.00123042,0.00012321,0.00012510,-0.00000412,-0.00000
 358,-0.00000083,-0.00000091,-0.00000102,-0.00000007,-0.00000054,-0.000
 00118,-0.00000023,-0.00000118,-0.00000071,0.00000083,-0.00000336,0.000
 00018,-0.00000029,0.00000819,0.,0.00000345,0.09033626,0.34661860,0.000
 00140,0.00000367,0.00001662,-0.00000082,-0.00000015,-0.00000406,0.0000
 0054,-0.00000133,-0.00000475,0.00000163,-0.00000141,-0.00000659,-0.000
 00134,-0.00000333,0.00000239,0.00000286,0.00000334,-0.00000335,-0.0000
 0767,-0.00000968,-0.00000489,0.00000073,0.00000196,0.00000406,0.000004
 02,0.00002424,-0.00002042,-0.00001558,-0.00005020,-0.00016019,0.000006
 02,0.00000235,-0.00000599,0.00000416,0.00000533,-0.00001155,-0.0000370
 5,-0.00010569,0.00094025,0.00001493,-0.00002513,-0.00021179,-0.0000246
 8,0.00004706,0.00021039,-0.00096240,-0.00011802,0.00408604,-0.00082798
 ,-0.00295898,-0.00157085,-0.00204986,-0.00074758,-0.03663373,0.0005452
 2,0.00209779,0.00494514,-0.00059231,0.00050105,0.00561264,0.00032398,-
 0.00011111,-0.00244344,-0.00003345,0.00002746,-0.00014396,0.00003115,-
 0.00001852,-0.00013391,-0.00001753,0.00000018,0.00000253,-0.00003575,0
 .00003779,0.00032193,0.00009152,-0.00002983,0.00002366,-0.00008519,-0.
 00013323,-0.00004965,-0.00008148,-0.00005433,-0.00049361,-0.00007925,0
 .00013758,0.00011918,-0.00000501,-0.00000300,0.00000671,0.00000053,0.0
 0000003,0.00000073,0.00000070,0.00000024,0.00000085,0.00000063,0.00000
 030,0.00000174,-0.00000099,-0.00000039,0.00000419,-0.00000318,-0.00000
 055,0.00001385,0.00385483,0.00149192,0.02532894,-0.00003575,-0.0000027
 8,0.00001056,0.00000714,-0.00000014,-0.00000174,0.00000574,-0.00000091
 ,-0.00000291,0.00000661,-0.00000093,-0.00000182,-0.00000834,0.00000164
 ,0.00000204,-0.00000593,0.00001009,0.00001004,0.00001997,0.00002805,-0
 .00000364,-0.00000596,-0.00000175,0.00000360,0.00000155,-0.00005227,-0
 .00000958,0.00008547,0.00000489,0.00000975,0.00001709,0.00006022,-0.00
 000824,-0.00004804,0.00002071,0.00000148,0.00016766,-0.00007299,0.0000
 4112,-0.00004861,-0.00006193,0.00000106,0.00000212,-0.00000501,-0.0000
 0331,-0.00035308,0.00077761,-0.00000277,-0.00026511,-0.00019670,-0.000
 03972,0.00035741,-0.00029156,0.00008634,0.00120356,0.00079704,0.000420
 63,-0.00227874,-0.00011765,-0.00040798,0.00935296,0.01429310,-0.000190
 52,-0.10681292,-0.11135942,-0.00266379,-0.02998508,-0.02827650,-0.0018
 5514,-0.00435539,-0.00009714,-0.00102100,-0.00061413,0.00047568,-0.000
 02780,0.00021488,-0.00032250,0.00005028,0.00011600,0.00019931,0.000130
 32,0.00076529,0.00066340,-0.00003022,-0.00181713,0.00257677,-0.0009723
 0,0.00001290,0.00000848,-0.00000584,0.00000155,0.00000211,-0.00000006,
 0.00000101,0.00000245,-0.00000012,0.00000229,0.00000093,-0.00000305,0.
 00000481,0.00000408,0.00000031,-0.00000482,-0.00000011,-0.00000247,0.0
 0002515,-0.00002354,-0.00002863,0.13471087,0.00008564,-0.00000250,-0.0
 0002518,-0.00001752,0.00000235,0.00000367,-0.00001467,0.00000352,0.000
 00716,-0.00002141,0.00000442,0.00000658,0.00002179,0.00000073,-0.00000
 590,0.00000115,-0.00001407,-0.00001128,-0.00002363,-0.00003992,0.00000
 259,0.00000505,0.00000121,-0.00000352,0.00000500,0.00009604,0.00001255
 ,-0.00004419,-0.00001101,-0.00000361,-0.00005029,-0.00003425,-0.000000
 55,0.00001167,-0.00006418,0.00000075,-0.00018715,0.00021329,-0.0000332
 4,0.00001333,0.00005316,0.00000077,0.00003034,0.00005935,-0.00000676,0
 .00148820,-0.00079235,0.00011162,-0.00043722,0.00112639,-0.00004984,0.
 00011057,-0.00007122,-0.00001145,-0.00149251,-0.00030274,-0.00026430,0
 .00031699,0.00053298,0.00010315,-0.01372005,-0.01924691,-0.00044810,-0
 .11217807,-0.28007433,-0.00254424,-0.00135021,0.00795004,-0.00044562,0
 .00224537,0.00260157,0.00034403,0.00065021,-0.00011007,0.00005332,-0.0
 0019077,0.00026440,-0.00003370,0.00008241,-0.00052094,-0.00001976,-0.0
 0080863,-0.00097689,-0.00001734,0.00376171,-0.00221809,0.00069159,-0.0
 0004078,-0.00002105,0.00001048,-0.00000413,-0.00000539,0.00000034,-0.0
 0000222,-0.00000587,0.00000048,-0.00000442,-0.00000240,0.00000477,-0.0
 0001236,-0.00000876,-0.00000188,0.00001325,-0.00000050,0.00000364,-0.0
 0015861,0.00005878,-0.00000414,0.12185430,0.29148782,-0.00000945,0.000
 00594,0.00001711,0.00000200,-0.00000135,-0.00000338,0.00000112,-0.0000
 0200,-0.00000460,0.00000446,-0.00000156,-0.00000577,-0.00000522,-0.000
 00050,0.00000008,0.00000257,0.00000273,0.00000060,0.00000061,0.0000011
 2,-0.00000738,-0.00000209,-0.00000066,0.00000604,-0.00000353,-0.000001
 65,-0.00000694,0.00001706,0.00000156,0.00000533,-0.00000467,0.00001340
 ,0.00003676,0.00000299,-0.00000480,-0.00006316,0.00003956,-0.00002024,
 -0.00016161,-0.00000682,-0.00001093,-0.00002294,0.00000352,-0.00000203
 ,0.00003619,-0.00007259,0.00012908,-0.00045110,-0.00004672,-0.00007709
 ,0.00020893,0.00010820,-0.00005634,-0.00046463,0.00046148,-0.00000276,
 -0.00308239,-0.00040506,-0.00001102,0.00120465,0.00080268,0.00221366,0
 .00621437,-0.00261812,-0.00239892,-0.03987226,-0.00278763,-0.00305363,
 -0.00103793,-0.00110201,0.00012553,0.00610879,-0.00003264,0.00002885,-
 0.00043465,0.00004701,-0.00004330,-0.00019094,0.00014051,-0.00000569,-
 0.00130212,0.00001504,0.00013057,0.00084339,-0.00102713,0.00055891,0.0
 0723539,0.00000890,-0.00000115,-0.00000495,0.00000088,0.00000041,0.000
 00089,0.00000083,0.00000048,0.00000128,0.00000091,0.,0.00000313,0.,0.0
 0000160,0.00000737,-0.00000354,0.00000155,0.00001279,-0.00001664,0.000
 00145,0.00030204,0.00658112,0.00254960,0.02433536,0.00000506,-0.000000
 16,-0.00000166,-0.00000117,0.,0.00000025,-0.00000101,0.00000007,0.0000
 0048,-0.00000210,0.00000018,0.00000071,0.00000142,0.00000070,-0.000000
 02,-0.00000291,0.00000200,0.00000147,0.00000315,0.00000219,-0.00000130
 ,-0.00000013,-0.00000159,0.00000089,0.00000507,0.00000513,-0.00000223,
 0.00001547,-0.00000721,0.00000231,-0.00000530,0.00001795,-0.00000012,-
 0.00002442,-0.00000317,-0.00000249,0.00002548,0.00002067,0.00000622,-0
 .00001047,-0.00000265,0.00000084,0.00000970,0.00000477,-0.00000059,0.0
 0009368,-0.00017059,0.00001012,0.00004590,0.00017619,-0.00003059,-0.00
 020618,0.00004843,0.00000960,0.00020459,0.00002368,0.00019277,-0.00005
 222,-0.00002747,-0.00001346,-0.00057379,0.00032998,-0.00003206,0.00215
 022,-0.00142122,-0.00091009,-0.01899778,-0.00997410,-0.00086904,-0.328
 13751,0.04083998,-0.02964418,-0.00808732,-0.00090384,-0.00139035,0.000
 91644,-0.00018047,0.00023885,-0.00067095,0.00082077,-0.00002973,-0.000
 01667,0.00027728,-0.00003852,0.00116087,0.00089788,-0.00031864,-0.0000
 0695,-0.00000318,0.00000038,-0.00000037,-0.00000035,0.,-0.00000013,-0.
 00000047,-0.00000004,-0.00000023,-0.00000020,-0.00000006,-0.00000076,-
 0.00000024,-0.00000024,0.00000167,0.00000008,-0.00000053,0.00001904,0.
 00000796,0.00000529,-0.00044301,0.00006189,-0.00009761,0.35258360,0.00
 003570,-0.00000409,-0.00001090,-0.00000729,0.00000178,0.00000149,-0.00
 000598,0.00000225,0.00000322,-0.00000907,0.00000228,0.00000290,0.00000
 996,0.00000037,-0.00000245,0.00000311,-0.00000875,-0.00000771,-0.00001
 396,-0.00001880,0.00000170,0.00000232,0.00000239,-0.00000196,-0.000001
 72,0.00003263,0.00000681,-0.00005759,0.00000346,-0.00000802,-0.0000074
 1,-0.00005407,0.00000431,0.00004695,-0.00000185,0.00000091,-0.00009653
 ,-0.00001687,-0.00000812,0.00002728,0.00003856,0.00000011,0.00000394,0
 .00000869,-0.00000057,0.00012320,0.00013575,0.00000660,-0.00019304,-0.
 00006238,-0.00000372,0.00012894,-0.00014190,0.00000250,-0.00024840,0.0
 0043738,-0.00009295,0.00007806,0.00007369,0.00000755,-0.00037437,-0.00
 082630,-0.00002226,-0.00356500,-0.00204760,0.00013449,-0.03480277,0.00
 101313,-0.00363274,0.04192668,-0.06131436,0.00490595,0.02834930,0.0010
 5718,0.00293630,-0.00081855,0.00264977,-0.00021951,0.00059355,-0.00007
 624,0.00003860,0.00171893,-0.00121625,0.00021755,-0.00103466,-0.004608
 23,0.00019570,-0.00001372,-0.00000408,0.00000604,-0.00000168,-0.000002
 09,0.00000013,-0.00000094,-0.00000230,0.00000024,-0.00000115,-0.000000
 76,0.00000270,-0.00000309,-0.00000172,-0.00000075,0.00000301,-0.000001
 22,0.00000111,-0.00005610,-0.00000873,-0.00000570,-0.00089701,0.000067
 37,-0.00007083,-0.03084087,0.06489191,-0.00000035,0.00000121,0.0000043
 7,0.00000016,-0.00000012,-0.00000093,-0.00000006,-0.00000049,-0.000001
 16,0.00000035,-0.00000042,-0.00000151,-0.00000088,-0.00000006,-0.00000
 030,0.00000011,0.00000053,0.,-0.00000035,-0.00000006,-0.00000113,0.000
 00037,-0.00000009,0.00000090,-0.00000070,0.00000204,0.00000299,0.00000
 240,-0.00000160,-0.00000029,0.00000014,0.00000241,-0.00000503,-0.00000
 310,-0.00000158,-0.00000401,0.00000649,0.00000096,-0.00003076,0.000000
 27,-0.00000072,-0.00001212,0.00000100,0.00000008,0.00000287,0.00000143
 ,-0.00001196,0.00000112,-0.00002173,0.00001845,0.00032310,0.00001691,0
 .00000038,-0.00031566,0.00018819,-0.00007096,-0.00175377,-0.00001681,-
 0.00000330,0.00009797,0.00000239,0.00004627,-0.00035840,-0.00082856,0.
 00034292,0.01193477,-0.00003219,-0.00122299,-0.00645229,-0.02968193,0.
 00481150,-0.04006770,-0.00237112,0.00008370,0.00630368,0.00025286,-0.0
 0015171,-0.00144160,-0.00002264,0.00005594,-0.00066659,-0.00008502,0.0
 0008649,0.00026950,-0.00026219,0.00037928,0.00410275,0.00000028,-0.000
 00123,-0.00000114,0.00000015,0.00000007,0.00000032,0.00000016,-0.00000
 005,0.00000046,0.00000009,-0.00000006,0.00000065,-0.00000015,0.0000001
 1,0.00000124,-0.00000109,0.00000060,0.00000758,0.00000775,-0.00000020,
 -0.00004115,-0.00006599,0.00002333,0.00053626,0.03291335,-0.00438869,0
 .02756500\\-0.00002543,0.00000783,-0.00002202,0.00000603,0.00000283,0.
 00000269,0.00000718,-0.00000595,0.00000423,0.00000232,-0.00001155,0.00
 000408,0.00002017,0.00000453,-0.00000695,-0.00000463,-0.00000907,-0.00
 000048,-0.00000989,0.00000224,-0.00000213,0.00000818,-0.00000305,-0.00
 000462,-0.00001982,0.00000850,-0.00001182,-0.00000890,0.00000515,0.000
 01376,0.00000776,-0.00001593,-0.00001461,0.00000506,0.00000236,0.00000
 951,-0.00000754,0.00000363,-0.00000542,0.00000510,0.00000184,0.0000019
 1,-0.00000119,-0.00000003,-0.00000279,-0.00000247,-0.00002248,0.000000
 58,-0.00000132,0.00001353,0.00000954,0.00000209,-0.00000586,-0.0000125
 1,0.00002071,0.00001006,0.00000971,-0.00001077,0.00000638,-0.00000325,
 -0.00001304,-0.00001627,0.00000423,-0.00001818,0.00000562,0.00000048,0
 .00001185,0.00000095,-0.00000014,0.00001113,-0.00001326,-0.00000202,-0
 .00000707,0.00002085,-0.00000300,0.00000268,-0.00001068,0.00000458,0.0
 0000360,0.00000870,0.00000421,-0.00000835,-0.00000820,-0.00000469,0.00
 000863,0.00001187,0.00000943,0.00001708,-0.00000499,0.00001541,0.00000
 156,0.00000458,-0.00000372,-0.00000561,0.00000023,-0.00000090,0.000004
 03,0.00000088,-0.00000347,0.00000016,0.00000278,0.00000416,0.00000052,
 -0.00000001,0.00000119,-0.00000172,0.00000120,0.00000370,0.00000027,-0
 .00000094,-0.00000196,-0.00000016,0.00000174,0.00000307\\\@


 LIFE CAN ONLY BE UNDERSTOOD BACKWARD, BUT MUST
 BE LIVED FORWARD. -- KIRKEGAARD
 Job cpu time:  0 days 12 hours 45 minutes 31.0 seconds.
 File lengths (MBytes):  RWF=   1470 Int=      0 D2E=      0 Chk=     26 Scr=      1
 Normal termination of Gaussian 09 at Sun Dec 29 10:23:30 2013.
