 Entering Gaussian System, Link 0=g09
 Initial command:
 /opt/gaussian/g09/l1.exe /panfs/panfs.cluster/home/shuo/Gau-5375.inp -scrdir=/panfs/panfs.cluster/home/shuo/
 Default is to use a total of  12 processors:
                               12 via shared-memory
                                1 via Linda
 Entering Link 1 = /opt/gaussian/g09/l1.exe PID=      5376.
  
 Copyright (c) 1988,1990,1992,1993,1995,1998,2003,2009,2011,
            Gaussian, Inc.  All Rights Reserved.
  
 This is part of the Gaussian(R) 09 program.  It is based on
 the Gaussian(R) 03 system (copyright 2003, Gaussian, Inc.),
 the Gaussian(R) 98 system (copyright 1998, Gaussian, Inc.),
 the Gaussian(R) 94 system (copyright 1995, Gaussian, Inc.),
 the Gaussian 92(TM) system (copyright 1992, Gaussian, Inc.),
 the Gaussian 90(TM) system (copyright 1990, Gaussian, Inc.),
 the Gaussian 88(TM) system (copyright 1988, Gaussian, Inc.),
 the Gaussian 86(TM) system (copyright 1986, Carnegie Mellon
 University), and the Gaussian 82(TM) system (copyright 1983,
 Carnegie Mellon University). Gaussian is a federally registered
 trademark of Gaussian, Inc.
  
 This software contains proprietary and confidential information,
 including trade secrets, belonging to Gaussian, Inc.
  
 This software is provided under written license and may be
 used, copied, transmitted, or stored only in accord with that
 written license.
  
 The following legend is applicable only to US Government
 contracts under FAR:
  
                    RESTRICTED RIGHTS LEGEND
  
 Use, reproduction and disclosure by the US Government is
 subject to restrictions as set forth in subparagraphs (a)
 and (c) of the Commercial Computer Software - Restricted
 Rights clause in FAR 52.227-19.
  
 Gaussian, Inc.
 340 Quinnipiac St., Bldg. 40, Wallingford CT 06492
  
  
 ---------------------------------------------------------------
 Warning -- This program may not be used in any manner that
 competes with the business of Gaussian, Inc. or will provide
 assistance to any competitor of Gaussian, Inc.  The licensee
 of this program is prohibited from giving any competitor of
 Gaussian, Inc. access to this program.  By using this program,
 the user acknowledges that Gaussian, Inc. is engaged in the
 business of creating and licensing software in the field of
 computational chemistry and represents and warrants to the
 licensee that it is not a competitor of Gaussian, Inc. and that
 it will not use this program in any manner prohibited above.
 ---------------------------------------------------------------
  

 Cite this work as:
 Gaussian 09, Revision C.01,
 M. J. Frisch, G. W. Trucks, H. B. Schlegel, G. E. Scuseria, 
 M. A. Robb, J. R. Cheeseman, G. Scalmani, V. Barone, B. Mennucci, 
 G. A. Petersson, H. Nakatsuji, M. Caricato, X. Li, H. P. Hratchian, 
 A. F. Izmaylov, J. Bloino, G. Zheng, J. L. Sonnenberg, M. Hada, 
 M. Ehara, K. Toyota, R. Fukuda, J. Hasegawa, M. Ishida, T. Nakajima, 
 Y. Honda, O. Kitao, H. Nakai, T. Vreven, J. A. Montgomery, Jr., 
 J. E. Peralta, F. Ogliaro, M. Bearpark, J. J. Heyd, E. Brothers, 
 K. N. Kudin, V. N. Staroverov, T. Keith, R. Kobayashi, J. Normand, 
 K. Raghavachari, A. Rendell, J. C. Burant, S. S. Iyengar, J. Tomasi, 
 M. Cossi, N. Rega, J. M. Millam, M. Klene, J. E. Knox, J. B. Cross, 
 V. Bakken, C. Adamo, J. Jaramillo, R. Gomperts, R. E. Stratmann, 
 O. Yazyev, A. J. Austin, R. Cammi, C. Pomelli, J. W. Ochterski, 
 R. L. Martin, K. Morokuma, V. G. Zakrzewski, G. A. Voth, 
 P. Salvador, J. J. Dannenberg, S. Dapprich, A. D. Daniels, 
 O. Farkas, J. B. Foresman, J. V. Ortiz, J. Cioslowski, 
 and D. J. Fox, Gaussian, Inc., Wallingford CT, 2010.
 
 ******************************************
 Gaussian 09:  EM64L-G09RevC.01 23-Sep-2011
                29-Dec-2013 
 ******************************************
 %chk=70_C26H13N5S2.chk
 %NProcShared=12
 Will use up to   12 processors via shared memory.
 %Mem=8000MB
 Default route:  MaxDisk=100GB
 --------------------------------------------
 #B3LYP/6-31++G(d,p) opt scf=direct freq test
 --------------------------------------------
 1/14=-1,18=20,19=15,26=3,38=1/1,3;
 2/9=110,12=2,17=6,18=5,40=1/2;
 3/5=1,6=6,7=1111,11=2,16=1,25=1,30=1,71=1,74=-5/1,2,3;
 4//1;
 5/5=2,38=5/2;
 6/7=2,8=2,9=2,10=2,28=1/1;
 7//1,2,3,16;
 1/14=-1,18=20,19=15/3(2);
 2/9=110/2;
 99//99;
 2/9=110/2;
 3/5=1,6=6,7=1111,11=2,16=1,25=1,30=1,71=1,74=-5/1,2,3;
 4/5=5,16=3/1;
 5/5=2,38=5/2;
 7//1,2,3,16;
 1/14=-1,18=20,19=15/3(-5);
 2/9=110/2;
 6/7=2,8=2,9=2,10=2,19=2,28=1/1;
 99/9=1/99;
 ----------------------------------------------------------------------
 Geom opt of No.70 candidate from the CEPDB database with SMILE code of
  c1csc(n1)-c1ccc([Se]1)-c1ncc(-c2scc3ccoc23)c2nsnc12, HPC, 20131227, S
 huo Dai, Gaussian09
 ----------------------------------------------------------------------
 Charge =  0 Multiplicity = 1
 Symbolic Z-Matrix:
 C                    -1.144     0.       -0.002 
 C                    -0.328     1.082     0.001 
 S                     0.901     0.643     0.001 
 C                     0.901    -0.643    -0.002 
 N                    -0.328    -1.082     0.003 
 C                     2.11241  -1.49666  -0.00993 
 C                     2.97562  -1.08796   1.2089 
 C                     3.93117  -2.30018   1.36997 
 C                     3.04836  -3.52413   1.04785 
 Se                    1.89206  -3.01282   0.17056 
 C                     3.83515  -4.54333   0.31401 
 N                     4.81396  -4.24509  -0.56772 
 C                     5.43356  -5.21052  -1.29647 
 C                     5.10943  -6.5163   -1.16599 
 C                     5.79769  -7.51565  -1.94877 
 S                     6.6965   -7.22421  -2.93137 
 C                     7.03842  -8.82863  -3.63304 
 C                     5.97777  -9.79471  -2.59133 
 C                     5.48996  -11.01417  -2.25285 
 C                     4.62029  -10.82618  -1.2208 
 O                     4.56643  -9.56577  -0.91841 
 C                     5.40146  -8.84527  -1.74458 
 C                     4.10657  -6.89506  -0.27141 
 N                     3.55004  -8.0624    0.09013 
 S                     2.6269   -7.81881   0.99795 
 N                     2.5536   -6.51978   1.24818 
 C                     3.44927  -5.88866   0.49046 
 H                    -2.17599   0.       -0.00706 
 H                    -0.62388   2.07067   0.00293 
 H                     2.5413   -1.34456  -0.97834 
 H                     2.37182  -0.95361   2.08199 
 H                     3.48746  -0.15795   1.07475 
 H                     4.30742  -2.35643   2.37006 
 H                     4.78798  -2.23393   0.73249 
 H                     2.68102  -3.98147   1.94273 
 H                     6.17028  -4.9398   -1.96653 
 H                     7.66151  -9.10815  -4.40677 
 H                     5.73198  -11.91517  -2.69405 
 H                     4.08548  -11.57331  -0.7509 
 

 GradGradGradGradGradGradGradGradGradGradGradGradGradGradGradGradGradGrad
 Berny optimization.
 Initialization pass.
                           ----------------------------
                           !    Initial Parameters    !
                           ! (Angstroms and Degrees)  !
 --------------------------                            --------------------------
 ! Name  Definition              Value          Derivative Info.                !
 --------------------------------------------------------------------------------
 ! R1    R(1,2)                  1.3552         estimate D2E/DX2                !
 ! R2    R(1,3)                  2.1437         estimate D2E/DX2                !
 ! R3    R(1,5)                  1.3552         estimate D2E/DX2                !
 ! R4    R(1,28)                 1.032          estimate D2E/DX2                !
 ! R5    R(2,3)                  1.3051         estimate D2E/DX2                !
 ! R6    R(2,29)                 1.032          estimate D2E/DX2                !
 ! R7    R(3,4)                  1.286          estimate D2E/DX2                !
 ! R8    R(4,5)                  1.3051         estimate D2E/DX2                !
 ! R9    R(4,6)                  1.482          estimate D2E/DX2                !
 ! R10   R(6,7)                  1.5485         estimate D2E/DX2                !
 ! R11   R(6,10)                 1.5427         estimate D2E/DX2                !
 ! R12   R(6,30)                 1.07           estimate D2E/DX2                !
 ! R13   R(7,8)                  1.5519         estimate D2E/DX2                !
 ! R14   R(7,31)                 1.07           estimate D2E/DX2                !
 ! R15   R(7,32)                 1.07           estimate D2E/DX2                !
 ! R16   R(8,9)                  1.5431         estimate D2E/DX2                !
 ! R17   R(8,33)                 1.07           estimate D2E/DX2                !
 ! R18   R(8,34)                 1.07           estimate D2E/DX2                !
 ! R19   R(9,10)                 1.5389         estimate D2E/DX2                !
 ! R20   R(9,11)                 1.482          estimate D2E/DX2                !
 ! R21   R(9,35)                 1.07           estimate D2E/DX2                !
 ! R22   R(11,12)                1.3507         estimate D2E/DX2                !
 ! R23   R(11,27)                1.4107         estimate D2E/DX2                !
 ! R24   R(12,13)                1.3591         estimate D2E/DX2                !
 ! R25   R(13,14)                1.3517         estimate D2E/DX2                !
 ! R26   R(13,36)                1.032          estimate D2E/DX2                !
 ! R27   R(14,15)                1.444          estimate D2E/DX2                !
 ! R28   R(14,23)                1.3962         estimate D2E/DX2                !
 ! R29   R(15,16)                1.3632         estimate D2E/DX2                !
 ! R30   R(15,22)                1.4023         estimate D2E/DX2                !
 ! R31   R(16,17)                1.7842         estimate D2E/DX2                !
 ! R32   R(17,18)                1.773          estimate D2E/DX2                !
 ! R33   R(17,37)                1.032          estimate D2E/DX2                !
 ! R34   R(18,19)                1.3563         estimate D2E/DX2                !
 ! R35   R(18,22)                1.3966         estimate D2E/DX2                !
 ! R36   R(19,20)                1.3626         estimate D2E/DX2                !
 ! R37   R(19,38)                1.032          estimate D2E/DX2                !
 ! R38   R(20,21)                1.2973         estimate D2E/DX2                !
 ! R39   R(20,39)                1.032          estimate D2E/DX2                !
 ! R40   R(21,22)                1.378          estimate D2E/DX2                !
 ! R41   R(23,24)                1.3428         estimate D2E/DX2                !
 ! R42   R(23,25)                2.1573         estimate D2E/DX2                !
 ! R43   R(23,27)                1.4231         estimate D2E/DX2                !
 ! R44   R(24,25)                1.3174         estimate D2E/DX2                !
 ! R45   R(25,26)                1.3249         estimate D2E/DX2                !
 ! R46   R(25,27)                2.1585         estimate D2E/DX2                !
 ! R47   R(26,27)                1.3322         estimate D2E/DX2                !
 ! A1    A(2,1,5)              105.9552         estimate D2E/DX2                !
 ! A2    A(2,1,28)             127.0223         estimate D2E/DX2                !
 ! A3    A(3,1,5)               70.4322         estimate D2E/DX2                !
 ! A4    A(3,1,28)             162.5445         estimate D2E/DX2                !
 ! A5    A(5,1,28)             127.0226         estimate D2E/DX2                !
 ! A6    A(1,2,29)             126.3171         estimate D2E/DX2                !
 ! A7    A(3,2,29)             126.3176         estimate D2E/DX2                !
 ! A8    A(1,3,4)               72.5454         estimate D2E/DX2                !
 ! A9    A(2,3,4)              109.6567         estimate D2E/DX2                !
 ! A10   A(3,4,5)              109.656          estimate D2E/DX2                !
 ! A11   A(3,4,6)              125.1719         estimate D2E/DX2                !
 ! A12   A(5,4,6)              125.1721         estimate D2E/DX2                !
 ! A13   A(1,5,4)              107.3642         estimate D2E/DX2                !
 ! A14   A(4,6,7)              107.4237         estimate D2E/DX2                !
 ! A15   A(4,6,10)             116.6625         estimate D2E/DX2                !
 ! A16   A(4,6,30)             104.5136         estimate D2E/DX2                !
 ! A17   A(7,6,10)             104.2963         estimate D2E/DX2                !
 ! A18   A(7,6,30)             116.8351         estimate D2E/DX2                !
 ! A19   A(10,6,30)            107.6287         estimate D2E/DX2                !
 ! A20   A(6,7,8)              102.6367         estimate D2E/DX2                !
 ! A21   A(6,7,31)             111.1515         estimate D2E/DX2                !
 ! A22   A(6,7,32)             113.4152         estimate D2E/DX2                !
 ! A23   A(8,7,31)             111.1515         estimate D2E/DX2                !
 ! A24   A(8,7,32)             113.4153         estimate D2E/DX2                !
 ! A25   A(31,7,32)            105.2543         estimate D2E/DX2                !
 ! A26   A(7,8,9)              104.2193         estimate D2E/DX2                !
 ! A27   A(7,8,33)             110.7674         estimate D2E/DX2                !
 ! A28   A(7,8,34)             112.5099         estimate D2E/DX2                !
 ! A29   A(9,8,33)             110.7678         estimate D2E/DX2                !
 ! A30   A(9,8,34)             112.5108         estimate D2E/DX2                !
 ! A31   A(33,8,34)            106.1725         estimate D2E/DX2                !
 ! A32   A(8,9,10)             106.579          estimate D2E/DX2                !
 ! A33   A(8,9,11)             110.1891         estimate D2E/DX2                !
 ! A34   A(8,9,35)             111.1518         estimate D2E/DX2                !
 ! A35   A(10,9,11)            110.1897         estimate D2E/DX2                !
 ! A36   A(10,9,35)            111.1518         estimate D2E/DX2                !
 ! A37   A(11,9,35)            107.6044         estimate D2E/DX2                !
 ! A38   A(6,10,9)             106.6141         estimate D2E/DX2                !
 ! A39   A(9,11,12)            123.7869         estimate D2E/DX2                !
 ! A40   A(9,11,27)            116.6609         estimate D2E/DX2                !
 ! A41   A(12,11,27)           119.3704         estimate D2E/DX2                !
 ! A42   A(11,12,13)           121.5712         estimate D2E/DX2                !
 ! A43   A(12,13,14)           121.6779         estimate D2E/DX2                !
 ! A44   A(12,13,36)           119.1612         estimate D2E/DX2                !
 ! A45   A(14,13,36)           119.161          estimate D2E/DX2                !
 ! A46   A(13,14,15)           120.1277         estimate D2E/DX2                !
 ! A47   A(13,14,23)           119.7445         estimate D2E/DX2                !
 ! A48   A(15,14,23)           120.1278         estimate D2E/DX2                !
 ! A49   A(14,15,16)           123.8518         estimate D2E/DX2                !
 ! A50   A(14,15,22)           116.2682         estimate D2E/DX2                !
 ! A51   A(16,15,22)           119.6007         estimate D2E/DX2                !
 ! A52   A(15,16,17)           102.5666         estimate D2E/DX2                !
 ! A53   A(16,17,18)            98.2955         estimate D2E/DX2                !
 ! A54   A(16,17,37)           130.8521         estimate D2E/DX2                !
 ! A55   A(18,17,37)           130.8525         estimate D2E/DX2                !
 ! A56   A(17,18,19)           148.3962         estimate D2E/DX2                !
 ! A57   A(17,18,22)           103.4534         estimate D2E/DX2                !
 ! A58   A(19,18,22)           108.1497         estimate D2E/DX2                !
 ! A59   A(18,19,20)           107.1284         estimate D2E/DX2                !
 ! A60   A(18,19,38)           126.4361         estimate D2E/DX2                !
 ! A61   A(20,19,38)           126.4355         estimate D2E/DX2                !
 ! A62   A(19,20,21)           109.6989         estimate D2E/DX2                !
 ! A63   A(19,20,39)           125.1505         estimate D2E/DX2                !
 ! A64   A(21,20,39)           125.1506         estimate D2E/DX2                !
 ! A65   A(20,21,22)           110.0646         estimate D2E/DX2                !
 ! A66   A(15,22,18)           116.0838         estimate D2E/DX2                !
 ! A67   A(15,22,21)           138.9592         estimate D2E/DX2                !
 ! A68   A(18,22,21)           104.957          estimate D2E/DX2                !
 ! A69   A(14,23,24)           134.912          estimate D2E/DX2                !
 ! A70   A(14,23,27)           118.8753         estimate D2E/DX2                !
 ! A71   A(24,23,27)           106.2127         estimate D2E/DX2                !
 ! A72   A(23,25,26)            74.2911         estimate D2E/DX2                !
 ! A73   A(24,25,26)           110.4986         estimate D2E/DX2                !
 ! A74   A(24,25,27)            74.7143         estimate D2E/DX2                !
 ! A75   A(11,27,23)           118.7583         estimate D2E/DX2                !
 ! A76   A(11,27,26)           134.9813         estimate D2E/DX2                !
 ! A77   A(23,27,26)           106.2604         estimate D2E/DX2                !
 ! A78   L(14,23,25,1,-1)      188.4924         estimate D2E/DX2                !
 ! A79   L(11,27,25,14,-1)     189.4582         estimate D2E/DX2                !
 ! A80   L(14,23,25,1,-2)      175.3079         estimate D2E/DX2                !
 ! A81   L(11,27,25,14,-2)     179.9922         estimate D2E/DX2                !
 ! D1    D(5,1,2,29)          -179.7041         estimate D2E/DX2                !
 ! D2    D(28,1,2,29)            0.296          estimate D2E/DX2                !
 ! D3    D(5,1,3,4)              0.3107         estimate D2E/DX2                !
 ! D4    D(28,1,3,4)          -179.2035         estimate D2E/DX2                !
 ! D5    D(2,1,5,4)             -0.4885         estimate D2E/DX2                !
 ! D6    D(3,1,5,4)             -0.3061         estimate D2E/DX2                !
 ! D7    D(28,1,5,4)           179.5115         estimate D2E/DX2                !
 ! D8    D(29,2,3,4)          -179.9911         estimate D2E/DX2                !
 ! D9    D(1,3,4,5)             -0.3229         estimate D2E/DX2                !
 ! D10   D(1,3,4,6)            179.6771         estimate D2E/DX2                !
 ! D11   D(2,3,4,5)             -0.3286         estimate D2E/DX2                !
 ! D12   D(2,3,4,6)            179.6714         estimate D2E/DX2                !
 ! D13   D(3,4,5,1)              0.5105         estimate D2E/DX2                !
 ! D14   D(6,4,5,1)           -179.4895         estimate D2E/DX2                !
 ! D15   D(3,4,6,7)             55.8107         estimate D2E/DX2                !
 ! D16   D(3,4,6,10)           172.3744         estimate D2E/DX2                !
 ! D17   D(3,4,6,30)           -68.9376         estimate D2E/DX2                !
 ! D18   D(5,4,6,7)           -124.1893         estimate D2E/DX2                !
 ! D19   D(5,4,6,10)            -7.6256         estimate D2E/DX2                !
 ! D20   D(5,4,6,30)           111.0624         estimate D2E/DX2                !
 ! D21   D(4,6,7,8)            162.3474         estimate D2E/DX2                !
 ! D22   D(4,6,7,31)            43.4496         estimate D2E/DX2                !
 ! D23   D(4,6,7,32)           -74.908          estimate D2E/DX2                !
 ! D24   D(10,6,7,8)            37.923          estimate D2E/DX2                !
 ! D25   D(10,6,7,31)          -80.9748         estimate D2E/DX2                !
 ! D26   D(10,6,7,32)          160.6676         estimate D2E/DX2                !
 ! D27   D(30,6,7,8)           -80.7078         estimate D2E/DX2                !
 ! D28   D(30,6,7,31)          160.3944         estimate D2E/DX2                !
 ! D29   D(30,6,7,32)           42.0368         estimate D2E/DX2                !
 ! D30   D(4,6,10,9)          -141.9375         estimate D2E/DX2                !
 ! D31   D(7,6,10,9)           -23.6609         estimate D2E/DX2                !
 ! D32   D(30,6,10,9)          101.0742         estimate D2E/DX2                !
 ! D33   D(6,7,8,9)            -37.9054         estimate D2E/DX2                !
 ! D34   D(6,7,8,33)          -157.0685         estimate D2E/DX2                !
 ! D35   D(6,7,8,34)            84.272          estimate D2E/DX2                !
 ! D36   D(31,7,8,9)            80.9924         estimate D2E/DX2                !
 ! D37   D(31,7,8,33)          -38.1708         estimate D2E/DX2                !
 ! D38   D(31,7,8,34)         -156.8302         estimate D2E/DX2                !
 ! D39   D(32,7,8,9)          -160.6499         estimate D2E/DX2                !
 ! D40   D(32,7,8,33)           80.1869         estimate D2E/DX2                !
 ! D41   D(32,7,8,34)          -38.4725         estimate D2E/DX2                !
 ! D42   D(7,8,9,10)            23.5881         estimate D2E/DX2                !
 ! D43   D(7,8,9,11)           143.1357         estimate D2E/DX2                !
 ! D44   D(7,8,9,35)           -97.6689         estimate D2E/DX2                !
 ! D45   D(33,8,9,10)          142.7509         estimate D2E/DX2                !
 ! D46   D(33,8,9,11)          -97.7015         estimate D2E/DX2                !
 ! D47   D(33,8,9,35)           21.494          estimate D2E/DX2                !
 ! D48   D(34,8,9,10)          -98.5888         estimate D2E/DX2                !
 ! D49   D(34,8,9,11)           20.9588         estimate D2E/DX2                !
 ! D50   D(34,8,9,35)          140.1543         estimate D2E/DX2                !
 ! D51   D(8,9,10,6)             0.0049         estimate D2E/DX2                !
 ! D52   D(11,9,10,6)         -119.5423         estimate D2E/DX2                !
 ! D53   D(35,9,10,6)          121.2619         estimate D2E/DX2                !
 ! D54   D(8,9,11,12)          -34.1736         estimate D2E/DX2                !
 ! D55   D(8,9,11,27)          150.7706         estimate D2E/DX2                !
 ! D56   D(10,9,11,12)          83.1577         estimate D2E/DX2                !
 ! D57   D(10,9,11,27)         -91.8981         estimate D2E/DX2                !
 ! D58   D(35,9,11,12)        -155.5078         estimate D2E/DX2                !
 ! D59   D(35,9,11,27)          29.4364         estimate D2E/DX2                !
 ! D60   D(9,11,12,13)        -174.5822         estimate D2E/DX2                !
 ! D61   D(27,11,12,13)          0.3472         estimate D2E/DX2                !
 ! D62   D(9,11,25,24)         175.3956         estimate D2E/DX2                !
 ! D63   D(12,11,25,24)         -0.1034         estimate D2E/DX2                !
 ! D64   D(9,11,27,23)         175.234          estimate D2E/DX2                !
 ! D65   D(9,11,27,26)          -4.7509         estimate D2E/DX2                !
 ! D66   D(12,11,27,23)         -0.0513         estimate D2E/DX2                !
 ! D67   D(12,11,27,26)        179.9639         estimate D2E/DX2                !
 ! D68   D(11,12,13,14)         -0.6082         estimate D2E/DX2                !
 ! D69   D(11,12,13,36)        179.3917         estimate D2E/DX2                !
 ! D70   D(12,13,14,15)       -179.4532         estimate D2E/DX2                !
 ! D71   D(12,13,14,23)          0.5468         estimate D2E/DX2                !
 ! D72   D(36,13,14,15)          0.5468         estimate D2E/DX2                !
 ! D73   D(36,13,14,23)       -179.4532         estimate D2E/DX2                !
 ! D74   D(13,14,15,16)         -6.4055         estimate D2E/DX2                !
 ! D75   D(13,14,15,22)        179.705          estimate D2E/DX2                !
 ! D76   D(23,14,15,16)        173.5945         estimate D2E/DX2                !
 ! D77   D(23,14,15,22)         -0.295          estimate D2E/DX2                !
 ! D78   D(13,14,23,24)        179.7131         estimate D2E/DX2                !
 ! D79   D(13,14,23,27)         -0.244          estimate D2E/DX2                !
 ! D80   D(15,14,23,24)         -0.287          estimate D2E/DX2                !
 ! D81   D(15,14,23,27)        179.7559         estimate D2E/DX2                !
 ! D82   D(13,14,25,26)         -0.2328         estimate D2E/DX2                !
 ! D83   D(15,14,25,26)        179.7894         estimate D2E/DX2                !
 ! D84   D(14,15,16,17)       -173.6784         estimate D2E/DX2                !
 ! D85   D(22,15,16,17)          0.0189         estimate D2E/DX2                !
 ! D86   D(14,15,22,18)        174.1618         estimate D2E/DX2                !
 ! D87   D(14,15,22,21)         -5.7956         estimate D2E/DX2                !
 ! D88   D(16,15,22,18)         -0.0028         estimate D2E/DX2                !
 ! D89   D(16,15,22,21)       -179.9602         estimate D2E/DX2                !
 ! D90   D(15,16,17,18)         -0.0235         estimate D2E/DX2                !
 ! D91   D(15,16,17,37)        179.976          estimate D2E/DX2                !
 ! D92   D(16,17,18,19)       -179.6125         estimate D2E/DX2                !
 ! D93   D(16,17,18,22)          0.0224         estimate D2E/DX2                !
 ! D94   D(37,17,18,19)          0.388          estimate D2E/DX2                !
 ! D95   D(37,17,18,22)       -179.9771         estimate D2E/DX2                !
 ! D96   D(17,18,19,20)        179.997          estimate D2E/DX2                !
 ! D97   D(17,18,19,38)         -0.0027         estimate D2E/DX2                !
 ! D98   D(22,18,19,20)          0.3706         estimate D2E/DX2                !
 ! D99   D(22,18,19,38)       -179.6291         estimate D2E/DX2                !
 ! D100  D(17,18,22,15)         -0.0151         estimate D2E/DX2                !
 ! D101  D(17,18,22,21)        179.9559         estimate D2E/DX2                !
 ! D102  D(19,18,22,15)        179.7835         estimate D2E/DX2                !
 ! D103  D(19,18,22,21)         -0.2455         estimate D2E/DX2                !
 ! D104  D(18,19,20,21)         -0.3635         estimate D2E/DX2                !
 ! D105  D(18,19,20,39)        179.6359         estimate D2E/DX2                !
 ! D106  D(38,19,20,21)        179.6362         estimate D2E/DX2                !
 ! D107  D(38,19,20,39)         -0.3644         estimate D2E/DX2                !
 ! D108  D(19,20,21,22)          0.2106         estimate D2E/DX2                !
 ! D109  D(39,20,21,22)       -179.7889         estimate D2E/DX2                !
 ! D110  D(20,21,22,15)        179.9825         estimate D2E/DX2                !
 ! D111  D(20,21,22,18)          0.0221         estimate D2E/DX2                !
 ! D112  D(14,23,27,11)          0.0024         estimate D2E/DX2                !
 ! D113  D(14,23,27,26)        179.9912         estimate D2E/DX2                !
 ! D114  D(24,23,27,11)       -179.966          estimate D2E/DX2                !
 ! D115  D(24,23,27,26)          0.0229         estimate D2E/DX2                !
 --------------------------------------------------------------------------------
 Trust Radius=3.00D-01 FncErr=1.00D-07 GrdErr=1.00D-06
 Number of steps in this run=    234 maximum allowed number of steps=    234.
 GradGradGradGradGradGradGradGradGradGradGradGradGradGradGradGradGradGrad

                          Input orientation:                          
 ---------------------------------------------------------------------
 Center     Atomic      Atomic             Coordinates (Angstroms)
 Number     Number       Type             X           Y           Z
 ---------------------------------------------------------------------
      1          6           0       -1.144000    0.000000   -0.002000
      2          6           0       -0.328000    1.082000    0.001000
      3         16           0        0.901000    0.643000    0.001000
      4          6           0        0.901000   -0.643000   -0.002000
      5          7           0       -0.328000   -1.082000    0.003000
      6          6           0        2.112410   -1.496660   -0.009930
      7          6           0        2.975620   -1.087960    1.208900
      8          6           0        3.931170   -2.300180    1.369970
      9          6           0        3.048360   -3.524130    1.047850
     10         34           0        1.892060   -3.012820    0.170560
     11          6           0        3.835150   -4.543330    0.314010
     12          7           0        4.813960   -4.245090   -0.567720
     13          6           0        5.433560   -5.210520   -1.296470
     14          6           0        5.109430   -6.516300   -1.165990
     15          6           0        5.797690   -7.515650   -1.948770
     16         16           0        6.696500   -7.224210   -2.931370
     17          6           0        7.038420   -8.828630   -3.633040
     18          6           0        5.977770   -9.794710   -2.591330
     19          6           0        5.489960  -11.014170   -2.252850
     20          6           0        4.620290  -10.826180   -1.220800
     21          8           0        4.566430   -9.565770   -0.918410
     22          6           0        5.401460   -8.845270   -1.744580
     23          6           0        4.106570   -6.895060   -0.271410
     24          7           0        3.550040   -8.062400    0.090130
     25         16           0        2.626900   -7.818810    0.997950
     26          7           0        2.553600   -6.519780    1.248180
     27          6           0        3.449270   -5.888660    0.490460
     28          1           0       -2.175990    0.000000   -0.007060
     29          1           0       -0.623880    2.070670    0.002930
     30          1           0        2.541300   -1.344560   -0.978340
     31          1           0        2.371820   -0.953610    2.081990
     32          1           0        3.487460   -0.157950    1.074750
     33          1           0        4.307420   -2.356430    2.370060
     34          1           0        4.787980   -2.233930    0.732490
     35          1           0        2.681020   -3.981470    1.942730
     36          1           0        6.170280   -4.939800   -1.966530
     37          1           0        7.661510   -9.108150   -4.406770
     38          1           0        5.731980  -11.915170   -2.694050
     39          1           0        4.085480  -11.573310   -0.750900
 ---------------------------------------------------------------------
                    Distance matrix (angstroms):
                    1          2          3          4          5
     1  C    0.000000
     2  C    1.355208   0.000000
     3  S    2.143708   1.305052   0.000000
     4  C    2.143706   2.118036   1.286003   0.000000
     5  N    1.355214   2.164001   2.118034   1.305062   0.000000
     6  C    3.583889   3.550381   2.458816   1.481996   2.475421
     7  C    4.429583   4.132996   2.959610   2.443014   3.516836
     8  C    5.738509   5.608364   4.440531   3.716245   4.636065
     9  C    5.576519   5.806215   4.803335   3.743561   4.295989
    10  Se   4.280715   4.661005   3.791566   2.574495   2.947000
    11  C    6.747862   7.005293   5.967012   4.890979   5.423039
    12  N    7.337446   7.425704   6.287139   5.348490   6.063878
    13  C    8.490552   8.629879   7.516064   6.563687   7.206169
    14  C    9.106175   9.416033   8.386198   7.318566   7.775847
    15  C   10.414508  10.735235   9.713019   8.660300   9.095347
    16  S   11.056394  11.266566  10.201941   9.245613   9.781660
    17  C   12.573033  12.872101  11.856894  10.856192  11.291378
    18  C   12.383884  12.836889  11.892836  10.781095  11.063661
    19  C   13.053264  13.610504  12.729022  11.562268  11.729685
    20  C   12.325530  12.953112  12.118911  10.909434  10.996922
    21  O   11.178228  11.754819  10.885756   9.689737   9.837621
    22  C   11.140845  11.594156  10.645584   9.516720   9.805565
    23  C    8.670808   9.130887   8.195867   7.031111   7.316582
    24  N    9.329780   9.933136   9.099964   7.878667   7.985785
    25  S    8.738042   9.431318   8.693381   7.447878   7.423339
    26  N    7.598864   8.224727   7.456002   6.231419   6.278817
    27  C    7.484448   7.943390   7.028217   5.852619   6.132648
    28  H    1.032002   2.141461   3.143466   3.143460   2.141470
    29  H    2.135000   1.031997   2.088900   3.112762   3.166524
    30  H    4.042588   3.883321   2.756825   2.033718   3.043821
    31  H    4.196829   3.970297   3.007157   2.569592   3.409943
    32  H    4.757600   4.153089   2.912771   2.843315   4.069429
    33  H    6.395108   6.238779   5.119836   4.490680   5.358569
    34  H    6.381090   6.140336   4.890850   4.263701   5.294559
    35  H    5.853619   6.201874   5.322078   4.253919   4.606917
    36  H    9.042107   9.075290   7.924906   7.077230   7.809565
    37  H   13.412584  13.678445  12.657719  11.694668  12.153083
    38  H   14.017757  14.591541  13.722583  12.555768  12.702559
    39  H   12.722021  13.423898  12.646916  11.409358  11.406786
                    6          7          8          9         10
     6  C    0.000000
     7  C    1.548455   0.000000
     8  C    2.420260   1.551933   0.000000
     9  C    2.470938   2.442571   1.543103   0.000000
    10  Se   1.542683   2.440766   2.470710   1.538865   0.000000
    11  C    3.514963   3.671403   2.481127   1.482001   2.477627
    12  N    3.894017   4.062431   2.883858   2.499439   3.255925
    13  C    5.145676   5.414227   4.223406   3.745521   4.418629
    14  C    5.959479   6.297628   5.059156   4.254665   4.940871
    15  C    7.319059   7.697412   6.457481   5.698314   6.326214
    16  S    7.896425   8.284947   7.098919   6.544747   7.102142
    17  C    9.547266   9.993433   8.792370   8.122132   8.647314
    18  C    9.511165   9.963039   8.720576   7.819543   8.385410
    19  C   10.345121  10.809036   9.564950   8.541471   9.101615
    20  C    9.736304  10.170610   8.937542   7.806258   8.392122
    21  O    8.482811   8.884221   7.643889   6.532391   7.160954
    22  C    8.235832   8.647751   7.395970   6.453625   7.071147
    23  C    5.760883   6.098588   4.882399   3.771396   4.491234
    24  N    6.722033   7.086919   5.914933   4.665277   5.315414
    25  S    6.422624   6.743178   5.682851   4.315599   4.931745
    26  N    5.197040   5.448331   4.440445   3.042834   3.727958
    27  C    4.618143   4.877214   3.725984   2.462197   3.285985
    28  H    4.542067   5.403823   6.669666   6.389535   5.065339
    29  H    4.495919   4.938391   6.459227   6.773403   5.674498
    30  H    1.070000   2.244659   2.891281   3.018788   2.127105
    31  H    2.176770   1.070005   2.179861   2.852144   2.850277
    32  H    2.204413   1.069998   2.207529   3.394805   3.393102
    33  H    3.349870   2.175086   1.070004   2.167255   3.332058
    34  H    2.872878   2.196557   1.069997   2.188686   3.051031
    35  H    3.210993   2.999616   2.172019   1.070004   2.168254
    36  H    5.670080   5.926709   4.807644   4.564756   5.155926
    37  H   10.395167  10.854343   9.676498   9.067266   9.559893
    38  H   11.351262  11.834653  10.592790   9.571478  10.109541
    39  H   10.294703  10.724513   9.513824   8.312666   8.884941
                   11         12         13         14         15
    11  C    0.000000
    12  N    1.350727   0.000000
    13  C    2.365101   1.359057   0.000000
    14  C    2.776112   2.367198   1.351720   0.000000
    15  C    4.219766   3.683963   2.423161   1.444004   0.000000
    16  S    5.089885   4.243342   2.884937   2.477195   1.363195
    17  C    6.648604   5.945860   4.596287   3.892841   2.469837
    18  C    6.372504   6.020609   4.794541   3.678802   2.374748
    19  C    7.155343   7.008358   5.882193   4.642941   3.525167
    20  C    6.515082   6.616250   5.674749   4.337894   3.588289
    21  O    5.222886   5.337967   4.456798   3.107316   2.603965
    22  C    5.019742   4.784539   3.662409   2.417468   1.402348
    23  C    2.438651   2.758721   2.376831   1.396231   2.461413
    24  N    3.537692   4.074569   3.688296   2.529814   3.083501
    25  S    3.557585   4.472810   4.465969   3.541486   4.339237
    26  N    2.534048   3.685232   4.059997   3.515750   4.662228
    27  C    1.410656   2.383998   2.755068   2.427733   3.756596
    28  H    7.541799   8.197227   9.312215   9.842897  11.128109
    29  H    7.982776   8.353716   9.560165  10.391019  11.702274
    30  H    3.684609   3.707650   4.838597   5.777318   7.044726
    31  H    4.260655   4.880456   6.237750   6.999100   8.428759
    32  H    4.464434   4.600220   5.910876   6.933997   8.283392
    33  H    3.038571   3.529047   4.780948   5.518278   6.891353
    34  H    2.533049   2.394992   3.659719   4.695343   6.008763
    35  H    2.073748   3.304737   4.424868   4.688995   6.111287
    36  H    3.287991   2.068549   1.032001   2.061946   2.602718
    37  H    7.600288   6.818812   5.461616   4.871699   3.471548
    38  H    8.184767   8.012126   6.855262   5.645382   4.462683
    39  H    7.114585   7.366617   6.526872   5.176304   4.564117
                   16         17         18         19         20
    16  S    0.000000
    17  C    1.784212   0.000000
    18  C    2.690664   1.772977   0.000000
    19  C    4.034839   3.013177   1.356322   0.000000
    20  C    4.495652   3.956825   2.187472   1.362642   0.000000
    21  O    3.751281   3.744773   2.200672   2.175201   1.297295
    22  C    2.390279   2.499239   1.396623   2.229416   2.192847
    23  C    3.727125   4.861583   4.158292   4.775661   4.076635
    24  N    4.442098   5.159254   4.010611   4.238607   3.240749
    25  S    5.688124   6.475130   5.292962   5.382856   4.235650
    26  N    5.926928   7.019310   6.098520   6.409287   5.377002
    27  C    4.902766   6.207147   5.581037   6.161251   5.355259
    28  H   11.809398  13.266416  13.003792  13.605966  12.840123
    29  H   12.189868  13.810353  13.823864  14.617819  13.975964
    30  H    7.459913   9.125942   9.263698  10.189226   9.709897
    31  H    9.119049  10.791416  10.630515  11.389842  10.650431
    32  H    8.733783  10.485862  10.607023  11.529980  10.971052
    33  H    7.583413   9.240397   9.095794   9.885654   9.204826
    34  H    6.478365   8.222676   8.344386   9.300411   8.813071
    35  H    7.099035   8.577360   8.075891   8.657477   7.785804
    36  H    2.535025   4.319019   4.898733   6.119051   6.132540
    37  H    2.580170   1.032003   2.569468   3.603875   4.727690
    38  H    4.794969   3.480692   2.137128   1.032004   2.142946
    39  H    5.521462   4.955790   3.182980   2.130975   1.032003
                   21         22         23         24         25
    21  O    0.000000
    22  C    1.378025   0.000000
    23  C    2.786175   2.765916   0.000000
    24  N    2.076132   2.721544   1.342803   0.000000
    25  S    3.238222   4.034015   2.157316   1.317445   0.000000
    26  N    4.245427   4.740762   2.204927   2.171094   1.324940
    27  C    4.093177   4.189032   1.423141   2.212592   2.158545
    28  H   11.738601  11.776057   9.331789   9.889346   9.231012
    29  H   12.774777  12.590324  10.140845  10.959394  10.457507
    30  H    8.467174   8.064012   5.810152   6.876668   6.769709
    31  H    9.380193   9.278990   6.621833   7.476002   6.954939
    32  H    9.676980   9.331749   6.898123   7.965784   7.709425
    33  H    7.928159   7.760943   5.255175   6.191106   5.877451
    34  H    7.518672   7.086752   4.816458   5.993011   5.994299
    35  H    6.551740   6.682335   3.927291   4.565229   3.952305
    36  H    5.007044   3.986608   3.309890   4.565757   5.443563
    37  H    4.685893   3.502026   5.885284   6.182224   7.498046
    38  H    3.167189   3.230329   5.806259   5.230330   6.328708
    39  H    2.071132   3.187696   4.702805   3.649728   4.391150
                   26         27         28         29         30
    26  N    0.000000
    27  C    1.332170   0.000000
    28  H    8.151821   8.158884   0.000000
    29  H    9.243531   8.954282   2.587821   0.000000
    30  H    5.633866   4.861134   5.000405   4.758682   0.000000
    31  H    5.631210   5.296091   5.094711   4.737402   3.089852
    32  H    6.432344   5.760546   5.768009   4.797777   2.553124
    33  H    4.654888   4.092184   7.296442   7.037062   3.918526
    34  H    4.860751   3.899715   7.350800   6.953421   2.960657
    35  H    2.634702   2.517274   6.576042   7.163350   3.937698
    36  H    5.090292   3.786955   9.894512   9.959220   5.203054
    37  H    8.047910   7.217406  14.110005  14.596546   9.911812
    38  H    7.399561   7.188233  14.550848  15.597255  11.174162
    39  H    5.646339   5.853288  13.179560  14.453530  10.347152
                   31         32         33         34         35
    31  H    0.000000
    32  H    1.700665   0.000000
    33  H    2.407786   2.680201   0.000000
    34  H    3.049295   2.473497   1.711017   0.000000
    35  H    3.046791   4.002879   2.338492   2.992968   0.000000
    36  H    6.834363   6.270008   5.380526   4.064135   5.326880
    37  H   11.686802  11.294947  10.137113   9.051192   9.560558
    38  H   12.420025  12.548862  10.910733  10.313036   9.682545
    39  H   11.123845  11.575883   9.733474   9.482509   8.177052
                   36         37         38         39
    36  H    0.000000
    37  H    5.055065   0.000000
    38  H    7.026890   3.812592   0.000000
    39  H    7.058867   5.677182   2.569759   0.000000
 Stoichiometry    C18H12N4OS3Se
 Framework group  C1[X(C18H12N4OS3Se)]
 Deg. of freedom   111
 Full point group                 C1      NOp   1
 Largest Abelian subgroup         C1      NOp   1
 Largest concise Abelian subgroup C1      NOp   1
                         Standard orientation:                         
 ---------------------------------------------------------------------
 Center     Atomic      Atomic             Coordinates (Angstroms)
 Number     Number       Type             X           Y           Z
 ---------------------------------------------------------------------
      1          6           0        6.339820    0.737039   -1.703255
      2          6           0        6.892723   -0.323580   -1.066094
      3         16           0        5.944499   -0.906030   -0.384343
      4          6           0        4.837289   -0.275162   -0.557252
      5          7           0        5.031061    0.742090   -1.351505
      6          6           0        3.538756   -0.646803    0.052673
      7          6           0        3.745739   -0.702131    1.586234
      8          6           0        2.292931   -0.633213    2.127616
      9          6           0        1.581871    0.355659    1.180150
     10         34           0        2.374317    0.346792   -0.138962
     11          6           0        0.185532   -0.079472    0.940926
     12          7           0       -0.197365   -1.373144    0.875592
     13          6           0       -1.468760   -1.723163    0.546843
     14          6           0       -2.414503   -0.794627    0.281249
     15          6           0       -3.758304   -1.203882   -0.053199
     16         16           0       -4.131103   -2.500706   -0.247020
     17          6           0       -5.817758   -2.340307   -0.806378
     18          6           0       -5.937937   -0.572215   -0.752930
     19          6           0       -6.689740    0.540757   -0.941860
     20          6           0       -5.907540    1.611474   -0.627979
     21          8           0       -4.734470    1.201724   -0.255172
     22          6           0       -4.675611   -0.174055   -0.307331
     23          6           0       -2.087029    0.561726    0.331541
     24          7           0       -2.757243    1.707069    0.126303
     25         16           0       -1.928472    2.713162    0.317553
     26          7           0       -0.724101    2.266808    0.642709
     27          6           0       -0.755924    0.935280    0.669102
     28          1           0        6.817783    1.404523   -2.328591
     29          1           0        7.881202   -0.616592   -1.111606
     30          1           0        3.267163   -1.561581   -0.431390
     31          1           0        4.324987    0.130113    1.927925
     32          1           0        4.280237   -1.569889    1.912123
     33          1           0        2.279928   -0.270270    3.134101
     34          1           0        1.818339   -1.591930    2.150369
     35          1           0        1.546797    1.337984    1.602898
     36          1           0       -1.718509   -2.723332    0.498755
     37          1           0       -6.510007   -3.056077   -1.077477
     38          1           0       -7.670038    0.571011   -1.263004
     39          1           0       -6.203494    2.598809   -0.679097
 ---------------------------------------------------------------------
 Rotational constants (GHZ):      0.4288955      0.0648162      0.0602824
 Standard basis: 6-31++G(d,p) (6D, 7F)
 There are   612 symmetry adapted basis functions of A   symmetry.
 Integral buffers will be    131072 words long.
 Raffenetti 2 integral format.
 Two-electron integral symmetry is turned on.
   612 basis functions,  1087 primitive gaussians,   612 cartesian basis functions
   119 alpha electrons      119 beta electrons
       nuclear repulsion energy      3571.4753073662 Hartrees.
 NAtoms=   39 NActive=   39 NUniq=   39 SFac= 1.00D+00 NAtFMM=   60 NAOKFM=F Big=F
 One-electron integrals computed using PRISM.
 NBasis=   612 RedAO= T  NBF=   612
 NBsUse=   606 1.00D-06 NBFU=   606
 Harris functional with IExCor=  402 diagonalized for initial guess.
 ExpMin= 3.00D-02 ExpMax= 5.61D+05 ExpMxC= 5.42D+03 IAcc=3 IRadAn=         5 AccDes= 0.00D+00
 HarFok:  IExCor=  402 AccDes= 0.00D+00 IRadAn=         5 IDoV= 1
 ScaDFX=  1.000000  1.000000  1.000000  1.000000
 FoFCou: FMM=F IPFlag=           0 FMFlag=      100000 FMFlg1=           0
         NFxFlg=           0 DoJE=T BraDBF=F KetDBF=T FulRan=T
         Omega=  0.000000  0.000000  1.000000  0.000000  0.000000 ICntrl=     500 IOpCl=  0
         NMat0=    1 NMatS0=    1 NMatT0=    0 NMatD0=    1 NMtDS0=    0 NMtDT0=    0
         I1Cent=           4 NGrid=           0.
 Petite list used in FoFCou.
 Initial guess orbital symmetries:
       Occupied  (A) (A) (A) (A) (A) (A) (A) (A) (A) (A) (A) (A)
                 (A) (A) (A) (A) (A) (A) (A) (A) (A) (A) (A) (A)
                 (A) (A) (A) (A) (A) (A) (A) (A) (A) (A) (A) (A)
                 (A) (A) (A) (A) (A) (A) (A) (A) (A) (A) (A) (A)
                 (A) (A) (A) (A) (A) (A) (A) (A) (A) (A) (A) (A)
                 (A) (A) (A) (A) (A) (A) (A) (A) (A) (A) (A) (A)
                 (A) (A) (A) (A) (A) (A) (A) (A) (A) (A) (A) (A)
                 (A) (A) (A) (A) (A) (A) (A) (A) (A) (A) (A) (A)
                 (A) (A) (A) (A) (A) (A) (A) (A) (A) (A) (A) (A)
                 (A) (A) (A) (A) (A) (A) (A) (A) (A) (A) (A)
       Virtual   (A) (A) (A) (A) (A) (A) (A) (A) (A) (A) (A) (A)
                 (A) (A) (A) (A) (A) (A) (A) (A) (A) (A) (A) (A)
                 (A) (A) (A) (A) (A) (A) (A) (A) (A) (A) (A) (A)
                 (A) (A) (A) (A) (A) (A) (A) (A) (A) (A) (A) (A)
                 (A) (A) (A) (A) (A) (A) (A) (A) (A) (A) (A) (A)
                 (A) (A) (A) (A) (A) (A) (A) (A) (A) (A) (A) (A)
                 (A) (A) (A) (A) (A) (A) (A) (A) (A) (A) (A) (A)
                 (A) (A) (A) (A) (A) (A) (A) (A) (A) (A) (A) (A)
                 (A) (A) (A) (A) (A) (A) (A) (A) (A) (A) (A) (A)
                 (A) (A) (A) (A) (A) (A) (A) (A) (A) (A) (A) (A)
                 (A) (A) (A) (A) (A) (A) (A) (A) (A) (A) (A) (A)
                 (A) (A) (A) (A) (A) (A) (A) (A) (A) (A) (A) (A)
                 (A) (A) (A) (A) (A) (A) (A) (A) (A) (A) (A) (A)
                 (A) (A) (A) (A) (A) (A) (A) (A) (A) (A) (A) (A)
                 (A) (A) (A) (A) (A) (A) (A) (A) (A) (A) (A) (A)
                 (A) (A) (A) (A) (A) (A) (A) (A) (A) (A) (A) (A)
                 (A) (A) (A) (A) (A) (A) (A) (A) (A) (A) (A) (A)
                 (A) (A) (A) (A) (A) (A) (A) (A) (A) (A) (A) (A)
                 (A) (A) (A) (A) (A) (A) (A) (A) (A) (A) (A) (A)
                 (A) (A) (A) (A) (A) (A) (A) (A) (A) (A) (A) (A)
                 (A) (A) (A) (A) (A) (A) (A) (A) (A) (A) (A) (A)
                 (A) (A) (A) (A) (A) (A) (A) (A) (A) (A) (A) (A)
                 (A) (A) (A) (A) (A) (A) (A) (A) (A) (A) (A) (A)
                 (A) (A) (A) (A) (A) (A) (A) (A) (A) (A) (A) (A)
                 (A) (A) (A) (A) (A) (A) (A) (A) (A) (A) (A) (A)
                 (A) (A) (A) (A) (A) (A) (A) (A) (A) (A) (A) (A)
                 (A) (A) (A) (A) (A) (A) (A) (A) (A) (A) (A) (A)
                 (A) (A) (A) (A) (A) (A) (A) (A) (A) (A) (A) (A)
                 (A) (A) (A) (A) (A) (A) (A) (A) (A) (A) (A) (A)
                 (A) (A) (A) (A) (A) (A) (A) (A) (A) (A) (A) (A)
                 (A) (A) (A) (A) (A) (A) (A) (A) (A) (A) (A) (A)
                 (A) (A) (A) (A) (A) (A) (A) (A) (A) (A) (A) (A)
                 (A) (A) (A) (A) (A) (A) (A) (A) (A) (A) (A) (A)
                 (A) (A) (A) (A) (A) (A) (A) (A) (A) (A) (A) (A)
                 (A) (A) (A) (A) (A) (A) (A) (A) (A) (A) (A) (A)
                 (A) (A) (A) (A) (A) (A) (A) (A) (A) (A) (A) (A)
                 (A) (A) (A) (A) (A) (A) (A) (A) (A) (A) (A) (A)
                 (A) (A) (A) (A) (A) (A) (A) (A) (A) (A) (A) (A)
                 (A) (A) (A) (A) (A) (A) (A) (A) (A) (A) (A) (A)
                 (A) (A) (A) (A) (A) (A) (A) (A) (A) (A) (A) (A)
                 (A) (A) (A) (A) (A) (A) (A)
 The electronic state of the initial guess is 1-A.
 Requested convergence on RMS density matrix=1.00D-08 within 128 cycles.
 Requested convergence on MAX density matrix=1.00D-06.
 Requested convergence on             energy=1.00D-06.
 No special actions if energy rises.
 SCF Done:  E(RB3LYP) =  -4580.20541455     A.U. after   18 cycles
             Convg  =    0.1489D-08             -V/T =  2.0028

 **********************************************************************

            Population analysis using the SCF density.

 **********************************************************************

 Orbital symmetries:
       Occupied  (A) (A) (A) (A) (A) (A) (A) (A) (A) (A) (A) (A)
                 (A) (A) (A) (A) (A) (A) (A) (A) (A) (A) (A) (A)
                 (A) (A) (A) (A) (A) (A) (A) (A) (A) (A) (A) (A)
                 (A) (A) (A) (A) (A) (A) (A) (A) (A) (A) (A) (A)
                 (A) (A) (A) (A) (A) (A) (A) (A) (A) (A) (A) (A)
                 (A) (A) (A) (A) (A) (A) (A) (A) (A) (A) (A) (A)
                 (A) (A) (A) (A) (A) (A) (A) (A) (A) (A) (A) (A)
                 (A) (A) (A) (A) (A) (A) (A) (A) (A) (A) (A) (A)
                 (A) (A) (A) (A) (A) (A) (A) (A) (A) (A) (A) (A)
                 (A) (A) (A) (A) (A) (A) (A) (A) (A) (A) (A)
       Virtual   (A) (A) (A) (A) (A) (A) (A) (A) (A) (A) (A) (A)
                 (A) (A) (A) (A) (A) (A) (A) (A) (A) (A) (A) (A)
                 (A) (A) (A) (A) (A) (A) (A) (A) (A) (A) (A) (A)
                 (A) (A) (A) (A) (A) (A) (A) (A) (A) (A) (A) (A)
                 (A) (A) (A) (A) (A) (A) (A) (A) (A) (A) (A) (A)
                 (A) (A) (A) (A) (A) (A) (A) (A) (A) (A) (A) (A)
                 (A) (A) (A) (A) (A) (A) (A) (A) (A) (A) (A) (A)
                 (A) (A) (A) (A) (A) (A) (A) (A) (A) (A) (A) (A)
                 (A) (A) (A) (A) (A) (A) (A) (A) (A) (A) (A) (A)
                 (A) (A) (A) (A) (A) (A) (A) (A) (A) (A) (A) (A)
                 (A) (A) (A) (A) (A) (A) (A) (A) (A) (A) (A) (A)
                 (A) (A) (A) (A) (A) (A) (A) (A) (A) (A) (A) (A)
                 (A) (A) (A) (A) (A) (A) (A) (A) (A) (A) (A) (A)
                 (A) (A) (A) (A) (A) (A) (A) (A) (A) (A) (A) (A)
                 (A) (A) (A) (A) (A) (A) (A) (A) (A) (A) (A) (A)
                 (A) (A) (A) (A) (A) (A) (A) (A) (A) (A) (A) (A)
                 (A) (A) (A) (A) (A) (A) (A) (A) (A) (A) (A) (A)
                 (A) (A) (A) (A) (A) (A) (A) (A) (A) (A) (A) (A)
                 (A) (A) (A) (A) (A) (A) (A) (A) (A) (A) (A) (A)
                 (A) (A) (A) (A) (A) (A) (A) (A) (A) (A) (A) (A)
                 (A) (A) (A) (A) (A) (A) (A) (A) (A) (A) (A) (A)
                 (A) (A) (A) (A) (A) (A) (A) (A) (A) (A) (A) (A)
                 (A) (A) (A) (A) (A) (A) (A) (A) (A) (A) (A) (A)
                 (A) (A) (A) (A) (A) (A) (A) (A) (A) (A) (A) (A)
                 (A) (A) (A) (A) (A) (A) (A) (A) (A) (A) (A) (A)
                 (A) (A) (A) (A) (A) (A) (A) (A) (A) (A) (A) (A)
                 (A) (A) (A) (A) (A) (A) (A) (A) (A) (A) (A) (A)
                 (A) (A) (A) (A) (A) (A) (A) (A) (A) (A) (A) (A)
                 (A) (A) (A) (A) (A) (A) (A) (A) (A) (A) (A) (A)
                 (A) (A) (A) (A) (A) (A) (A) (A) (A) (A) (A) (A)
                 (A) (A) (A) (A) (A) (A) (A) (A) (A) (A) (A) (A)
                 (A) (A) (A) (A) (A) (A) (A) (A) (A) (A) (A) (A)
                 (A) (A) (A) (A) (A) (A) (A) (A) (A) (A) (A) (A)
                 (A) (A) (A) (A) (A) (A) (A) (A) (A) (A) (A) (A)
                 (A) (A) (A) (A) (A) (A) (A) (A) (A) (A) (A) (A)
                 (A) (A) (A) (A) (A) (A) (A) (A) (A) (A) (A) (A)
                 (A) (A) (A) (A) (A) (A) (A) (A) (A) (A) (A) (A)
                 (A) (A) (A) (A) (A) (A) (A) (A) (A) (A) (A) (A)
                 (A) (A) (A) (A) (A) (A) (A) (A) (A) (A) (A) (A)
                 (A) (A) (A) (A) (A) (A) (A) (A) (A) (A) (A) (A)
                 (A) (A) (A) (A) (A) (A) (A)
 The electronic state is 1-A.
 Alpha  occ. eigenvalues -- -453.84748 -88.96367 -88.92923 -88.87650 -57.45204
 Alpha  occ. eigenvalues --  -52.12217 -52.12007 -52.11773 -19.21929 -14.34814
 Alpha  occ. eigenvalues --  -14.34393 -14.33268 -14.32962 -10.25179 -10.25013
 Alpha  occ. eigenvalues --  -10.24831 -10.24646 -10.24348 -10.23701 -10.22947
 Alpha  occ. eigenvalues --  -10.22430 -10.21904 -10.21788 -10.21762 -10.20965
 Alpha  occ. eigenvalues --  -10.20308 -10.20293 -10.20268 -10.19511 -10.18279
 Alpha  occ. eigenvalues --  -10.17792  -8.03706  -8.00067  -7.97944  -7.70338
 Alpha  occ. eigenvalues --   -6.00137  -5.99513  -5.99300  -5.96405  -5.95897
 Alpha  occ. eigenvalues --   -5.95799  -5.94147  -5.93470  -5.93334  -5.74761
 Alpha  occ. eigenvalues --   -5.73979  -5.73264  -2.10742  -2.10457  -2.09651
 Alpha  occ. eigenvalues --   -2.09057  -2.09024  -1.16285  -1.14156  -1.08483
 Alpha  occ. eigenvalues --   -0.96974  -0.96655  -0.95406  -0.93380  -0.86583
 Alpha  occ. eigenvalues --   -0.84183  -0.83716  -0.81866  -0.80100  -0.77294
 Alpha  occ. eigenvalues --   -0.76219  -0.75638  -0.70338  -0.68331  -0.67671
 Alpha  occ. eigenvalues --   -0.64598  -0.63863  -0.62860  -0.62064  -0.59874
 Alpha  occ. eigenvalues --   -0.58826  -0.56544  -0.55785  -0.55192  -0.54072
 Alpha  occ. eigenvalues --   -0.53843  -0.52958  -0.52569  -0.51913  -0.50592
 Alpha  occ. eigenvalues --   -0.49430  -0.48574  -0.48285  -0.48015  -0.46268
 Alpha  occ. eigenvalues --   -0.44914  -0.44426  -0.43935  -0.43731  -0.42610
 Alpha  occ. eigenvalues --   -0.41860  -0.40421  -0.39538  -0.38470  -0.37708
 Alpha  occ. eigenvalues --   -0.37497  -0.36535  -0.36297  -0.35860  -0.33061
 Alpha  occ. eigenvalues --   -0.32877  -0.32492  -0.30105  -0.30058  -0.29503
 Alpha  occ. eigenvalues --   -0.28386  -0.27865  -0.27520  -0.27037  -0.26845
 Alpha  occ. eigenvalues --   -0.25948  -0.24308  -0.20221  -0.18228
 Alpha virt. eigenvalues --   -0.07373  -0.04405  -0.02123  -0.01112  -0.00549
 Alpha virt. eigenvalues --   -0.00262   0.00084   0.00202   0.00424   0.00956
 Alpha virt. eigenvalues --    0.01526   0.01634   0.02100   0.02275   0.02423
 Alpha virt. eigenvalues --    0.02869   0.03298   0.03480   0.03887   0.04054
 Alpha virt. eigenvalues --    0.04173   0.04465   0.04889   0.05165   0.05591
 Alpha virt. eigenvalues --    0.05688   0.05777   0.05942   0.06433   0.06657
 Alpha virt. eigenvalues --    0.07495   0.07677   0.07766   0.08098   0.08629
 Alpha virt. eigenvalues --    0.08950   0.09233   0.09360   0.09724   0.09831
 Alpha virt. eigenvalues --    0.10251   0.10460   0.10544   0.11030   0.11250
 Alpha virt. eigenvalues --    0.11426   0.11599   0.11842   0.11976   0.12191
 Alpha virt. eigenvalues --    0.12577   0.12712   0.12755   0.12929   0.13045
 Alpha virt. eigenvalues --    0.13253   0.13413   0.13907   0.14134   0.14244
 Alpha virt. eigenvalues --    0.14512   0.14741   0.14938   0.15094   0.15271
 Alpha virt. eigenvalues --    0.15611   0.15738   0.16280   0.16282   0.16560
 Alpha virt. eigenvalues --    0.16914   0.17043   0.17162   0.17580   0.17712
 Alpha virt. eigenvalues --    0.17771   0.17946   0.18453   0.18767   0.18997
 Alpha virt. eigenvalues --    0.19147   0.19499   0.19711   0.20160   0.20215
 Alpha virt. eigenvalues --    0.20590   0.20618   0.20810   0.21161   0.21350
 Alpha virt. eigenvalues --    0.21805   0.21881   0.22248   0.22676   0.22769
 Alpha virt. eigenvalues --    0.23203   0.23432   0.23649   0.24561   0.24654
 Alpha virt. eigenvalues --    0.24898   0.24954   0.24980   0.25503   0.25823
 Alpha virt. eigenvalues --    0.26045   0.26308   0.26763   0.27016   0.27245
 Alpha virt. eigenvalues --    0.27526   0.28176   0.28405   0.28646   0.29043
 Alpha virt. eigenvalues --    0.29576   0.29885   0.30178   0.30381   0.30709
 Alpha virt. eigenvalues --    0.31024   0.31541   0.31883   0.31898   0.32383
 Alpha virt. eigenvalues --    0.32698   0.32975   0.33219   0.33832   0.34130
 Alpha virt. eigenvalues --    0.34633   0.35152   0.35282   0.35656   0.35971
 Alpha virt. eigenvalues --    0.36229   0.36669   0.36744   0.37216   0.37324
 Alpha virt. eigenvalues --    0.37841   0.38082   0.38172   0.38357   0.38674
 Alpha virt. eigenvalues --    0.39954   0.40217   0.40611   0.41209   0.41792
 Alpha virt. eigenvalues --    0.42040   0.42455   0.42792   0.43883   0.44711
 Alpha virt. eigenvalues --    0.45226   0.45836   0.46282   0.46935   0.47913
 Alpha virt. eigenvalues --    0.50111   0.50197   0.51137   0.51592   0.52206
 Alpha virt. eigenvalues --    0.53252   0.54175   0.55691   0.56200   0.56869
 Alpha virt. eigenvalues --    0.57834   0.58685   0.59212   0.62121   0.62952
 Alpha virt. eigenvalues --    0.63946   0.64413   0.65133   0.66076   0.66268
 Alpha virt. eigenvalues --    0.67341   0.68254   0.68755   0.69070   0.69606
 Alpha virt. eigenvalues --    0.69802   0.70604   0.71118   0.71237   0.71454
 Alpha virt. eigenvalues --    0.72005   0.72631   0.73101   0.73555   0.74023
 Alpha virt. eigenvalues --    0.74133   0.75344   0.75475   0.75997   0.76268
 Alpha virt. eigenvalues --    0.76834   0.77145   0.77277   0.77662   0.77972
 Alpha virt. eigenvalues --    0.78354   0.78585   0.79938   0.80262   0.80681
 Alpha virt. eigenvalues --    0.81659   0.82112   0.82409   0.83060   0.83779
 Alpha virt. eigenvalues --    0.84167   0.85102   0.85935   0.86272   0.86634
 Alpha virt. eigenvalues --    0.87061   0.88107   0.89115   0.89494   0.90185
 Alpha virt. eigenvalues --    0.91392   0.92186   0.92808   0.93316   0.94024
 Alpha virt. eigenvalues --    0.94386   0.95211   0.96130   0.96462   0.97762
 Alpha virt. eigenvalues --    0.98206   0.99392   1.00096   1.00496   1.01436
 Alpha virt. eigenvalues --    1.01782   1.02757   1.03351   1.04018   1.04731
 Alpha virt. eigenvalues --    1.05017   1.05477   1.05788   1.06978   1.08690
 Alpha virt. eigenvalues --    1.09309   1.10330   1.11147   1.11311   1.11642
 Alpha virt. eigenvalues --    1.12408   1.14045   1.14817   1.15454   1.16280
 Alpha virt. eigenvalues --    1.16672   1.17772   1.18311   1.18578   1.18885
 Alpha virt. eigenvalues --    1.19941   1.21112   1.21706   1.22781   1.23367
 Alpha virt. eigenvalues --    1.24030   1.25451   1.25587   1.26129   1.27275
 Alpha virt. eigenvalues --    1.28675   1.29200   1.29563   1.30254   1.30964
 Alpha virt. eigenvalues --    1.32220   1.32670   1.33582   1.33991   1.34564
 Alpha virt. eigenvalues --    1.34957   1.35166   1.35795   1.36444   1.36847
 Alpha virt. eigenvalues --    1.38822   1.39447   1.40880   1.41186   1.43175
 Alpha virt. eigenvalues --    1.43269   1.45120   1.46255   1.46978   1.47938
 Alpha virt. eigenvalues --    1.50527   1.52527   1.53357   1.54108   1.54976
 Alpha virt. eigenvalues --    1.56341   1.57085   1.58893   1.59725   1.60659
 Alpha virt. eigenvalues --    1.61295   1.63133   1.63703   1.64893   1.65864
 Alpha virt. eigenvalues --    1.66959   1.69904   1.70553   1.72817   1.75813
 Alpha virt. eigenvalues --    1.76334   1.77521   1.78526   1.79938   1.80968
 Alpha virt. eigenvalues --    1.81797   1.82500   1.83526   1.84100   1.84639
 Alpha virt. eigenvalues --    1.87866   1.88880   1.90390   1.90952   1.91254
 Alpha virt. eigenvalues --    1.92989   1.94370   1.94880   1.94927   1.96642
 Alpha virt. eigenvalues --    1.97420   1.97708   1.98814   1.99722   2.00567
 Alpha virt. eigenvalues --    2.01535   2.02104   2.03292   2.04075   2.05096
 Alpha virt. eigenvalues --    2.06246   2.07144   2.08878   2.09226   2.09880
 Alpha virt. eigenvalues --    2.10130   2.10687   2.12163   2.12935   2.13709
 Alpha virt. eigenvalues --    2.15952   2.17243   2.18365   2.19095   2.19498
 Alpha virt. eigenvalues --    2.20822   2.21790   2.24051   2.25208   2.26034
 Alpha virt. eigenvalues --    2.26849   2.27057   2.28651   2.29587   2.32428
 Alpha virt. eigenvalues --    2.33011   2.33892   2.34648   2.36519   2.37795
 Alpha virt. eigenvalues --    2.38565   2.39478   2.40416   2.41906   2.44400
 Alpha virt. eigenvalues --    2.45255   2.45963   2.46986   2.47330   2.47841
 Alpha virt. eigenvalues --    2.50553   2.51504   2.52520   2.53337   2.53914
 Alpha virt. eigenvalues --    2.54254   2.54634   2.56345   2.56521   2.57854
 Alpha virt. eigenvalues --    2.58507   2.58760   2.60483   2.62301   2.63429
 Alpha virt. eigenvalues --    2.63932   2.65795   2.65927   2.67474   2.67945
 Alpha virt. eigenvalues --    2.68662   2.71962   2.73429   2.74133   2.74393
 Alpha virt. eigenvalues --    2.74556   2.74866   2.76253   2.77524   2.78758
 Alpha virt. eigenvalues --    2.79570   2.81116   2.81934   2.83364   2.85263
 Alpha virt. eigenvalues --    2.85435   2.86976   2.88377   2.89635   2.91514
 Alpha virt. eigenvalues --    2.93673   2.96052   2.97050   2.99448   3.01845
 Alpha virt. eigenvalues --    3.02649   3.04467   3.05964   3.08218   3.09852
 Alpha virt. eigenvalues --    3.12456   3.17255   3.20475   3.21105   3.30543
 Alpha virt. eigenvalues --    3.36699   3.38926   3.40806   3.45307   3.45670
 Alpha virt. eigenvalues --    3.48218   3.50178   3.51091   3.52078   3.57025
 Alpha virt. eigenvalues --    3.60430   3.71833   3.80045   3.83989   4.01602
 Alpha virt. eigenvalues --    4.03061   4.05129   4.27098   4.29931   4.35082
 Alpha virt. eigenvalues --    4.36255   4.36828   4.38608   4.41194   4.43126
 Alpha virt. eigenvalues --    4.45475   4.46225   4.47321   4.54261   4.55254
 Alpha virt. eigenvalues --    4.59206   4.60531   4.68047   4.70079   4.72184
 Alpha virt. eigenvalues --    4.74868   4.77936   4.85702   4.90540   5.05259
 Alpha virt. eigenvalues --    8.65699  86.17896
          Condensed to atoms (all electrons):
              1          2          3          4          5          6
     1  C    6.278672  -0.447124   0.646396   1.382726  -0.032652  -2.270032
     2  C   -0.447124   7.158938  -0.293071   1.212664   0.324445  -2.147996
     3  S    0.646396  -0.293071  19.978842   0.114633  -0.115327  -4.770914
     4  C    1.382726   1.212664   0.114633  37.807178   0.304625 -36.479994
     5  N   -0.032652   0.324445  -0.115327   0.304625   7.118367  -0.477934
     6  C   -2.270032  -2.147996  -4.770914 -36.479994  -0.477934  56.887349
     7  C    0.073769   0.053595   0.672801   3.010455   0.060566  -5.702532
     8  C   -0.090592  -0.078202  -0.426592  -2.941555   0.034731   4.231582
     9  C   -0.008178   0.145146  -0.121614   1.395509   0.000636  -2.554311
    10  Se  -0.227677   0.247333   0.172785   0.898865  -0.017102  -1.535364
    11  C    0.029301  -0.011298   0.066579   0.488016   0.000077  -0.935041
    12  N    0.001015  -0.002270   0.014514   0.000347   0.000974   0.088791
    13  C    0.000635   0.000860   0.010447   0.086453  -0.001430  -0.113850
    14  C    0.002769  -0.003964  -0.002288  -0.075654   0.003798   0.133367
    15  C   -0.000237  -0.000308  -0.001112  -0.049968   0.000179   0.041402
    16  S    0.000146  -0.000032   0.000005   0.006132   0.000043   0.003436
    17  C    0.000002  -0.000001  -0.000009   0.000028   0.000001   0.000825
    18  C   -0.000006   0.000003   0.000025   0.000237  -0.000005  -0.003966
    19  C   -0.000002  -0.000001   0.000002  -0.000577   0.000001   0.000143
    20  C    0.000002   0.000001   0.000000   0.000378  -0.000001  -0.000231
    21  O    0.000000   0.000000  -0.000002   0.000089  -0.000000   0.000197
    22  C   -0.000103  -0.000037   0.000064  -0.014438   0.000031  -0.000053
    23  C   -0.002732  -0.001821  -0.001158  -0.223927   0.000441   0.232770
    24  N   -0.000018   0.000117  -0.000434   0.010729  -0.000047  -0.016051
    25  S    0.000045   0.000098   0.000138   0.004436  -0.000150   0.003677
    26  N   -0.000555   0.000154  -0.000335  -0.030324  -0.001374   0.061384
    27  C    0.007124   0.002552  -0.001462   0.378716   0.008483  -0.222099
    28  H    0.596781  -0.347866   0.134680   0.013360  -0.103838  -0.054833
    29  H   -0.024641   0.431740  -0.114992   0.134437   0.021533  -0.184143
    30  H    0.069597  -0.127888  -0.073552  -0.326436  -0.055530   1.053124
    31  H    0.025859  -0.039232  -0.144816   0.015734   0.006683   0.214769
    32  H    0.015736  -0.007208   0.086787   0.054671  -0.014006  -0.189845
    33  H   -0.003836   0.001590   0.019906  -0.018459  -0.002455  -0.042051
    34  H    0.002587  -0.001652  -0.030053  -0.002059   0.002341   0.115115
    35  H    0.019828  -0.003742  -0.033948   0.148988   0.005715  -0.112706
    36  H   -0.000266   0.000135   0.000006  -0.003978  -0.000004  -0.003323
    37  H    0.000000  -0.000000  -0.000000  -0.000003   0.000000   0.000006
    38  H   -0.000000  -0.000000   0.000000  -0.000004   0.000000   0.000002
    39  H   -0.000000   0.000000  -0.000000   0.000011  -0.000000  -0.000022
              7          8          9         10         11         12
     1  C    0.073769  -0.090592  -0.008178  -0.227677   0.029301   0.001015
     2  C    0.053595  -0.078202   0.145146   0.247333  -0.011298  -0.002270
     3  S    0.672801  -0.426592  -0.121614   0.172785   0.066579   0.014514
     4  C    3.010455  -2.941555   1.395509   0.898865   0.488016   0.000347
     5  N    0.060566   0.034731   0.000636  -0.017102   0.000077   0.000974
     6  C   -5.702532   4.231582  -2.554311  -1.535364  -0.935041   0.088791
     7  C    9.404048  -1.558684   0.062658  -0.174389   0.298084   0.057088
     8  C   -1.558684   8.798079  -3.302608  -0.164195   0.372304  -0.053089
     9  C    0.062658  -3.302608  23.067761   0.839405  -2.558084  -1.053682
    10  Se  -0.174389  -0.164195   0.839405  36.109365  -0.601056   0.057029
    11  C    0.298084   0.372304  -2.558084  -0.601056  12.709739   0.391874
    12  N    0.057088  -0.053089  -1.053682   0.057029   0.391874   7.100261
    13  C    0.004213   0.189325  -0.376304  -0.040143  -0.064918  -0.150883
    14  C    0.133208  -0.252305  -0.939069  -0.313023  -0.129573   0.349173
    15  C   -0.000570  -0.053190   0.873648   0.009126   1.250524  -0.012071
    16  S    0.005164  -0.007506  -0.092280  -0.046169  -0.328679  -0.012281
    17  C    0.000007  -0.000307  -0.007297  -0.005834   0.000287  -0.008259
    18  C    0.001201  -0.005169   0.093966   0.016455   0.130906   0.024869
    19  C    0.000114  -0.000998   0.004380   0.002403  -0.175791   0.000695
    20  C   -0.000015   0.000511   0.004083   0.000063   0.105395   0.001657
    21  O   -0.000176   0.001091  -0.015220  -0.001178   0.071544   0.001890
    22  C    0.006408  -0.042170   0.223386   0.030629  -0.646935  -0.020892
    23  C   -0.025024   0.054166  -1.694109  -0.049370  -2.362548   0.003756
    24  N   -0.010781  -0.004139  -0.188056   0.025630  -0.139306  -0.007689
    25  S   -0.019326   0.050052  -0.423282  -0.012545  -0.030364   0.012070
    26  N   -0.000865  -0.006717   0.096749  -0.005608  -0.601770   0.003892
    27  C   -0.326350   1.189432  -8.354393  -0.178277  -0.787141   0.379977
    28  H   -0.002869  -0.001964  -0.001747  -0.017757   0.000358   0.000044
    29  H   -0.002394  -0.001818   0.002609   0.006613  -0.000029  -0.000052
    30  H   -0.120323  -0.088191   0.187748  -0.484528  -0.072379  -0.013133
    31  H    0.281621  -0.026617   0.091657  -0.205246  -0.020935  -0.005143
    32  H    0.468929  -0.030956  -0.152370   0.058669   0.040927   0.005676
    33  H   -0.058072   0.403694  -0.135259   0.098258   0.095101  -0.000552
    34  H   -0.163137   0.393800   0.072529  -0.167667   0.014341  -0.016510
    35  H    0.010771  -0.162111   0.689774  -0.509752   0.000873   0.000092
    36  H   -0.003817   0.020191  -0.002822   0.012898  -0.009425  -0.138738
    37  H    0.000005  -0.000031   0.000045  -0.000095  -0.000856  -0.000193
    38  H    0.000002  -0.000011  -0.000090   0.000016  -0.002233  -0.000046
    39  H   -0.000005  -0.000019   0.000367   0.000009   0.001469   0.000024
             13         14         15         16         17         18
     1  C    0.000635   0.002769  -0.000237   0.000146   0.000002  -0.000006
     2  C    0.000860  -0.003964  -0.000308  -0.000032  -0.000001   0.000003
     3  S    0.010447  -0.002288  -0.001112   0.000005  -0.000009   0.000025
     4  C    0.086453  -0.075654  -0.049968   0.006132   0.000028   0.000237
     5  N   -0.001430   0.003798   0.000179   0.000043   0.000001  -0.000005
     6  C   -0.113850   0.133367   0.041402   0.003436   0.000825  -0.003966
     7  C    0.004213   0.133208  -0.000570   0.005164   0.000007   0.001201
     8  C    0.189325  -0.252305  -0.053190  -0.007506  -0.000307  -0.005169
     9  C   -0.376304  -0.939069   0.873648  -0.092280  -0.007297   0.093966
    10  Se  -0.040143  -0.313023   0.009126  -0.046169  -0.005834   0.016455
    11  C   -0.064918  -0.129573   1.250524  -0.328679   0.000287   0.130906
    12  N   -0.150883   0.349173  -0.012071  -0.012281  -0.008259   0.024869
    13  C   22.996874 -14.229250  -6.040894  -2.076144  -0.248259   0.862356
    14  C  -14.229250  25.048294   2.679193   0.940968   0.680414  -1.553927
    15  C   -6.040894   2.679193  12.852511   0.444335   0.608376  -1.906092
    16  S   -2.076144   0.940968   0.444335  18.328051   0.360601  -0.606703
    17  C   -0.248259   0.680414   0.608376   0.360601   7.075518  -1.487381
    18  C    0.862356  -1.553927  -1.906092  -0.606703  -1.487381  10.560127
    19  C   -0.302018  -1.173801  -1.428263   0.059060  -1.697137   1.174505
    20  C    0.204932   0.402162  -0.201759   0.027089  -0.003494  -0.129308
    21  O    0.067184   0.059317  -0.107865   0.077347   0.038416  -0.126723
    22  C   -1.647638  -0.842072   1.410010  -0.309730   0.859925  -0.849089
    23  C    3.009919  -1.673931  -1.398700  -0.404240   0.021865  -0.632910
    24  N    0.115902  -0.950408  -0.388546  -0.013780  -0.062480   0.201411
    25  S    0.834792  -0.636481  -0.638279  -0.050890  -0.011556   0.063378
    26  N   -0.383991   0.242675   0.202621   0.020355  -0.001204  -0.051949
    27  C    1.634258  -1.021933  -1.834809   0.021074  -0.037184   0.198324
    28  H    0.000031   0.000017  -0.000005   0.000003   0.000000  -0.000000
    29  H    0.000008  -0.000087  -0.000007  -0.000001  -0.000000   0.000000
    30  H   -0.017381   0.031890   0.010939   0.003741   0.000299  -0.000245
    31  H   -0.001477   0.009542   0.001164   0.000749   0.000045  -0.000097
    32  H   -0.004841   0.004145  -0.000329  -0.000233  -0.000028   0.000018
    33  H    0.010496  -0.028041  -0.001890  -0.002903  -0.000328   0.000784
    34  H   -0.008276   0.037560   0.002055   0.008894   0.001272  -0.001950
    35  H   -0.020584   0.118012   0.020524   0.013571   0.001655  -0.003376
    36  H    1.342135  -0.891098  -0.333586  -0.101021  -0.008878   0.042193
    37  H   -0.013089  -0.002610   0.015955  -0.028088   0.421068  -0.054588
    38  H   -0.008733  -0.024841   0.022537  -0.006541  -0.020339   0.002532
    39  H    0.007406   0.014401  -0.002179  -0.000666  -0.002484   0.032898
             19         20         21         22         23         24
     1  C   -0.000002   0.000002   0.000000  -0.000103  -0.002732  -0.000018
     2  C   -0.000001   0.000001   0.000000  -0.000037  -0.001821   0.000117
     3  S    0.000002   0.000000  -0.000002   0.000064  -0.001158  -0.000434
     4  C   -0.000577   0.000378   0.000089  -0.014438  -0.223927   0.010729
     5  N    0.000001  -0.000001  -0.000000   0.000031   0.000441  -0.000047
     6  C    0.000143  -0.000231   0.000197  -0.000053   0.232770  -0.016051
     7  C    0.000114  -0.000015  -0.000176   0.006408  -0.025024  -0.010781
     8  C   -0.000998   0.000511   0.001091  -0.042170   0.054166  -0.004139
     9  C    0.004380   0.004083  -0.015220   0.223386  -1.694109  -0.188056
    10  Se   0.002403   0.000063  -0.001178   0.030629  -0.049370   0.025630
    11  C   -0.175791   0.105395   0.071544  -0.646935  -2.362548  -0.139306
    12  N    0.000695   0.001657   0.001890  -0.020892   0.003756  -0.007689
    13  C   -0.302018   0.204932   0.067184  -1.647638   3.009919   0.115902
    14  C   -1.173801   0.402162   0.059317  -0.842072  -1.673931  -0.950408
    15  C   -1.428263  -0.201759  -0.107865   1.410010  -1.398700  -0.388546
    16  S    0.059060   0.027089   0.077347  -0.309730  -0.404240  -0.013780
    17  C   -1.697137  -0.003494   0.038416   0.859925   0.021865  -0.062480
    18  C    1.174505  -0.129308  -0.126723  -0.849089  -0.632910   0.201411
    19  C   11.527407  -0.679196   0.053092  -1.296946  -0.810742   0.543591
    20  C   -0.679196   6.399583  -0.070151  -0.577703   0.239613  -0.285706
    21  O    0.053092  -0.070151   8.676904  -0.213512   0.076391  -0.507321
    22  C   -1.296946  -0.577703  -0.213512  10.249443  -0.964083   0.990248
    23  C   -0.810742   0.239613   0.076391  -0.964083  11.057615  -0.839279
    24  N    0.543591  -0.285706  -0.507321   0.990248  -0.839279   9.294950
    25  S   -0.020371  -0.009368   0.087153  -0.061044  -0.468844   0.370144
    26  N    0.027141  -0.014590  -0.055000   0.075571   0.346756  -0.573214
    27  C    0.110609   0.003984  -0.046141   0.028059   1.813179   0.210592
    28  H   -0.000000   0.000000   0.000000  -0.000005  -0.000086  -0.000003
    29  H   -0.000000   0.000000   0.000000  -0.000000  -0.000008   0.000002
    30  H    0.000111  -0.000018  -0.000013   0.001529  -0.002953  -0.002442
    31  H    0.000002  -0.000002  -0.000002  -0.000090   0.000872  -0.000301
    32  H    0.000009  -0.000005  -0.000006   0.000130   0.002238  -0.000311
    33  H    0.000077   0.000017   0.000036   0.001279   0.017660   0.000853
    34  H   -0.000204   0.000009   0.000026  -0.001668  -0.011694   0.000110
    35  H   -0.000738   0.000130  -0.000495  -0.007379  -0.054404  -0.023188
    36  H    0.000959  -0.000468  -0.003242  -0.050035   0.169279   0.009057
    37  H   -0.021491  -0.008735   0.000232   0.023777  -0.008219   0.000540
    38  H    0.505827  -0.227188   0.023710  -0.008764  -0.006350   0.003903
    39  H   -0.147126   0.433162  -0.086657   0.029861  -0.000718   0.000407
             25         26         27         28         29         30
     1  C    0.000045  -0.000555   0.007124   0.596781  -0.024641   0.069597
     2  C    0.000098   0.000154   0.002552  -0.347866   0.431740  -0.127888
     3  S    0.000138  -0.000335  -0.001462   0.134680  -0.114992  -0.073552
     4  C    0.004436  -0.030324   0.378716   0.013360   0.134437  -0.326436
     5  N   -0.000150  -0.001374   0.008483  -0.103838   0.021533  -0.055530
     6  C    0.003677   0.061384  -0.222099  -0.054833  -0.184143   1.053124
     7  C   -0.019326  -0.000865  -0.326350  -0.002869  -0.002394  -0.120323
     8  C    0.050052  -0.006717   1.189432  -0.001964  -0.001818  -0.088191
     9  C   -0.423282   0.096749  -8.354393  -0.001747   0.002609   0.187748
    10  Se  -0.012545  -0.005608  -0.178277  -0.017757   0.006613  -0.484528
    11  C   -0.030364  -0.601770  -0.787141   0.000358  -0.000029  -0.072379
    12  N    0.012070   0.003892   0.379977   0.000044  -0.000052  -0.013133
    13  C    0.834792  -0.383991   1.634258   0.000031   0.000008  -0.017381
    14  C   -0.636481   0.242675  -1.021933   0.000017  -0.000087   0.031890
    15  C   -0.638279   0.202621  -1.834809  -0.000005  -0.000007   0.010939
    16  S   -0.050890   0.020355   0.021074   0.000003  -0.000001   0.003741
    17  C   -0.011556  -0.001204  -0.037184   0.000000  -0.000000   0.000299
    18  C    0.063378  -0.051949   0.198324  -0.000000   0.000000  -0.000245
    19  C   -0.020371   0.027141   0.110609  -0.000000  -0.000000   0.000111
    20  C   -0.009368  -0.014590   0.003984   0.000000   0.000000  -0.000018
    21  O    0.087153  -0.055000  -0.046141   0.000000   0.000000  -0.000013
    22  C   -0.061044   0.075571   0.028059  -0.000005  -0.000000   0.001529
    23  C   -0.468844   0.346756   1.813179  -0.000086  -0.000008  -0.002953
    24  N    0.370144  -0.573214   0.210592  -0.000003   0.000002  -0.002442
    25  S   16.506687  -0.524623   0.002357   0.000010   0.000005  -0.002027
    26  N   -0.524623   8.146159   0.274581   0.000024   0.000008   0.005560
    27  C    0.002357   0.274581  12.758869  -0.000159   0.000089  -0.073984
    28  H    0.000010   0.000024  -0.000159   0.682444  -0.021757   0.005012
    29  H    0.000005   0.000008   0.000089  -0.021757   0.582275  -0.003231
    30  H   -0.002027   0.005560  -0.073984   0.005012  -0.003231   0.889962
    31  H   -0.000430   0.001784  -0.021726   0.001186  -0.001315   0.045407
    32  H   -0.000026  -0.000401   0.015508   0.001094  -0.000154  -0.009513
    33  H    0.000975  -0.002765   0.037075  -0.000049   0.000026  -0.011024
    34  H    0.001459  -0.000367  -0.000093  -0.000042   0.000041   0.022834
    35  H   -0.025697   0.017235  -0.223279   0.000132  -0.000078   0.022180
    36  H    0.016041  -0.004383   0.069702  -0.000006   0.000001  -0.003445
    37  H   -0.000116  -0.000053   0.000171   0.000000  -0.000000   0.000012
    38  H   -0.000246   0.000347  -0.000187  -0.000000  -0.000000   0.000001
    39  H   -0.008092  -0.002668   0.003086  -0.000000   0.000000  -0.000002
             31         32         33         34         35         36
     1  C    0.025859   0.015736  -0.003836   0.002587   0.019828  -0.000266
     2  C   -0.039232  -0.007208   0.001590  -0.001652  -0.003742   0.000135
     3  S   -0.144816   0.086787   0.019906  -0.030053  -0.033948   0.000006
     4  C    0.015734   0.054671  -0.018459  -0.002059   0.148988  -0.003978
     5  N    0.006683  -0.014006  -0.002455   0.002341   0.005715  -0.000004
     6  C    0.214769  -0.189845  -0.042051   0.115115  -0.112706  -0.003323
     7  C    0.281621   0.468929  -0.058072  -0.163137   0.010771  -0.003817
     8  C   -0.026617  -0.030956   0.403694   0.393800  -0.162111   0.020191
     9  C    0.091657  -0.152370  -0.135259   0.072529   0.689774  -0.002822
    10  Se  -0.205246   0.058669   0.098258  -0.167667  -0.509752   0.012898
    11  C   -0.020935   0.040927   0.095101   0.014341   0.000873  -0.009425
    12  N   -0.005143   0.005676  -0.000552  -0.016510   0.000092  -0.138738
[...]
 ,0.00031251,0.00038242,-0.00193846,-0.00329890,-0.00004390,0.07301879,
 -0.00000709,-0.00001310,0.00010458,0.00007168,-0.00011267,-0.00015453,
 0.00005887,-0.00002544,0.00002232,-0.00029489,0.00002763,0.00034175,0.
 00008457,-0.00008620,-0.00023058,0.00030035,-0.00135603,0.00012650,-0.
 00033623,-0.00013368,0.00018184,-0.00767055,-0.00788634,0.02258234,-0.
 03038479,-0.08700723,0.09039740,0.00129675,-0.00188730,0.00633338,0.00
 558806,0.01103604,-0.02360351,0.00162323,-0.00331828,-0.00291932,0.001
 63235,-0.00062304,0.00045668,-0.00021067,0.00020158,-0.00031304,0.0000
 6582,-0.00015696,0.00001421,-0.00006913,-0.00003973,0.00004786,0.00005
 030,-0.00007413,-0.00002693,-0.00001202,0.00000932,-0.00009638,0.00002
 344,0.00003994,0.00002328,-0.00002476,0.00001825,0.00000833,-0.0000195
 4,-0.00011704,0.00016883,0.00000245,0.00021699,-0.00021310,0.00047378,
 0.00022619,-0.00004736,-0.00031607,0.00038218,0.00024112,-0.00024957,-
 0.00068791,0.00005903,0.00006474,-0.00083413,-0.00044772,0.00045415,-0
 .00027276,0.00034400,0.00000782,0.00000257,-0.00000621,0.00001482,0.00
 000404,0.00003360,-0.00006866,0.00033502,-0.00011023,0.00037016,-0.000
 49473,-0.00014368,0.00013433,-0.00037127,-0.00031198,0.00034093,0.0012
 2162,-0.00027703,-0.00169903,-0.00362317,-0.00088934,0.02850962,0.0956
 1705,0.00003961,-0.00002235,-0.00004978,-0.00001982,0.00003798,0.00008
 645,-0.00002918,0.00001057,-0.00000413,0.00013481,0.00009540,-0.000254
 21,0.00001133,0.00005493,0.00013327,-0.00081200,-0.00017913,0.00031281
 ,-0.00024968,0.00052116,0.00003282,-0.00258679,-0.00334294,0.00622628,
 0.07124216,0.08553895,-0.27036604,-0.00331177,0.00450249,-0.00613153,0
 .00548065,0.00787235,-0.01513936,0.00094798,-0.00281739,-0.00259602,0.
 00060647,0.00024134,0.00046727,-0.00012425,-0.00005809,-0.00005490,-0.
 00002860,-0.00017064,-0.00002731,-0.00005053,-0.00002743,0.00004162,0.
 00005453,-0.00004240,-0.00000807,0.00000414,0.00002827,-0.00005347,-0.
 00002088,0.00000265,0.00000472,0.00001052,-0.00001496,0.00000417,-0.00
 003718,-0.00005167,0.00012947,0.00004551,0.00016244,-0.00016213,0.0005
 4881,0.00005690,-0.00050173,-0.00040587,0.00053102,0.00053322,-0.00042
 863,-0.00054138,0.00020936,-0.00007045,0.00073560,0.00018059,0.0012384
 5,0.00025600,0.00041665,-0.00000048,0.00000089,0.00000500,-0.00000029,
 0.00000600,-0.00001024,0.00005165,-0.00028359,0.00001213,0.00002961,0.
 00004505,-0.00018282,0.00007446,0.00003391,-0.00001333,0.00025484,-0.0
 0008122,0.00141087,-0.00084074,-0.00133003,0.00066646,-0.07187077,-0.0
 9160010,0.28475714,0.00001686,0.00000577,-0.00000872,-0.00001466,0.000
 02667,0.00000396,0.00000435,0.00001766,0.00000421,0.00000152,-0.000063
 62,-0.00005412,-0.00002393,0.00004114,0.00000055,-0.00002280,-0.000004
 62,0.00007625,0.00002590,0.00000839,0.00001565,-0.00001810,-0.00001947
 ,-0.00003429,0.00005023,-0.00028456,0.00039995,0.00003395,-0.00003933,
 0.00003364,0.00338457,0.00029224,0.00243894,-0.00993919,0.00374488,0.0
 1014787,-0.19739014,-0.07007093,0.12943906,-0.00153835,-0.00178141,0.0
 0789810,-0.00149180,0.00034876,-0.00162426,-0.00009458,-0.00018871,-0.
 00028758,0.00055308,-0.00053813,0.00004482,0.00003581,0.00023233,-0.00
 055174,-0.00001689,-0.00008724,-0.00002597,0.00000838,0.00011925,-0.00
 010567,-0.00003242,0.00008022,-0.00004118,-0.00014230,0.00060350,0.000
 34323,0.00422991,-0.00201646,0.00268954,0.00024575,-0.00025386,0.00067
 310,-0.00068007,0.00008603,-0.00064958,-0.00023888,-0.00003347,-0.0000
 7207,0.00011256,0.00037666,-0.00029668,-0.00000464,0.00000085,0.000002
 65,-0.00000335,0.00000163,0.00000109,-0.00000838,0.00000152,-0.0000009
 5,-0.00000629,0.00000865,-0.00000085,0.00000191,0.00002100,-0.00000303
 ,-0.00000660,0.00000427,0.00001823,-0.00001435,-0.00003096,0.00004509,
 -0.00013070,0.00016462,0.00009757,0.20311439,-0.00000094,0.00000296,-0
 .00000107,0.00000848,0.00000188,-0.00001108,0.00000152,-0.00001220,-0.
 00000591,-0.00000702,0.00002213,0.00009409,-0.00001031,-0.00000889,-0.
 00001691,0.00000693,-0.00002241,-0.00005038,-0.00000886,-0.00000494,0.
 00002275,0.00003714,0.00002651,0.00008518,0.00027536,0.00058153,-0.000
 56203,-0.00001396,-0.00002262,0.00005660,0.00213311,-0.00144422,-0.004
 37508,0.02291959,0.00471181,-0.02029741,-0.07001899,-0.08412793,0.0551
 3688,-0.02200160,-0.00528100,0.01788125,-0.00043103,0.00083330,0.00179
 833,-0.00041191,-0.00051522,-0.00099348,0.00045185,-0.00016160,-0.0001
 4734,0.00001124,0.00018061,0.00014465,-0.00005713,-0.00007927,-0.00012
 018,-0.00004422,0.00019357,-0.00000767,0.00004597,0.00002137,-0.000142
 16,0.00020689,-0.00020370,0.00004605,-0.00128349,-0.00485505,-0.002046
 55,-0.00126294,-0.00009452,0.00098526,-0.00017498,-0.00040255,0.000397
 62,0.00016062,0.00047787,0.00005174,0.00022721,-0.00089884,-0.00034189
 ,-0.00000030,-0.00000109,-0.00000132,-0.00000094,-0.00000279,0.0000004
 2,0.00001192,0.00002142,0.00002283,-0.00000699,0.00001214,-0.00000033,
 0.00000737,-0.00001644,-0.00001021,0.00000486,0.00000208,-0.00000812,-
 0.00005165,-0.00001146,-0.00002651,0.00010931,-0.00020178,-0.00016437,
 0.06917260,0.09119637,-0.00001331,-0.00000224,-0.00000834,0.00001265,-
 0.00001685,0.00001225,0.00000281,-0.00002059,-0.00000063,-0.00002250,0
 .00004828,-0.00003806,0.00000545,-0.00002933,0.00001257,0.00003858,0.0
 0000980,0.00003595,-0.00000353,0.00000722,-0.00002437,0.00002465,-0.00
 005547,0.00010401,0.00042157,0.00041252,-0.00010121,-0.00001054,-0.000
 01335,0.00000927,0.00308726,-0.00281493,0.00263862,0.01504000,-0.00250
 950,-0.01659013,0.12906708,0.05574427,-0.14745896,0.00230357,-0.001401
 42,0.00413861,-0.00206471,-0.00051559,-0.00130374,-0.00000667,-0.00081
 457,-0.00109530,-0.00001483,-0.00048948,0.00039131,0.00012208,-0.00001
 977,-0.00054944,0.00002402,-0.00001987,0.00006865,0.00006858,-0.000031
 14,-0.00010885,-0.00013156,0.00008831,0.00002133,-0.00034366,0.0008437
 3,0.00029307,0.00353026,-0.00117501,0.00398423,0.00035585,-0.00020222,
 0.00051011,-0.00068286,0.00041931,-0.00063331,-0.00015899,0.00003258,-
 0.00003009,-0.00014062,0.00000102,-0.00016439,0.00000266,-0.00000099,0
 .00000064,0.00000272,-0.00000157,-0.00000089,-0.00001909,-0.00000031,-
 0.00000239,0.00001973,-0.00000655,0.00000004,0.00000025,-0.00002813,-0
 .00000285,0.00000900,-0.00000079,-0.00004023,0.00004854,0.00001178,-0.
 00003497,0.00002413,-0.00010582,-0.00008197,-0.15062621,-0.04740105,0.
 15604228,0.00001285,0.00000257,0.00000058,-0.00000747,0.00001569,-0.00
 000042,-0.00000222,0.00001028,0.00000033,0.00000888,-0.00002609,-0.000
 00107,-0.00001550,0.00002230,-0.00000856,-0.00002072,-0.00000459,-0.00
 000673,0.00001240,0.00000181,-0.00000777,-0.00003472,-0.00001596,0.000
 01449,-0.00002873,-0.00003707,-0.00006999,-0.00002759,0.00004257,0.000
 06623,0.00010639,0.00004174,0.00006091,-0.00013925,-0.00017701,0.00005
 049,-0.00010109,0.00021413,0.00013205,0.00213841,0.00051394,0.00077170
 ,-0.00105484,0.00146206,-0.00095834,-0.00498710,-0.00035392,0.00554953
 ,-0.07199339,0.03255048,0.11785980,0.00150918,-0.00052204,-0.00015393,
 -0.00261832,-0.00087800,-0.00119322,-0.00052280,0.00009859,0.00013978,
 0.00088159,0.00018963,0.00011087,0.00500105,0.00071549,0.00143204,0.00
 016744,-0.00019242,-0.00015940,-0.00000202,-0.00010279,0.00001859,-0.0
 0003157,-0.00009517,0.00003199,0.00004263,-0.00004339,-0.00009758,0.00
 002360,0.00031383,-0.00015896,-0.00000296,0.00000072,0.00000074,-0.000
 00139,0.00000099,0.00000102,0.00000239,0.00000767,-0.00000089,-0.00000
 212,-0.00000283,0.00000151,0.00000227,0.00000914,-0.00000021,0.0000049
 1,0.00000245,0.00000150,0.00000294,-0.00000218,-0.00000099,-0.00000475
 ,0.00002601,0.00001134,-0.00000578,0.00000294,0.00001973,0.07147653,-0
 .00000108,-0.00000020,0.00000013,0.00000161,-0.00000289,0.00000232,-0.
 00000115,-0.00000338,0.00000011,-0.00000394,0.00000897,-0.00000019,-0.
 00000065,-0.00000336,0.00000110,0.00001229,0.00000856,-0.00000957,-0.0
 0000059,-0.00000353,-0.00000296,0.00000106,-0.00000681,0.00000673,0.00
 001992,-0.00001294,-0.00000329,-0.00001204,0.00000447,0.00001428,-0.00
 003204,0.00007978,-0.00000497,-0.00001221,-0.00008970,-0.00009928,0.00
 004639,0.00031915,0.00010461,0.00123890,0.00110346,-0.00131745,0.00127
 297,-0.00596890,0.00101057,0.00689643,-0.00290229,-0.02021849,0.032610
 87,-0.06013128,-0.05291727,-0.00875805,0.01122089,0.01491951,-0.000716
 09,0.00010012,-0.00120899,-0.00017919,0.00029404,-0.00019413,-0.000339
 52,0.00026354,0.00165717,0.00156298,-0.00196119,0.00287524,-0.00018418
 ,-0.00059957,-0.00016364,-0.00000049,0.00008556,-0.00000425,0.00001261
 ,-0.00003876,-0.00001664,0.00009369,-0.00003394,-0.00008050,0.00010639
 ,0.00011769,-0.00006189,0.00000044,0.00000012,-0.00000027,0.00000082,-
 0.00000021,-0.00000045,-0.00000305,-0.00000169,-0.00000179,0.00000277,
 0.00000274,0.00000113,-0.00000145,-0.00000203,-0.00000148,0.00000027,-
 0.00000107,-0.00000218,0.00000460,0.00000791,0.00000496,0.00000233,-0.
 00000226,0.00000102,0.00003803,0.00007008,0.00004722,-0.03386243,0.058
 39150,0.00000734,0.00000120,0.00000071,-0.00000363,0.00000840,-0.00000
 168,-0.00000087,0.00000742,0.00000011,0.00000525,-0.00001836,0.0000021
 9,-0.00000800,0.00001370,-0.00000455,-0.00001149,-0.00000490,-0.000000
 46,0.00000783,0.00000090,-0.00000292,-0.00001683,-0.00001014,0.0000079
 9,0.00000523,-0.00001715,-0.00002770,-0.00001542,0.00002288,0.00002982
 ,0.00001686,0.00002736,0.00000109,-0.00007375,-0.00007571,-0.00000711,
 -0.00001486,0.00011604,0.00009419,0.00077041,0.00003077,0.00039483,-0.
 00101589,0.00112954,0.00100026,-0.00141563,-0.00001467,0.00077235,0.11
 745716,-0.05091440,-0.29945893,0.00721066,-0.00899369,-0.01036882,-0.0
 0123409,-0.00071076,0.00086923,0.00023328,-0.00064543,-0.00043298,0.00
 063343,0.00035438,-0.00117248,0.00100840,0.00369987,-0.00064101,0.0000
 0096,-0.00003226,-0.00002332,0.00002592,-0.00003599,0.00000201,-0.0000
 3212,-0.00005097,0.00002748,0.00002143,-0.00001465,-0.00003362,0.00000
 226,0.00013247,-0.00005502,-0.00000137,0.00000025,0.00000040,-0.000001
 04,0.00000033,0.00000068,-0.00000108,0.00000521,-0.00000223,-0.0000011
 2,0.00000095,0.00000084,0.00000142,0.00000598,-0.00000134,0.00000152,0
 .00000029,0.00000178,0.00000414,-0.00000182,0.00000208,-0.00000543,0.0
 0000975,0.00000506,0.00001555,0.00001024,0.00000691,-0.12361335,0.0555
 7808,0.30926424,0.00000103,0.00000101,0.00000176,-0.00000001,0.0000015
 6,-0.00000214,-0.00000031,-0.00000047,0.00000220,0.00000440,0.00000315
 ,-0.00000090,-0.00000525,-0.00000218,0.00000060,-0.00000130,-0.0000039
 1,-0.00000196,0.00000025,0.00000626,0.00000386,-0.00001074,-0.00000630
 ,0.00000608,0.00000211,-0.00000184,-0.00000435,-0.00000027,0.00000371,
 0.00000524,0.00002399,-0.00000555,-0.00003245,-0.00003796,0.00002524,0
 .00001699,-0.00007180,-0.00001680,-0.00000279,0.00026694,0.00011981,0.
 00009443,0.00031178,0.00011355,0.00021478,-0.00030614,0.00001744,-0.00
 012309,-0.00069989,-0.00034449,-0.00029284,-0.00092988,0.00026590,0.00
 111159,-0.09058788,0.10816245,0.07229423,-0.00311437,0.00567163,-0.000
 21557,0.00684035,0.00232833,0.00301992,0.00232033,0.00090117,0.0008733
 3,0.00005254,0.00001999,-0.00006033,0.00002964,-0.00003427,-0.00002416
 ,-0.00000593,0.00000017,0.00002123,-0.00001180,-0.00000048,0.00000410,
 -0.00001689,0.00000364,0.00000653,-0.00000049,0.00000021,0.00000002,-0
 .00000001,-0.00000005,0.00000012,0.00000125,-0.00000809,0.00000018,0.0
 0000142,0.00000480,0.00000050,0.00000184,-0.00000039,-0.00000294,0.000
 00109,0.00000073,-0.00000214,0.00000428,-0.00000077,0.00000113,0.00000
 178,0.00000158,0.00000265,-0.00000439,-0.00000075,0.00000221,0.0000290
 2,0.00011604,-0.00002771,0.08841935,-0.00000691,-0.00000051,-0.0000029
 4,0.00000874,-0.00001143,-0.00000592,-0.00000067,-0.00000491,-0.000000
 92,0.00000261,0.00000627,0.00001680,0.00000473,-0.00001190,-0.00000238
 ,-0.00000188,0.00000732,0.00000171,-0.00000209,-0.00000530,0.00000406,
 0.00003213,0.00000918,-0.00001331,0.00001573,0.00001199,0.00004852,-0.
 00000513,-0.00001184,-0.00004826,-0.00002849,0.00000431,0.00003469,0.0
 0002911,-0.00002482,-0.00005782,0.00003544,-0.00003409,-0.00006392,0.0
 0001312,-0.00014259,0.00029346,0.00056283,-0.00024112,-0.00090988,0.00
 005892,-0.00055105,-0.00003199,-0.00058240,0.00102237,-0.00024214,0.00
 821171,-0.00908598,-0.01477233,0.10935311,-0.22946785,-0.10977839,-0.0
 0283874,0.00470094,0.00220712,0.00083325,0.00332760,0.00320286,0.00124
 826,-0.00360957,0.00293234,-0.00004297,-0.00003964,0.00000753,0.000024
 27,0.00002503,-0.00001263,0.00001606,0.00001423,-0.00000615,0.00001285
 ,-0.00002301,-0.00001852,-0.00000322,-0.00001625,-0.00002683,0.0000015
 6,-0.00000006,0.00000074,-0.00000035,0.00000031,0.00000079,0.00000018,
 0.00000750,0.00000147,-0.00000276,-0.00000376,-0.00000342,-0.00000282,
 -0.00000517,-0.00000054,-0.00000542,-0.00000321,-0.00000214,-0.0000012
 6,0.00000244,0.00000106,0.00000406,-0.00001132,-0.00000346,0.00001387,
 0.00001341,0.00000695,0.00000415,-0.00030958,0.00033562,-0.11625236,0.
 23487716,-0.00000095,0.00000033,0.00000076,0.00000090,-0.00000095,-0.0
 0000033,-0.00000032,-0.00000078,0.00000044,-0.00000124,0.00000524,0.00
 000150,-0.00000088,-0.00000372,-0.00000065,0.00000597,-0.00000037,-0.0
 0000742,-0.00000320,-0.00000078,0.00000402,0.00000062,0.00000013,-0.00
 000244,-0.00000017,0.00000017,0.00001394,-0.00000580,-0.00000255,-0.00
 000706,0.00001626,0.00001398,-0.00000108,0.00000456,0.00001442,0.00001
 362,-0.00006763,0.00003022,0.00004564,0.00006614,0.00025027,-0.0000647
 6,-0.00017928,0.00020857,0.00074023,-0.00021891,0.00018317,0.00006794,
 -0.00001841,-0.00103027,0.00024698,-0.00728495,0.00892576,0.01117243,0
 .07117594,-0.10697657,-0.12364330,0.00875689,-0.02273442,-0.00317526,0
 .00444226,-0.00125445,-0.00316471,0.00044773,0.00430486,-0.00288557,0.
 00004785,0.00007431,-0.00004383,0.00008302,-0.00004255,-0.00000091,-0.
 00004729,-0.00001461,0.00005673,0.00000220,-0.00003835,-0.00003421,-0.
 00000741,0.00000749,-0.00000160,0.00000009,0.00000006,0.00000022,0.000
 00040,-0.00000035,0.00000025,0.00000016,-0.00000288,-0.00000066,0.0000
 0131,0.00000274,0.00000017,0.00000015,-0.00000144,-0.00000052,-0.00000
 047,0.00000008,-0.00000132,0.00000188,0.00000039,0.00000072,0.00000136
 ,-0.00000208,0.00000189,-0.00000459,-0.00000143,-0.00000120,0.00008713
 ,0.00004814,-0.00023442,-0.07611349,0.11768202,0.12099489,0.00000010,0
 .00000018,-0.00000149,0.00000066,-0.00000098,0.00000237,-0.00000092,-0
 .00000198,-0.00000030,0.00000091,0.00000259,-0.00000452,-0.00000295,-0
 .00000070,0.00000041,-0.00000132,0.00000541,0.00000039,0.00000176,-0.0
 0000604,-0.00000593,0.00000295,-0.00000091,0.00000678,-0.00001167,-0.0
 0000592,-0.00001277,0.00000342,0.00000796,0.00001417,0.00001112,0.0000
 4382,-0.00002034,-0.00003126,-0.00001314,0.00002302,-0.00003461,0.0000
 0283,0.00000646,0.00006988,-0.00005884,-0.00003421,0.00144638,0.000629
 53,-0.00029867,-0.00102589,-0.00045707,-0.00037581,0.00081018,0.000017
 42,-0.00012539,0.00473553,0.00189578,0.00415590,0.00559553,-0.00728508
 ,0.00411973,-0.03479914,0.00416379,0.00982362,-0.00272338,0.01186999,-
 0.01127651,0.00058262,0.00245186,0.00242460,0.00006026,-0.00001306,-0.
 00005864,-0.00000660,-0.00007489,0.00002594,-0.00005432,0.00006776,0.0
 0003430,0.00000349,0.00001537,0.00001921,-0.00001342,-0.00003798,0.000
 02234,-0.00000007,0.00000035,0.00000024,0.00000042,0.00000006,-0.00000
 005,-0.00000022,0.00000101,0.00000114,0.00000021,-0.00000202,0.0000003
 6,-0.00000178,-0.00000125,0.00000077,-0.00000009,-0.00000040,-0.000002
 70,0.00000007,0.00000143,0.00000286,0.00000199,0.00000256,0.00000082,0
 .00000939,-0.00000687,0.00000569,0.00018185,0.00006677,0.00006461,-0.0
 0250807,-0.00070921,-0.00118780,0.02769697,-0.00000216,-0.00000003,-0.
 00000014,0.00000077,-0.00000144,0.00000246,-0.00000010,-0.00000327,0.0
 0000032,-0.00000264,0.00001083,-0.00000276,0.00000022,-0.00000563,0.00
 000203,0.00000906,0.00000257,-0.00000485,-0.00000185,-0.00000126,0.000
 00067,0.00000312,0.00000047,0.00000353,0.00000195,0.00000406,0.0000044
 2,0.00000936,-0.00001177,0.00000349,-0.00002160,-0.00000088,-0.0000173
 0,0.00000795,-0.00000375,-0.00001107,0.00001834,-0.00005930,-0.0000256
 9,-0.00010842,0.00016786,0.00015061,0.00026209,-0.00013274,0.00128611,
 -0.00049066,-0.00003324,0.00000670,0.00001085,0.00019895,0.00051573,0.
 00257566,0.00102645,-0.00145387,-0.00011449,0.00778240,-0.00322773,0.0
 0755016,-0.19836804,0.15182949,0.00103165,-0.02386435,0.01936928,0.002
 79935,-0.00211245,-0.00404193,-0.00003686,0.00000735,0.00000708,0.0000
 2233,0.00003855,-0.00003387,0.00004052,-0.00001405,0.00001118,0.000003
 70,-0.00003275,-0.00004304,0.00001777,-0.00001318,-0.00000364,0.000000
 23,0.,0.00000018,0.00000083,-0.00000057,-0.00000018,-0.00000086,-0.000
 00083,0.00000014,0.00000223,-0.00000012,0.00000022,-0.00000047,-0.0000
 0259,-0.00000008,-0.00000051,-0.00000148,-0.00000378,0.00000096,0.0000
 0434,0.00000204,0.00000235,-0.00000194,-0.00000377,0.00000223,-0.00000
 048,0.00000355,0.00006669,-0.00000300,0.00004927,-0.00108965,-0.000415
 08,0.00035620,-0.01257013,0.21584041,0.00000215,0.00000078,0.00000109,
 -0.00000166,0.00000297,0.00000010,-0.00000028,0.00000113,0.00000010,-0
 .00000082,-0.00000238,-0.00000241,-0.00000345,0.00000253,-0.00000117,0
 .00000132,-0.00000211,-0.00000003,-0.00000082,-0.00000040,0.00000075,-
 0.00000176,-0.00000033,0.00000129,-0.00000453,-0.00000218,-0.00000245,
 0.00000241,-0.00000194,0.00000654,0.00001016,-0.00000205,-0.00001091,-
 0.00000782,0.00000417,0.00001098,-0.00000209,-0.00001515,-0.00000657,-
 0.00002601,0.00007107,0.00000135,0.00027106,-0.00010619,0.00089271,-0.
 00032336,-0.00006566,-0.00024251,-0.00026672,0.00090430,0.00050059,0.0
 0353594,0.00027384,-0.00370517,-0.00336941,0.01803851,-0.00426925,0.00
 638842,0.16105955,-0.21541538,-0.00004378,-0.01202518,0.01047813,0.001
 90178,-0.00266796,-0.00053443,0.00002013,0.00000550,0.00000505,-0.0000
 3252,0.00000495,-0.00002530,0.00001168,0.00000234,0.00002111,-0.000007
 54,-0.00001037,-0.00001121,0.00000669,-0.00000391,0.00000321,-0.000000
 42,0.00000007,0.00000009,-0.00000008,-0.00000023,0.,-0.00000007,0.0000
 0189,0.,0.00000053,-0.00000020,0.00000025,0.00000087,0.00000090,-0.000
 00018,-0.00000004,-0.00000066,-0.00000114,-0.00000029,-0.00000076,-0.0
 0000050,0.00000025,0.00000214,-0.00000022,-0.00000156,-0.00000145,0.00
 000149,0.00006906,0.00003736,-0.00001565,-0.00077681,-0.00077387,-0.00
 009115,-0.00735059,-0.16473099,0.21241078\\0.00000365,0.00000013,-0.00
 000097,0.00003482,-0.00000014,0.00000576,-0.00002178,0.00001044,-0.000
 00239,0.00000554,-0.00000308,-0.00000255,0.00000218,0.00000443,-0.0000
 0122,0.00001181,0.00002850,-0.00000100,-0.00000209,-0.00000316,0.00000
 381,0.00000081,-0.00000290,0.00000350,-0.00000268,-0.00000260,-0.00000
 654,-0.00000714,-0.00002306,0.00000300,-0.00000384,-0.00000333,0.00000
 185,-0.00000052,0.00000187,0.00000360,-0.00000013,-0.00000174,0.000001
 35,0.00000860,0.,-0.00000063,-0.00001503,-0.00000090,0.00000389,0.0000
 0514,-0.00000034,-0.00000553,0.00000149,-0.00000321,0.00000693,0.00000
 077,0.00000595,-0.00001049,-0.00000037,-0.00000310,0.00000077,-0.00000
 920,-0.00000089,-0.00000449,-0.00000579,-0.00000387,0.00000012,0.00000
 235,0.00000154,0.00000132,-0.00000182,0.00001038,-0.00000134,-0.000029
 11,-0.00000338,0.00001813,0.00001948,0.00000833,-0.00002522,-0.0000139
 2,-0.00001365,-0.00000163,0.00000541,-0.00000079,-0.00000828,0.0000060
 1,0.00000706,-0.00000353,0.00000740,0.00000430,0.00000033,0.00000567,0
 .00000048,0.00000302,0.00000054,-0.00000201,0.00000186,0.00000225,-0.0
 0000139,0.00000434,-0.00000231,-0.00000336,0.00000396,0.00000038,-0.00
 000230,0.00000435,-0.00000358,-0.00000046,0.00000080,0.00000122,0.0000
 0002,0.00000579,0.00000326,0.00000040,0.00000101,-0.00000369,-0.000001
 74,-0.00000151,-0.00000577,-0.00000243,-0.00000219\\\@


 AN AIRPLANE IS A COLLECTION OF SPARE PARTS
 FLYING IN CLOSE FORMATION.
 Job cpu time:  0 days 15 hours 20 minutes 45.9 seconds.
 File lengths (MBytes):  RWF=   1656 Int=      0 D2E=      0 Chk=     28 Scr=      1
 Normal termination of Gaussian 09 at Sun Dec 29 22:40:34 2013.
