 Entering Gaussian System, Link 0=g09
 Initial command:
 /opt/gaussian/g09/l1.exe /panfs/panfs.cluster/home/shuo/Gau-32723.inp -scrdir=/panfs/panfs.cluster/home/shuo/
 Default is to use a total of  12 processors:
                               12 via shared-memory
                                1 via Linda
 Entering Link 1 = /opt/gaussian/g09/l1.exe PID=     32724.
  
 Copyright (c) 1988,1990,1992,1993,1995,1998,2003,2009,2011,
            Gaussian, Inc.  All Rights Reserved.
  
 This is part of the Gaussian(R) 09 program.  It is based on
 the Gaussian(R) 03 system (copyright 2003, Gaussian, Inc.),
 the Gaussian(R) 98 system (copyright 1998, Gaussian, Inc.),
 the Gaussian(R) 94 system (copyright 1995, Gaussian, Inc.),
 the Gaussian 92(TM) system (copyright 1992, Gaussian, Inc.),
 the Gaussian 90(TM) system (copyright 1990, Gaussian, Inc.),
 the Gaussian 88(TM) system (copyright 1988, Gaussian, Inc.),
 the Gaussian 86(TM) system (copyright 1986, Carnegie Mellon
 University), and the Gaussian 82(TM) system (copyright 1983,
 Carnegie Mellon University). Gaussian is a federally registered
 trademark of Gaussian, Inc.
  
 This software contains proprietary and confidential information,
 including trade secrets, belonging to Gaussian, Inc.
  
 This software is provided under written license and may be
 used, copied, transmitted, or stored only in accord with that
 written license.
  
 The following legend is applicable only to US Government
 contracts under FAR:
  
                    RESTRICTED RIGHTS LEGEND
  
 Use, reproduction and disclosure by the US Government is
 subject to restrictions as set forth in subparagraphs (a)
 and (c) of the Commercial Computer Software - Restricted
 Rights clause in FAR 52.227-19.
  
 Gaussian, Inc.
 340 Quinnipiac St., Bldg. 40, Wallingford CT 06492
  
  
 ---------------------------------------------------------------
 Warning -- This program may not be used in any manner that
 competes with the business of Gaussian, Inc. or will provide
 assistance to any competitor of Gaussian, Inc.  The licensee
 of this program is prohibited from giving any competitor of
 Gaussian, Inc. access to this program.  By using this program,
 the user acknowledges that Gaussian, Inc. is engaged in the
 business of creating and licensing software in the field of
 computational chemistry and represents and warrants to the
 licensee that it is not a competitor of Gaussian, Inc. and that
 it will not use this program in any manner prohibited above.
 ---------------------------------------------------------------
  

 Cite this work as:
 Gaussian 09, Revision C.01,
 M. J. Frisch, G. W. Trucks, H. B. Schlegel, G. E. Scuseria, 
 M. A. Robb, J. R. Cheeseman, G. Scalmani, V. Barone, B. Mennucci, 
 G. A. Petersson, H. Nakatsuji, M. Caricato, X. Li, H. P. Hratchian, 
 A. F. Izmaylov, J. Bloino, G. Zheng, J. L. Sonnenberg, M. Hada, 
 M. Ehara, K. Toyota, R. Fukuda, J. Hasegawa, M. Ishida, T. Nakajima, 
 Y. Honda, O. Kitao, H. Nakai, T. Vreven, J. A. Montgomery, Jr., 
 J. E. Peralta, F. Ogliaro, M. Bearpark, J. J. Heyd, E. Brothers, 
 K. N. Kudin, V. N. Staroverov, T. Keith, R. Kobayashi, J. Normand, 
 K. Raghavachari, A. Rendell, J. C. Burant, S. S. Iyengar, J. Tomasi, 
 M. Cossi, N. Rega, J. M. Millam, M. Klene, J. E. Knox, J. B. Cross, 
 V. Bakken, C. Adamo, J. Jaramillo, R. Gomperts, R. E. Stratmann, 
 O. Yazyev, A. J. Austin, R. Cammi, C. Pomelli, J. W. Ochterski, 
 R. L. Martin, K. Morokuma, V. G. Zakrzewski, G. A. Voth, 
 P. Salvador, J. J. Dannenberg, S. Dapprich, A. D. Daniels, 
 O. Farkas, J. B. Foresman, J. V. Ortiz, J. Cioslowski, 
 and D. J. Fox, Gaussian, Inc., Wallingford CT, 2010.
 
 ******************************************
 Gaussian 09:  EM64L-G09RevC.01 23-Sep-2011
                28-Dec-2013 
 ******************************************
 %chk=10_C22H12N6S.chk
 %NProcShared=12
 Will use up to   12 processors via shared memory.
 %Mem=8000MB
 Default route:  MaxDisk=100GB
 --------------------------------------------
 #B3LYP/6-31++G(d,p) opt scf=direct freq test
 --------------------------------------------
 1/14=-1,18=20,19=15,26=3,38=1/1,3;
 2/9=110,12=2,17=6,18=5,40=1/2;
 3/5=1,6=6,7=1111,11=2,16=1,25=1,30=1,71=1,74=-5/1,2,3;
 4//1;
 5/5=2,38=5/2;
 6/7=2,8=2,9=2,10=2,28=1/1;
 7//1,2,3,16;
 1/14=-1,18=20,19=15/3(2);
 2/9=110/2;
 99//99;
 2/9=110/2;
 3/5=1,6=6,7=1111,11=2,16=1,25=1,30=1,71=1,74=-5/1,2,3;
 4/5=5,16=3/1;
 5/5=2,38=5/2;
 7//1,2,3,16;
 1/14=-1,18=20,19=15/3(-5);
 2/9=110/2;
 6/7=2,8=2,9=2,10=2,19=2,28=1/1;
 99/9=1/99;
 ----------------------------------------------------------------------
 Geom opt of No.10 candidate from the CEPDB database with SMILE code of
  [SiH2]1cccc1-c1ncc(s1)-c1cnc(-c2scc3ccoc23)c2nsnc12, HPC, 20131227, S
 huo Dai, Gaussian09
 ----------------------------------------------------------------------
 Charge =  0 Multiplicity = 1
 Symbolic Z-Matrix:
 Si                    0.25346   1.49245  -0.14567 
 H                     0.31018   2.30699   1.09732 
 H                     0.07984   2.18427  -1.45252 
 C                     1.47164   0.10617  -0.1742 
 C                     0.86474  -1.09675  -0.18748 
 C                    -0.59238  -1.07379  -0.09957 
 C                    -1.09371   0.16309   0.07577 
 C                    -2.14182   0.4016    0.98813 
 N                    -2.6094   -0.43096   1.90176 
 C                    -3.172     0.29479   2.9339 
 C                    -3.09159   1.66354   2.78023 
 S                    -2.79131   1.98199   1.12908 
 C                    -3.29454   2.77616   3.66534 
 C                    -2.92322   4.08907   3.3578 
 N                    -3.11272   5.17963   4.12651 
 C                    -3.71428   5.08058   5.33996 
 C                    -3.82614   6.30038   6.08219 
 S                    -4.17668   6.3822    7.76752 
 C                    -4.03416   8.09948   7.81676 
 C                    -3.72677   8.53632   6.5855 
 C                    -3.44628   9.71695   5.87515 
 C                    -3.20353   9.31154   4.55636 
 O                    -3.30887   7.95022   4.36109 
 C                    -3.61925   7.54938   5.62762 
 C                    -4.12263   3.80582   5.80401 
 N                    -4.72451   3.47647   6.96198 
 S                    -4.94022   1.84288   6.97032 
 N                    -4.30715   1.46635   5.49501 
 C                    -3.88891   2.61517   4.93329 
 H                     2.51996   0.32084  -0.06274 
 H                     1.39786  -2.02871  -0.06142 
 H                    -1.14893  -1.97092   0.15511 
 H                    -3.55091  -0.23389   3.80137 
 H                    -2.428     4.34462   2.42041 
 H                    -4.18451   8.60922   8.75695 
 H                    -3.41166   10.73078   6.24019 
 H                    -2.94773   9.86307   3.66089 
 

 GradGradGradGradGradGradGradGradGradGradGradGradGradGradGradGradGradGrad
 Berny optimization.
 Initialization pass.
                           ----------------------------
                           !    Initial Parameters    !
                           ! (Angstroms and Degrees)  !
 --------------------------                            --------------------------
 ! Name  Definition              Value          Derivative Info.                !
 --------------------------------------------------------------------------------
 ! R1    R(1,2)                  1.4872         estimate D2E/DX2                !
 ! R2    R(1,3)                  1.4888         estimate D2E/DX2                !
 ! R3    R(1,4)                  1.8457         estimate D2E/DX2                !
 ! R4    R(1,7)                  1.9055         estimate D2E/DX2                !
 ! R5    R(4,5)                  1.3474         estimate D2E/DX2                !
 ! R6    R(4,30)                 1.0759         estimate D2E/DX2                !
 ! R7    R(5,6)                  1.46           estimate D2E/DX2                !
 ! R8    R(5,31)                 1.081          estimate D2E/DX2                !
 ! R9    R(6,7)                  1.3461         estimate D2E/DX2                !
 ! R10   R(6,32)                 1.086          estimate D2E/DX2                !
 ! R11   R(7,8)                  1.4099         estimate D2E/DX2                !
 ! R12   R(8,9)                  1.3216         estimate D2E/DX2                !
 ! R13   R(8,12)                 1.7144         estimate D2E/DX2                !
 ! R14   R(9,10)                 1.3815         estimate D2E/DX2                !
 ! R15   R(10,11)                1.3797         estimate D2E/DX2                !
 ! R16   R(10,33)                1.0842         estimate D2E/DX2                !
 ! R17   R(11,12)                1.7082         estimate D2E/DX2                !
 ! R18   R(11,13)                1.4362         estimate D2E/DX2                !
 ! R19   R(13,14)                1.3986         estimate D2E/DX2                !
 ! R20   R(13,29)                1.4096         estimate D2E/DX2                !
 ! R21   R(14,15)                1.3476         estimate D2E/DX2                !
 ! R22   R(14,34)                1.0905         estimate D2E/DX2                !
 ! R23   R(15,16)                1.358          estimate D2E/DX2                !
 ! R24   R(16,17)                1.4322         estimate D2E/DX2                !
 ! R25   R(16,25)                1.4167         estimate D2E/DX2                !
 ! R26   R(17,18)                1.7233         estimate D2E/DX2                !
 ! R27   R(17,24)                1.3452         estimate D2E/DX2                !
 ! R28   R(18,19)                1.7239         estimate D2E/DX2                !
 ! R29   R(19,20)                1.3421         estimate D2E/DX2                !
 ! R30   R(19,35)                1.08           estimate D2E/DX2                !
 ! R31   R(20,21)                1.4061         estimate D2E/DX2                !
 ! R32   R(20,24)                1.3795         estimate D2E/DX2                !
 ! R33   R(21,22)                1.4009         estimate D2E/DX2                !
 ! R34   R(21,36)                1.0781         estimate D2E/DX2                !
 ! R35   R(22,23)                1.3793         estimate D2E/DX2                !
 ! R36   R(22,37)                1.0824         estimate D2E/DX2                !
 ! R37   R(23,24)                1.3642         estimate D2E/DX2                !
 ! R38   R(25,26)                1.346          estimate D2E/DX2                !
 ! R39   R(25,29)                1.4935         estimate D2E/DX2                !
 ! R40   R(26,27)                1.6478         estimate D2E/DX2                !
 ! R41   R(27,28)                1.649          estimate D2E/DX2                !
 ! R42   R(28,29)                1.3455         estimate D2E/DX2                !
 ! A1    A(2,1,3)              118.9197         estimate D2E/DX2                !
 ! A2    A(2,1,4)              113.5235         estimate D2E/DX2                !
 ! A3    A(2,1,7)              108.1757         estimate D2E/DX2                !
 ! A4    A(3,1,4)              114.3565         estimate D2E/DX2                !
 ! A5    A(3,1,7)              110.1042         estimate D2E/DX2                !
 ! A6    A(4,1,7)               86.8143         estimate D2E/DX2                !
 ! A7    A(1,4,5)              111.9265         estimate D2E/DX2                !
 ! A8    A(1,4,30)             119.4491         estimate D2E/DX2                !
 ! A9    A(5,4,30)             128.1735         estimate D2E/DX2                !
 ! A10   A(4,5,6)              115.7797         estimate D2E/DX2                !
 ! A11   A(4,5,31)             123.1183         estimate D2E/DX2                !
 ! A12   A(6,5,31)             119.9162         estimate D2E/DX2                !
 ! A13   A(5,6,7)              113.2041         estimate D2E/DX2                !
 ! A14   A(5,6,32)             120.8372         estimate D2E/DX2                !
 ! A15   A(7,6,32)             122.5233         estimate D2E/DX2                !
 ! A16   A(1,7,6)              111.2594         estimate D2E/DX2                !
 ! A17   A(1,7,8)              118.8646         estimate D2E/DX2                !
 ! A18   A(6,7,8)              121.1045         estimate D2E/DX2                !
 ! A19   A(7,8,9)              127.1434         estimate D2E/DX2                !
 ! A20   A(7,8,12)             119.3907         estimate D2E/DX2                !
 ! A21   A(9,8,12)             112.9453         estimate D2E/DX2                !
 ! A22   A(8,9,10)             109.2466         estimate D2E/DX2                !
 ! A23   A(9,10,11)            114.4702         estimate D2E/DX2                !
 ! A24   A(9,10,33)            118.9409         estimate D2E/DX2                !
 ! A25   A(11,10,33)           126.3855         estimate D2E/DX2                !
 ! A26   A(10,11,12)           107.6291         estimate D2E/DX2                !
 ! A27   A(10,11,13)           133.7646         estimate D2E/DX2                !
 ! A28   A(12,11,13)           118.4338         estimate D2E/DX2                !
 ! A29   A(8,12,11)             88.5224         estimate D2E/DX2                !
 ! A30   A(11,13,14)           123.6558         estimate D2E/DX2                !
 ! A31   A(11,13,29)           121.7013         estimate D2E/DX2                !
 ! A32   A(14,13,29)           114.6423         estimate D2E/DX2                !
 ! A33   A(13,14,15)           126.6465         estimate D2E/DX2                !
 ! A34   A(13,14,34)           121.9744         estimate D2E/DX2                !
 ! A35   A(15,14,34)           111.3788         estimate D2E/DX2                !
 ! A36   A(14,15,16)           120.8613         estimate D2E/DX2                !
 ! A37   A(15,16,17)           115.82           estimate D2E/DX2                !
 ! A38   A(15,16,25)           119.0779         estimate D2E/DX2                !
 ! A39   A(17,16,25)           125.0345         estimate D2E/DX2                !
 ! A40   A(16,17,18)           124.2717         estimate D2E/DX2                !
 ! A41   A(16,17,24)           127.1319         estimate D2E/DX2                !
 ! A42   A(18,17,24)           108.5226         estimate D2E/DX2                !
 ! A43   A(17,18,19)            93.3487         estimate D2E/DX2                !
 ! A44   A(18,19,20)           108.4795         estimate D2E/DX2                !
 ! A45   A(18,19,35)           118.9162         estimate D2E/DX2                !
 ! A46   A(20,19,35)           132.6015         estimate D2E/DX2                !
 ! A47   A(19,20,21)           141.4834         estimate D2E/DX2                !
 ! A48   A(19,20,24)           114.9598         estimate D2E/DX2                !
 ! A49   A(21,20,24)           103.5542         estimate D2E/DX2                !
 ! A50   A(20,21,22)           105.4953         estimate D2E/DX2                !
 ! A51   A(20,21,36)           128.6775         estimate D2E/DX2                !
 ! A52   A(22,21,36)           125.8263         estimate D2E/DX2                !
 ! A53   A(21,22,23)           113.933          estimate D2E/DX2                !
 ! A54   A(21,22,37)           132.2478         estimate D2E/DX2                !
 ! A55   A(23,22,37)           113.8191         estimate D2E/DX2                !
 ! A56   A(22,23,24)           100.1332         estimate D2E/DX2                !
 ! A57   A(17,24,20)           114.6859         estimate D2E/DX2                !
 ! A58   A(17,24,23)           128.429          estimate D2E/DX2                !
 ! A59   A(20,24,23)           116.8817         estimate D2E/DX2                !
 ! A60   A(16,25,26)           129.1141         estimate D2E/DX2                !
 ! A61   A(16,25,29)           118.7688         estimate D2E/DX2                !
 ! A62   A(26,25,29)           112.1164         estimate D2E/DX2                !
 ! A63   A(25,26,27)           107.7869         estimate D2E/DX2                !
 ! A64   A(26,27,28)            99.8802         estimate D2E/DX2                !
 ! A65   A(27,28,29)           107.3315         estimate D2E/DX2                !
 ! A66   A(13,29,25)           119.9589         estimate D2E/DX2                !
 ! A67   A(13,29,28)           127.1675         estimate D2E/DX2                !
 ! A68   A(25,29,28)           112.8719         estimate D2E/DX2                !
 ! D1    D(2,1,4,5)            115.4379         estimate D2E/DX2                !
 ! D2    D(2,1,4,30)           -57.4768         estimate D2E/DX2                !
 ! D3    D(3,1,4,5)           -103.666          estimate D2E/DX2                !
 ! D4    D(3,1,4,30)            83.4193         estimate D2E/DX2                !
 ! D5    D(7,1,4,5)              6.9864         estimate D2E/DX2                !
 ! D6    D(7,1,4,30)          -165.9283         estimate D2E/DX2                !
 ! D7    D(2,1,7,6)           -123.1996         estimate D2E/DX2                !
 ! D8    D(2,1,7,8)             24.733          estimate D2E/DX2                !
 ! D9    D(3,1,7,6)            105.3342         estimate D2E/DX2                !
 ! D10   D(3,1,7,8)           -106.7332         estimate D2E/DX2                !
 ! D11   D(4,1,7,6)             -9.4674         estimate D2E/DX2                !
 ! D12   D(4,1,7,8)            138.4652         estimate D2E/DX2                !
 ! D13   D(1,4,5,6)             -3.3803         estimate D2E/DX2                !
 ! D14   D(1,4,5,31)          -170.8968         estimate D2E/DX2                !
 ! D15   D(30,4,5,6)           168.7668         estimate D2E/DX2                !
 ! D16   D(30,4,5,31)            1.2504         estimate D2E/DX2                !
 ! D17   D(4,5,6,7)             -4.3701         estimate D2E/DX2                !
 ! D18   D(4,5,6,32)          -163.9568         estimate D2E/DX2                !
 ! D19   D(31,5,6,7)           163.5735         estimate D2E/DX2                !
 ! D20   D(31,5,6,32)            3.9868         estimate D2E/DX2                !
 ! D21   D(5,6,7,1)              9.6291         estimate D2E/DX2                !
 ! D22   D(5,6,7,8)           -137.4808         estimate D2E/DX2                !
 ! D23   D(32,6,7,1)           168.8244         estimate D2E/DX2                !
 ! D24   D(32,6,7,8)            21.7146         estimate D2E/DX2                !
 ! D25   D(1,7,8,9)           -133.2681         estimate D2E/DX2                !
 ! D26   D(1,7,8,12)            37.8386         estimate D2E/DX2                !
 ! D27   D(6,7,8,9)             11.4311         estimate D2E/DX2                !
 ! D28   D(6,7,8,12)          -177.4622         estimate D2E/DX2                !
 ! D29   D(7,8,9,10)           153.9351         estimate D2E/DX2                !
 ! D30   D(12,8,9,10)          -17.654          estimate D2E/DX2                !
 ! D31   D(7,8,12,11)         -147.8328         estimate D2E/DX2                !
 ! D32   D(9,8,12,11)           24.4768         estimate D2E/DX2                !
 ! D33   D(8,9,10,11)           -1.0924         estimate D2E/DX2                !
 ! D34   D(8,9,10,33)         -176.2402         estimate D2E/DX2                !
 ! D35   D(9,10,11,12)          18.7758         estimate D2E/DX2                !
 ! D36   D(9,10,11,13)        -166.2479         estimate D2E/DX2                !
 ! D37   D(33,10,11,12)       -166.4999         estimate D2E/DX2                !
 ! D38   D(33,10,11,13)          8.4764         estimate D2E/DX2                !
 ! D39   D(10,11,12,8)         -23.2351         estimate D2E/DX2                !
 ! D40   D(13,11,12,8)         160.889          estimate D2E/DX2                !
 ! D41   D(10,11,13,14)        167.9463         estimate D2E/DX2                !
 ! D42   D(10,11,13,29)        -11.7544         estimate D2E/DX2                !
 ! D43   D(12,11,13,14)        -17.4995         estimate D2E/DX2                !
 ! D44   D(12,11,13,29)        162.7998         estimate D2E/DX2                !
 ! D45   D(11,13,14,15)        178.3201         estimate D2E/DX2                !
 ! D46   D(11,13,14,34)         -1.4764         estimate D2E/DX2                !
 ! D47   D(29,13,14,15)         -1.9601         estimate D2E/DX2                !
 ! D48   D(29,13,14,34)        178.2435         estimate D2E/DX2                !
 ! D49   D(11,13,29,25)       -177.9749         estimate D2E/DX2                !
 ! D50   D(11,13,29,28)          1.5188         estimate D2E/DX2                !
 ! D51   D(14,13,29,25)          2.2992         estimate D2E/DX2                !
 ! D52   D(14,13,29,28)       -178.2071         estimate D2E/DX2                !
 ! D53   D(13,14,15,16)          0.2244         estimate D2E/DX2                !
 ! D54   D(34,14,15,16)       -179.9611         estimate D2E/DX2                !
 ! D55   D(14,15,16,17)        178.2814         estimate D2E/DX2                !
 ! D56   D(14,15,16,25)          1.1199         estimate D2E/DX2                !
 ! D57   D(15,16,17,18)       -164.0474         estimate D2E/DX2                !
 ! D58   D(15,16,17,24)         12.4657         estimate D2E/DX2                !
 ! D59   D(25,16,17,18)         12.9227         estimate D2E/DX2                !
 ! D60   D(25,16,17,24)       -170.5642         estimate D2E/DX2                !
 ! D61   D(15,16,25,26)        179.7048         estimate D2E/DX2                !
 ! D62   D(15,16,25,29)         -0.6271         estimate D2E/DX2                !
 ! D63   D(17,16,25,26)          2.8256         estimate D2E/DX2                !
 ! D64   D(17,16,25,29)       -177.5063         estimate D2E/DX2                !
 ! D65   D(16,17,18,19)        177.03           estimate D2E/DX2                !
 ! D66   D(24,17,18,19)         -0.0387         estimate D2E/DX2                !
 ! D67   D(16,17,24,20)       -176.5786         estimate D2E/DX2                !
 ! D68   D(16,17,24,23)          2.7205         estimate D2E/DX2                !
 ! D69   D(18,17,24,20)          0.3829         estimate D2E/DX2                !
 ! D70   D(18,17,24,23)        179.682          estimate D2E/DX2                !
 ! D71   D(17,18,19,20)         -0.3095         estimate D2E/DX2                !
 ! D72   D(17,18,19,35)       -179.7718         estimate D2E/DX2                !
 ! D73   D(18,19,20,21)       -178.7085         estimate D2E/DX2                !
 ! D74   D(18,19,20,24)          0.5892         estimate D2E/DX2                !
 ! D75   D(35,19,20,21)          0.6521         estimate D2E/DX2                !
 ! D76   D(35,19,20,24)        179.9498         estimate D2E/DX2                !
 ! D77   D(19,20,21,22)        179.5659         estimate D2E/DX2                !
 ! D78   D(19,20,21,36)         -0.0826         estimate D2E/DX2                !
 ! D79   D(24,20,21,22)          0.2209         estimate D2E/DX2                !
 ! D80   D(24,20,21,36)       -179.4276         estimate D2E/DX2                !
 ! D81   D(19,20,24,17)         -0.6615         estimate D2E/DX2                !
 ! D82   D(19,20,24,23)        179.9541         estimate D2E/DX2                !
 ! D83   D(21,20,24,17)        178.8886         estimate D2E/DX2                !
 ! D84   D(21,20,24,23)         -0.4958         estimate D2E/DX2                !
 ! D85   D(20,21,22,23)          0.0886         estimate D2E/DX2                !
 ! D86   D(20,21,22,37)       -179.8278         estimate D2E/DX2                !
 ! D87   D(36,21,22,23)        179.7501         estimate D2E/DX2                !
 ! D88   D(36,21,22,37)         -0.1663         estimate D2E/DX2                !
 ! D89   D(21,22,23,24)         -0.3541         estimate D2E/DX2                !
 ! D90   D(37,22,23,24)        179.5782         estimate D2E/DX2                !
 ! D91   D(22,23,24,17)       -178.758          estimate D2E/DX2                !
 ! D92   D(22,23,24,20)          0.528          estimate D2E/DX2                !
 ! D93   D(16,25,26,27)       -179.111          estimate D2E/DX2                !
 ! D94   D(29,25,26,27)          1.2031         estimate D2E/DX2                !
 ! D95   D(16,25,29,13)         -1.1612         estimate D2E/DX2                !
 ! D96   D(16,25,29,28)        179.2767         estimate D2E/DX2                !
 ! D97   D(26,25,29,13)        178.5608         estimate D2E/DX2                !
 ! D98   D(26,25,29,28)         -1.0014         estimate D2E/DX2                !
 ! D99   D(25,26,27,28)         -0.965          estimate D2E/DX2                !
 ! D100  D(26,27,28,29)          0.3869         estimate D2E/DX2                !
 ! D101  D(27,28,29,13)       -179.2574         estimate D2E/DX2                !
 ! D102  D(27,28,29,25)          0.2666         estimate D2E/DX2                !
 --------------------------------------------------------------------------------
 Trust Radius=3.00D-01 FncErr=1.00D-07 GrdErr=1.00D-06
 Number of steps in this run=    222 maximum allowed number of steps=    222.
 GradGradGradGradGradGradGradGradGradGradGradGradGradGradGradGradGradGrad

                          Input orientation:                          
 ---------------------------------------------------------------------
 Center     Atomic      Atomic             Coordinates (Angstroms)
 Number     Number       Type             X           Y           Z
 ---------------------------------------------------------------------
      1         14           0        0.253460    1.492450   -0.145670
      2          1           0        0.310180    2.306990    1.097320
      3          1           0        0.079840    2.184270   -1.452520
      4          6           0        1.471640    0.106170   -0.174200
      5          6           0        0.864740   -1.096750   -0.187480
      6          6           0       -0.592380   -1.073790   -0.099570
      7          6           0       -1.093710    0.163090    0.075770
      8          6           0       -2.141820    0.401600    0.988130
      9          7           0       -2.609400   -0.430960    1.901760
     10          6           0       -3.172000    0.294790    2.933900
     11          6           0       -3.091590    1.663540    2.780230
     12         16           0       -2.791310    1.981990    1.129080
     13          6           0       -3.294540    2.776160    3.665340
     14          6           0       -2.923220    4.089070    3.357800
     15          7           0       -3.112720    5.179630    4.126510
     16          6           0       -3.714280    5.080580    5.339960
     17          6           0       -3.826140    6.300380    6.082190
     18         16           0       -4.176680    6.382200    7.767520
     19          6           0       -4.034160    8.099480    7.816760
     20          6           0       -3.726770    8.536320    6.585500
     21          6           0       -3.446280    9.716950    5.875150
     22          6           0       -3.203530    9.311540    4.556360
     23          8           0       -3.308870    7.950220    4.361090
     24          6           0       -3.619250    7.549380    5.627620
     25          6           0       -4.122630    3.805820    5.804010
     26          7           0       -4.724510    3.476470    6.961980
     27         16           0       -4.940220    1.842880    6.970320
     28          7           0       -4.307150    1.466350    5.495010
     29          6           0       -3.888910    2.615170    4.933290
     30          1           0        2.519960    0.320840   -0.062740
     31          1           0        1.397860   -2.028710   -0.061420
     32          1           0       -1.148930   -1.970920    0.155110
     33          1           0       -3.550910   -0.233890    3.801370
     34          1           0       -2.428000    4.344620    2.420410
     35          1           0       -4.184510    8.609220    8.756950
     36          1           0       -3.411660   10.730780    6.240190
     37          1           0       -2.947730    9.863070    3.660890
 ---------------------------------------------------------------------
                    Distance matrix (angstroms):
                    1          2          3          4          5
     1  Si   0.000000
     2  H    1.487184   0.000000
     3  H    1.488830   2.563162   0.000000
     4  C    1.845684   2.794523   2.808863   0.000000
     5  C    2.660708   3.680176   3.602983   1.347413   0.000000
     6  C    2.702436   3.698220   3.591282   2.378666   1.459950
     7  C    1.905545   2.758764   2.792500   2.578128   2.343507
     8  C    2.865802   3.107207   3.751061   3.807280   3.559005
     9  N    4.010915   4.082578   5.032160   4.610098   4.108266
    10  C    4.759403   4.421261   5.778000   5.590998   5.289108
    11  C    4.447417   3.849448   5.314631   5.654832   5.663837
    12  S    3.336954   3.118633   3.866404   4.836319   4.957688
    13  C    5.362836   4.450714   6.158674   6.677379   6.866095
    14  C    5.395186   4.329025   5.982124   6.903138   7.335556
    15  N    6.570996   5.398546   7.091558   8.077899   8.592069
    16  C    7.662230   6.472177   8.301912   9.057841   9.469922
    17  C    8.862594   7.609549   9.432439  10.275073  10.771752
    18  S   10.303124   9.012814  10.988618  11.591505  12.026331
    19  C   11.199858   9.878112  11.740284  12.572282  13.139168
    20  C   10.524590   9.231557  10.929254  11.991015  12.639274
    21  C   10.843466   9.583640  11.084653  12.375284  13.125414
    22  C    9.756948   8.565911   9.883579  11.356683  12.140319
    23  O    8.643140   7.456257   8.861580  10.244572  10.952451
    24  C    9.220367   7.965343   9.622684  10.722856  11.343594
    25  C    7.739544   6.636959   8.540925   8.984557   9.209072
    26  N    8.901416   7.817290   9.775243  10.033756  10.162127
    27  S    8.816713   7.891402   9.811309   9.755628   9.673318
    28  N    7.253766   6.431647   8.247985   8.208803   8.099915
    29  C    6.649478   5.695788   7.530951   7.817738   7.911879
    30  H    2.552757   3.189617   3.370170   1.075863   2.182859
    31  H    3.703420   4.617794   4.628341   2.139130   1.081045
    32  H    3.748613   4.617064   4.621683   3.360080   2.221803
    33  H    5.747400   5.354995   6.828851   6.414578   6.012771
    34  H    4.680798   3.660619   5.094699   6.316934   6.873990
    35  H   12.231134  10.889916  12.794450  13.566847  14.131653
    36  H   11.813511  10.548054  12.017121  13.336917  14.124199
    37  H    9.736775   8.618597   9.709640  11.376987  12.225487
                    6          7          8          9         10
     6  C    0.000000
     7  C    1.346086   0.000000
     8  C    2.400132   1.409902   0.000000
     9  N    2.913232   2.446314   1.321555   0.000000
    10  C    4.210628   3.536317   2.204246   1.381501   0.000000
    11  C    4.693855   3.681980   2.388761   2.321884   1.379694
    12  S    3.960135   2.701797   1.714449   2.540168   2.499789
    13  C    6.024810   4.955482   3.759621   3.723607   2.589830
    14  C    6.636365   5.434349   4.452343   4.759118   3.825983
    15  N    7.957206   6.756521   5.798418   6.056531   5.028667
    16  C    8.786980   7.665559   6.580571   6.589313   5.383956
    17  C   10.151342   9.011636   7.973831   8.016694   6.812249
    18  S   11.416221  10.360746   9.266518   9.125933   7.837718
    19  C   12.596151  11.469763  10.462719  10.477861   9.246558
    20  C   12.118943  10.927972  10.000814  10.178313   9.031322
    21  C   12.660256  11.421192  10.600015  10.930154   9.874375
    22  C   11.676937  10.402940   9.656424  10.115147   9.161613
    23  O   10.426388   9.160256   8.349882   8.762519   7.788531
    24  C   10.785254   9.579075   8.648608   8.864968   7.751467
    25  C    8.433594   7.433476   6.221336   5.955479   4.633418
    26  N    9.361883   8.460560   7.198055   6.734057   5.362724
    27  S    8.797387   8.071688   6.759802   6.024398   4.670746
    28  N    7.179913   6.433727   5.112173   4.403815   3.036512
    29  C    7.057281   6.117298   4.849382   4.483997   3.145741
    30  H    3.410720   3.619763   4.779440   5.543897   6.432646
    31  H    2.207800   3.321254   4.420101   4.739727   5.937526
    32  H    1.086026   2.136198   2.703443   2.748679   4.116786
    33  H    4.967461   4.480571   3.209938   2.129271   1.084241
    34  H    6.251317   4.976229   4.204846   4.807085   4.149498
    35  H   13.605221  12.500122  11.484432  11.454233  10.201119
    36  H   13.692654  12.451869  11.657126  12.002085  10.949835
    37  H   11.802696  10.506193   9.864712  10.448735   9.598479
                   11         12         13         14         15
    11  C    0.000000
    12  S    1.708179   0.000000
    13  C    1.436152   2.704914   0.000000
    14  C    2.499026   3.069915   1.398639   0.000000
    15  N    3.765077   4.394632   2.454059   1.347645   0.000000
    16  C    4.314641   5.308921   2.879390   2.353259   1.357993
    17  C    5.739581   6.652268   4.306262   3.623183   2.364262
    18  S    6.950988   8.083934   5.532592   5.125938   3.979339
    19  C    8.226566   9.148411   6.791102   6.099172   4.795052
    20  C    7.881538   8.579443   6.472527   5.553537   4.206074
    21  C    8.634914   9.098559   7.285661   6.187380   4.874041
    22  C    7.852329   8.101758   6.596468   5.365567   4.155201
    23  O    6.486037   6.806873   5.220648   4.007967   2.787413
    24  C    6.559662   7.205427   5.171036   4.196461   2.850547
    25  C    3.846512   5.191699   2.513930   2.739116   2.391919
    26  N    4.841506   6.324038   3.661022   4.075541   3.679472
    27  S    4.583279   6.225532   3.808171   4.707861   4.749833
    28  N    2.981023   4.650269   2.467524   3.655351   4.133752
    29  C    2.485354   4.009695   1.409571   2.363706   2.798182
    30  H    6.432326   5.691172   7.330456   7.451702   8.537256
    31  H    6.470150   5.920486   7.680764   8.233470   9.478621
    32  H    4.886152   4.389935   6.281729   7.080170   8.411828
    33  H    2.203166   3.553625   3.024009   4.390755   5.440949
    34  H    2.785321   2.716900   2.181928   1.090527   2.019124
    35  H    9.228116  10.200274   7.793659   7.153561   5.861041
    36  H    9.710232  10.151335   8.361791   7.256656   5.947460
    37  H    8.247942   8.279248   7.095392   5.782001   4.709420
                   16         17         18         19         20
    16  C    0.000000
    17  C    1.432247   0.000000
    18  S    2.793041   1.723343   0.000000
    19  C    3.917987   2.507741   1.723887   0.000000
    20  C    3.673372   2.294041   2.497964   1.342132   0.000000
    21  C    4.674845   3.443851   3.903217   2.594545   1.406115
    22  C    4.333119   3.432621   4.454167   3.576205   2.234313
    23  O    3.058983   2.439616   3.849097   3.534116   2.337981
    24  C    2.487318   1.345154   2.500442   2.295015   1.379545
    25  C    1.416723   2.527473   3.239757   4.742837   4.810932
    26  N    2.494931   3.091208   3.064683   4.751784   5.171006
    27  S    3.826709   4.679664   4.671611   6.378279   6.813420
    28  N    3.665814   4.893260   5.417278   7.033026   7.177081
    29  C    2.504820   3.860658   4.722943   6.197835   6.149480
    30  H    9.524182  10.667148  11.953997  12.866633  12.276597
    31  H   10.288386  11.593440  12.771500  13.933872  13.493081
    32  H    9.120710  10.521983  11.700029  12.978382  12.585598
    33  H    5.535119   6.926368   7.739159   9.262934   9.203200
    34  H    3.274130   4.380459   5.983410   6.767519   6.050217
    35  H    4.934393   3.551551   2.436935   1.079999   2.220368
    36  H    5.729464   4.452550   4.672060   3.129987   2.243700
    37  H    5.126313   4.396255   5.521882   4.643472   3.304620
                   21         22         23         24         25
    21  C    0.000000
    22  C    1.400890   0.000000
    23  O    2.330793   1.379282   0.000000
    24  C    2.188504   2.103718   1.364224   0.000000
    25  C    5.950123   5.719644   4.463214   3.781368   0.000000
    26  N    6.462094   6.492182   5.364989   4.426140   1.345966
    27  S    8.089019   8.038916   6.838785   6.009322   2.425256
    28  N    8.304096   7.977847   6.657545   6.123238   2.366991
    29  C    7.177625   6.741898   5.396908   4.990114   1.493461
    30  H   12.615127  11.615813  10.571328  11.059923   9.523016
    31  H   14.023876  13.080442  11.886587  12.217871   9.945895
    32  H   13.213742  12.283578  10.990206  11.255530   8.609511
    33  H   10.165172   9.581540   8.206798   7.994945   4.544963
    34  H    6.467925   5.462053   4.188379   4.687831   3.822411
    35  H    3.174401   4.370415   4.530410   3.351938   5.638824
    36  H    1.078102   2.211977   3.357543   3.246481   6.975013
    37  H    2.274390   1.082352   2.068743   3.110004   6.531740
                   26         27         28         29         30
    26  N    0.000000
    27  S    1.647791   0.000000
    28  N    2.523246   1.648967   0.000000
    29  C    2.357042   2.418920   1.345452   0.000000
    30  H   10.572939  10.365077   8.877511   8.443807   0.000000
    31  H   10.822133  10.227699   8.696925   8.629176   2.603746
    32  H    9.422967   8.681362   7.092511   7.167337   4.331325
    33  H    5.013339   4.035517   2.516174   3.084255   7.217654
    34  H    5.162703   5.768157   4.611812   3.382280   6.843913
    35  H    5.464306   7.038928   7.853400   7.115925  13.835971
    36  H    7.407400   9.047892   9.337390   8.234008  13.538017
    37  H    7.405593   8.902011   8.701547   7.418684  11.610995
                   31         32         33         34         35
    31  H    0.000000
    32  H    2.556631   0.000000
    33  H    6.529384   4.699148   0.000000
    34  H    7.836837   6.830348   4.912304   0.000000
    35  H   14.902753  13.969458  10.156762   7.837339   0.000000
    36  H   15.021530  14.264688  11.233487   7.506087   3.381182
    37  H   13.196749  12.472750  10.115936   5.679982   5.391808
                   36         37
    36  H    0.000000
    37  H    2.760605   0.000000
 Stoichiometry    C18H10N4OS3Si
 Framework group  C1[X(C18H10N4OS3Si)]
 Deg. of freedom   105
 Full point group                 C1      NOp   1
 Largest Abelian subgroup         C1      NOp   1
 Largest concise Abelian subgroup C1      NOp   1
                         Standard orientation:                         
 ---------------------------------------------------------------------
 Center     Atomic      Atomic             Coordinates (Angstroms)
 Number     Number       Type             X           Y           Z
 ---------------------------------------------------------------------
      1         14           0       -4.964180   -2.230349    0.505093
      2          1           0       -3.631536   -2.148127    1.160085
      3          1           0       -5.229495   -3.340850   -0.450424
      4          6           0       -6.368297   -1.852494    1.641856
      5          6           0       -7.028899   -0.737798    1.272293
      6          6           0       -6.475691   -0.022434    0.126138
      7          6           0       -5.323383   -0.552781   -0.324268
      8          6           0       -4.239470    0.268894   -0.695491
      9          7           0       -4.106543    1.564372   -0.470607
     10          6           0       -2.763166    1.884295   -0.431473
     11          6           0       -1.914635    0.810406   -0.605583
     12         16           0       -2.815901   -0.449722   -1.325077
     13          6           0       -0.507405    0.612427   -0.398120
     14          6           0        0.109474   -0.642717   -0.414411
     15          7           0        1.424153   -0.894932   -0.259000
     16          6           0        2.308286    0.115881   -0.057228
     17          6           0        3.672454   -0.277100    0.132358
     18         16           0        4.895521    0.746606    0.785077
     19          6           0        6.096996   -0.488681    0.737002
     20          6           0        5.538706   -1.606274    0.246474
     21          6           0        5.841095   -2.945727   -0.056159
     22          6           0        4.652343   -3.494389   -0.554487
     23          8           0        3.600135   -2.603673   -0.598090
     24          6           0        4.206901   -1.490559   -0.094187
     25          6           0        1.828139    1.446929    0.012589
     26          7           0        2.514503    2.588016    0.208676
     27         16           0        1.432447    3.830693    0.219863
     28          7           0        0.037584    2.993737   -0.050238
     29          6           0        0.364341    1.692604   -0.152832
     30          1           0       -6.493583   -2.433086    2.538906
     31          1           0       -7.787856   -0.270731    1.884249
     32          1           0       -6.769281    1.001491   -0.085604
     33          1           0       -2.472787    2.901588   -0.194040
     34          1           0       -0.456636   -1.562490   -0.565363
     35          1           0        7.093508   -0.261798    1.086124
     36          1           0        6.775921   -3.469126    0.064078
     37          1           0        4.401483   -4.485055   -0.911048
 ---------------------------------------------------------------------
 Rotational constants (GHZ):      0.2895032      0.0713915      0.0598465
 Standard basis: 6-31++G(d,p) (6D, 7F)
 There are   589 symmetry adapted basis functions of A   symmetry.
 Integral buffers will be    131072 words long.
 Raffenetti 2 integral format.
 Two-electron integral symmetry is turned on.
   589 basis functions,  1040 primitive gaussians,   589 cartesian basis functions
   108 alpha electrons      108 beta electrons
       nuclear repulsion energy      2813.5174587265 Hartrees.
 NAtoms=   37 NActive=   37 NUniq=   37 SFac= 1.00D+00 NAtFMM=   60 NAOKFM=F Big=F
 One-electron integrals computed using PRISM.
 NBasis=   589 RedAO= T  NBF=   589
 NBsUse=   582 1.00D-06 NBFU=   582
 Harris functional with IExCor=  402 diagonalized for initial guess.
 ExpMin= 3.31D-02 ExpMax= 2.19D+04 ExpMxC= 3.30D+03 IAcc=3 IRadAn=         5 AccDes= 0.00D+00
 HarFok:  IExCor=  402 AccDes= 0.00D+00 IRadAn=         5 IDoV= 1
 ScaDFX=  1.000000  1.000000  1.000000  1.000000
 FoFCou: FMM=F IPFlag=           0 FMFlag=      100000 FMFlg1=           0
         NFxFlg=           0 DoJE=T BraDBF=F KetDBF=T FulRan=T
         Omega=  0.000000  0.000000  1.000000  0.000000  0.000000 ICntrl=     500 IOpCl=  0
         NMat0=    1 NMatS0=    1 NMatT0=    0 NMatD0=    1 NMtDS0=    0 NMtDT0=    0
         I1Cent=           4 NGrid=           0.
 Petite list used in FoFCou.
 Initial guess orbital symmetries:
       Occupied  (A) (A) (A) (A) (A) (A) (A) (A) (A) (A) (A) (A)
                 (A) (A) (A) (A) (A) (A) (A) (A) (A) (A) (A) (A)
                 (A) (A) (A) (A) (A) (A) (A) (A) (A) (A) (A) (A)
                 (A) (A) (A) (A) (A) (A) (A) (A) (A) (A) (A) (A)
                 (A) (A) (A) (A) (A) (A) (A) (A) (A) (A) (A) (A)
                 (A) (A) (A) (A) (A) (A) (A) (A) (A) (A) (A) (A)
                 (A) (A) (A) (A) (A) (A) (A) (A) (A) (A) (A) (A)
                 (A) (A) (A) (A) (A) (A) (A) (A) (A) (A) (A) (A)
                 (A) (A) (A) (A) (A) (A) (A) (A) (A) (A) (A) (A)
       Virtual   (A) (A) (A) (A) (A) (A) (A) (A) (A) (A) (A) (A)
                 (A) (A) (A) (A) (A) (A) (A) (A) (A) (A) (A) (A)
                 (A) (A) (A) (A) (A) (A) (A) (A) (A) (A) (A) (A)
                 (A) (A) (A) (A) (A) (A) (A) (A) (A) (A) (A) (A)
                 (A) (A) (A) (A) (A) (A) (A) (A) (A) (A) (A) (A)
                 (A) (A) (A) (A) (A) (A) (A) (A) (A) (A) (A) (A)
                 (A) (A) (A) (A) (A) (A) (A) (A) (A) (A) (A) (A)
                 (A) (A) (A) (A) (A) (A) (A) (A) (A) (A) (A) (A)
                 (A) (A) (A) (A) (A) (A) (A) (A) (A) (A) (A) (A)
                 (A) (A) (A) (A) (A) (A) (A) (A) (A) (A) (A) (A)
                 (A) (A) (A) (A) (A) (A) (A) (A) (A) (A) (A) (A)
                 (A) (A) (A) (A) (A) (A) (A) (A) (A) (A) (A) (A)
                 (A) (A) (A) (A) (A) (A) (A) (A) (A) (A) (A) (A)
                 (A) (A) (A) (A) (A) (A) (A) (A) (A) (A) (A) (A)
                 (A) (A) (A) (A) (A) (A) (A) (A) (A) (A) (A) (A)
                 (A) (A) (A) (A) (A) (A) (A) (A) (A) (A) (A) (A)
                 (A) (A) (A) (A) (A) (A) (A) (A) (A) (A) (A) (A)
                 (A) (A) (A) (A) (A) (A) (A) (A) (A) (A) (A) (A)
                 (A) (A) (A) (A) (A) (A) (A) (A) (A) (A) (A) (A)
                 (A) (A) (A) (A) (A) (A) (A) (A) (A) (A) (A) (A)
                 (A) (A) (A) (A) (A) (A) (A) (A) (A) (A) (A) (A)
                 (A) (A) (A) (A) (A) (A) (A) (A) (A) (A) (A) (A)
                 (A) (A) (A) (A) (A) (A) (A) (A) (A) (A) (A) (A)
                 (A) (A) (A) (A) (A) (A) (A) (A) (A) (A) (A) (A)
                 (A) (A) (A) (A) (A) (A) (A) (A) (A) (A) (A) (A)
                 (A) (A) (A) (A) (A) (A) (A) (A) (A) (A) (A) (A)
                 (A) (A) (A) (A) (A) (A) (A) (A) (A) (A) (A) (A)
                 (A) (A) (A) (A) (A) (A) (A) (A) (A) (A) (A) (A)
                 (A) (A) (A) (A) (A) (A) (A) (A) (A) (A) (A) (A)
                 (A) (A) (A) (A) (A) (A) (A) (A) (A) (A) (A) (A)
                 (A) (A) (A) (A) (A) (A) (A) (A) (A) (A) (A) (A)
                 (A) (A) (A) (A) (A) (A) (A) (A) (A) (A) (A) (A)
                 (A) (A) (A) (A) (A) (A) (A) (A) (A) (A) (A) (A)
                 (A) (A) (A) (A) (A) (A) (A) (A) (A) (A) (A) (A)
                 (A) (A) (A) (A) (A) (A) (A) (A) (A) (A) (A) (A)
                 (A) (A) (A) (A) (A) (A) (A) (A) (A) (A) (A) (A)
                 (A) (A) (A) (A) (A) (A) (A) (A) (A) (A) (A) (A)
                 (A) (A) (A) (A) (A) (A) (A) (A) (A) (A) (A) (A)
                 (A) (A) (A) (A) (A) (A) (A) (A) (A) (A) (A) (A)
                 (A) (A) (A) (A) (A) (A)
 The electronic state of the initial guess is 1-A.
 Requested convergence on RMS density matrix=1.00D-08 within 128 cycles.
 Requested convergence on MAX density matrix=1.00D-06.
 Requested convergence on             energy=1.00D-06.
 No special actions if energy rises.
 EnCoef did     5 forward-backward iterations
 EnCoef did     3 forward-backward iterations
 Restarting incremental Fock formation.
 SCF Done:  E(RB3LYP) =  -2470.10626097     A.U. after   23 cycles
             Convg  =    0.8860D-08             -V/T =  2.0054

 **********************************************************************

            Population analysis using the SCF density.

 **********************************************************************

 Orbital symmetries:
       Occupied  (A) (A) (A) (A) (A) (A) (A) (A) (A) (A) (A) (A)
                 (A) (A) (A) (A) (A) (A) (A) (A) (A) (A) (A) (A)
                 (A) (A) (A) (A) (A) (A) (A) (A) (A) (A) (A) (A)
                 (A) (A) (A) (A) (A) (A) (A) (A) (A) (A) (A) (A)
                 (A) (A) (A) (A) (A) (A) (A) (A) (A) (A) (A) (A)
                 (A) (A) (A) (A) (A) (A) (A) (A) (A) (A) (A) (A)
                 (A) (A) (A) (A) (A) (A) (A) (A) (A) (A) (A) (A)
                 (A) (A) (A) (A) (A) (A) (A) (A) (A) (A) (A) (A)
                 (A) (A) (A) (A) (A) (A) (A) (A) (A) (A) (A) (A)
       Virtual   (A) (A) (A) (A) (A) (A) (A) (A) (A) (A) (A) (A)
                 (A) (A) (A) (A) (A) (A) (A) (A) (A) (A) (A) (A)
                 (A) (A) (A) (A) (A) (A) (A) (A) (A) (A) (A) (A)
                 (A) (A) (A) (A) (A) (A) (A) (A) (A) (A) (A) (A)
                 (A) (A) (A) (A) (A) (A) (A) (A) (A) (A) (A) (A)
                 (A) (A) (A) (A) (A) (A) (A) (A) (A) (A) (A) (A)
                 (A) (A) (A) (A) (A) (A) (A) (A) (A) (A) (A) (A)
                 (A) (A) (A) (A) (A) (A) (A) (A) (A) (A) (A) (A)
                 (A) (A) (A) (A) (A) (A) (A) (A) (A) (A) (A) (A)
                 (A) (A) (A) (A) (A) (A) (A) (A) (A) (A) (A) (A)
                 (A) (A) (A) (A) (A) (A) (A) (A) (A) (A) (A) (A)
                 (A) (A) (A) (A) (A) (A) (A) (A) (A) (A) (A) (A)
                 (A) (A) (A) (A) (A) (A) (A) (A) (A) (A) (A) (A)
                 (A) (A) (A) (A) (A) (A) (A) (A) (A) (A) (A) (A)
                 (A) (A) (A) (A) (A) (A) (A) (A) (A) (A) (A) (A)
                 (A) (A) (A) (A) (A) (A) (A) (A) (A) (A) (A) (A)
                 (A) (A) (A) (A) (A) (A) (A) (A) (A) (A) (A) (A)
                 (A) (A) (A) (A) (A) (A) (A) (A) (A) (A) (A) (A)
                 (A) (A) (A) (A) (A) (A) (A) (A) (A) (A) (A) (A)
                 (A) (A) (A) (A) (A) (A) (A) (A) (A) (A) (A) (A)
                 (A) (A) (A) (A) (A) (A) (A) (A) (A) (A) (A) (A)
                 (A) (A) (A) (A) (A) (A) (A) (A) (A) (A) (A) (A)
                 (A) (A) (A) (A) (A) (A) (A) (A) (A) (A) (A) (A)
                 (A) (A) (A) (A) (A) (A) (A) (A) (A) (A) (A) (A)
                 (A) (A) (A) (A) (A) (A) (A) (A) (A) (A) (A) (A)
                 (A) (A) (A) (A) (A) (A) (A) (A) (A) (A) (A) (A)
                 (A) (A) (A) (A) (A) (A) (A) (A) (A) (A) (A) (A)
                 (A) (A) (A) (A) (A) (A) (A) (A) (A) (A) (A) (A)
                 (A) (A) (A) (A) (A) (A) (A) (A) (A) (A) (A) (A)
                 (A) (A) (A) (A) (A) (A) (A) (A) (A) (A) (A) (A)
                 (A) (A) (A) (A) (A) (A) (A) (A) (A) (A) (A) (A)
                 (A) (A) (A) (A) (A) (A) (A) (A) (A) (A) (A) (A)
                 (A) (A) (A) (A) (A) (A) (A) (A) (A) (A) (A) (A)
                 (A) (A) (A) (A) (A) (A) (A) (A) (A) (A) (A) (A)
                 (A) (A) (A) (A) (A) (A) (A) (A) (A) (A) (A) (A)
                 (A) (A) (A) (A) (A) (A) (A) (A) (A) (A) (A) (A)
                 (A) (A) (A) (A) (A) (A) (A) (A) (A) (A) (A) (A)
                 (A) (A) (A) (A) (A) (A) (A) (A) (A) (A) (A) (A)
                 (A) (A) (A) (A) (A) (A) (A) (A) (A) (A) (A) (A)
                 (A) (A) (A) (A) (A) (A)
 The electronic state is 1-A.
 Alpha  occ. eigenvalues --  -88.99525 -88.92647 -88.91281 -66.14269 -19.23230
 Alpha  occ. eigenvalues --  -14.39484 -14.38919 -14.35075 -14.34129 -10.26524
 Alpha  occ. eigenvalues --  -10.26495 -10.26476 -10.26414 -10.25814 -10.25403
 Alpha  occ. eigenvalues --  -10.24143 -10.23198 -10.23125 -10.23119 -10.22984
 Alpha  occ. eigenvalues --  -10.22795 -10.21736 -10.21321 -10.20918 -10.20722
 Alpha  occ. eigenvalues --  -10.19358 -10.18880  -8.04788  -7.98546  -7.97541
 Alpha  occ. eigenvalues --   -6.01356  -6.00764  -6.00542  -5.94981  -5.94575
 Alpha  occ. eigenvalues --   -5.94262  -5.93925  -5.93604  -5.93210  -5.29181
 Alpha  occ. eigenvalues --   -3.65110  -3.64983  -3.64965  -1.12753  -1.03228
 Alpha  occ. eigenvalues --   -0.97527  -0.95804  -0.91717  -0.90837  -0.85148
 Alpha  occ. eigenvalues --   -0.84161  -0.82399  -0.80506  -0.78722  -0.77383
 Alpha  occ. eigenvalues --   -0.75414  -0.73057  -0.71078  -0.68418  -0.65636
 Alpha  occ. eigenvalues --   -0.64262  -0.63637  -0.63063  -0.60173  -0.58446
 Alpha  occ. eigenvalues --   -0.57924  -0.55886  -0.53930  -0.53451  -0.53016
 Alpha  occ. eigenvalues --   -0.51643  -0.50842  -0.49978  -0.47971  -0.47546
 Alpha  occ. eigenvalues --   -0.47253  -0.46796  -0.45404  -0.45359  -0.44747
 Alpha  occ. eigenvalues --   -0.43117  -0.41795  -0.41483  -0.41348  -0.40746
 Alpha  occ. eigenvalues --   -0.40195  -0.40035  -0.39012  -0.38292  -0.37991
 Alpha  occ. eigenvalues --   -0.37534  -0.35857  -0.35615  -0.34037  -0.33742
 Alpha  occ. eigenvalues --   -0.33348  -0.32065  -0.31653  -0.31355  -0.30304
 Alpha  occ. eigenvalues --   -0.29337  -0.27880  -0.27421  -0.26945  -0.26410
 Alpha  occ. eigenvalues --   -0.24599  -0.22505  -0.19740
 Alpha virt. eigenvalues --   -0.12042  -0.09502  -0.05370  -0.03409  -0.02582
 Alpha virt. eigenvalues --   -0.01843  -0.01646  -0.00747  -0.00543  -0.00328
 Alpha virt. eigenvalues --    0.00057   0.00315   0.00741   0.01148   0.01492
 Alpha virt. eigenvalues --    0.01803   0.02202   0.02694   0.02835   0.03020
 Alpha virt. eigenvalues --    0.03292   0.03391   0.03764   0.04337   0.04455
 Alpha virt. eigenvalues --    0.04705   0.04949   0.05243   0.05990   0.06073
 Alpha virt. eigenvalues --    0.06166   0.06713   0.07031   0.07208   0.07279
 Alpha virt. eigenvalues --    0.07605   0.08084   0.08489   0.08946   0.09120
 Alpha virt. eigenvalues --    0.09612   0.09820   0.10494   0.10568   0.10640
 Alpha virt. eigenvalues --    0.10697   0.10919   0.11226   0.11378   0.11713
 Alpha virt. eigenvalues --    0.11776   0.12151   0.12261   0.12349   0.12647
 Alpha virt. eigenvalues --    0.12678   0.13040   0.13119   0.13130   0.13644
 Alpha virt. eigenvalues --    0.13795   0.13865   0.14073   0.14528   0.14667
 Alpha virt. eigenvalues --    0.14827   0.15049   0.15421   0.15767   0.15967
 Alpha virt. eigenvalues --    0.16081   0.16535   0.17045   0.17233   0.17481
 Alpha virt. eigenvalues --    0.17817   0.17946   0.18174   0.18303   0.18650
 Alpha virt. eigenvalues --    0.19065   0.19189   0.19479   0.19674   0.20103
 Alpha virt. eigenvalues --    0.20439   0.20636   0.20979   0.21150   0.21299
 Alpha virt. eigenvalues --    0.21556   0.21786   0.21980   0.22169   0.22854
 Alpha virt. eigenvalues --    0.23042   0.23277   0.23434   0.23845   0.23941
 Alpha virt. eigenvalues --    0.24467   0.24523   0.24704   0.25179   0.25442
 Alpha virt. eigenvalues --    0.25816   0.26099   0.26482   0.26618   0.26731
 Alpha virt. eigenvalues --    0.27088   0.27680   0.27954   0.28082   0.28351
 Alpha virt. eigenvalues --    0.28494   0.28890   0.29140   0.29433   0.29958
 Alpha virt. eigenvalues --    0.30283   0.30419   0.30476   0.30912   0.31043
 Alpha virt. eigenvalues --    0.31604   0.31857   0.31941   0.32559   0.32654
 Alpha virt. eigenvalues --    0.33114   0.33310   0.33733   0.34409   0.34764
 Alpha virt. eigenvalues --    0.35139   0.35333   0.35615   0.35914   0.36239
 Alpha virt. eigenvalues --    0.36495   0.37375   0.37472   0.37687   0.38085
 Alpha virt. eigenvalues --    0.38903   0.39037   0.39279   0.39900   0.40216
 Alpha virt. eigenvalues --    0.40706   0.41324   0.41957   0.42847   0.43037
 Alpha virt. eigenvalues --    0.45127   0.46185   0.46644   0.46921   0.48241
 Alpha virt. eigenvalues --    0.49555   0.50350   0.50459   0.51183   0.51864
 Alpha virt. eigenvalues --    0.52834   0.53331   0.53618   0.53835   0.56717
 Alpha virt. eigenvalues --    0.57122   0.58140   0.59823   0.60565   0.61129
 Alpha virt. eigenvalues --    0.61648   0.62671   0.63154   0.63756   0.64552
 Alpha virt. eigenvalues --    0.65537   0.65987   0.66325   0.66555   0.67955
 Alpha virt. eigenvalues --    0.68153   0.68798   0.69372   0.70166   0.70410
 Alpha virt. eigenvalues --    0.70861   0.71655   0.71896   0.72434   0.73028
 Alpha virt. eigenvalues --    0.73515   0.74178   0.74271   0.74737   0.75183
 Alpha virt. eigenvalues --    0.75737   0.75958   0.77088   0.77757   0.78244
 Alpha virt. eigenvalues --    0.79297   0.79911   0.80359   0.80754   0.81545
 Alpha virt. eigenvalues --    0.81935   0.82204   0.82926   0.83689   0.84094
 Alpha virt. eigenvalues --    0.84391   0.86158   0.86669   0.87713   0.87792
 Alpha virt. eigenvalues --    0.89089   0.90532   0.90750   0.91041   0.91743
 Alpha virt. eigenvalues --    0.92412   0.93377   0.93560   0.94749   0.95040
 Alpha virt. eigenvalues --    0.96034   0.96469   0.96875   0.97491   0.98567
 Alpha virt. eigenvalues --    0.98982   0.99453   0.99976   1.00749   1.02435
 Alpha virt. eigenvalues --    1.02576   1.02768   1.03137   1.04302   1.05343
 Alpha virt. eigenvalues --    1.05395   1.05746   1.06798   1.08008   1.08456
 Alpha virt. eigenvalues --    1.09212   1.10126   1.10439   1.11203   1.12180
 Alpha virt. eigenvalues --    1.12541   1.13282   1.13406   1.14587   1.15667
 Alpha virt. eigenvalues --    1.16306   1.16826   1.17448   1.17693   1.18603
 Alpha virt. eigenvalues --    1.19025   1.19843   1.20223   1.21133   1.21553
 Alpha virt. eigenvalues --    1.22172   1.22491   1.23442   1.23881   1.24868
 Alpha virt. eigenvalues --    1.25483   1.26145   1.26825   1.27864   1.28059
 Alpha virt. eigenvalues --    1.28334   1.29432   1.29575   1.30283   1.30960
 Alpha virt. eigenvalues --    1.31954   1.32737   1.33670   1.34428   1.35053
 Alpha virt. eigenvalues --    1.35745   1.36757   1.38238   1.38719   1.39584
 Alpha virt. eigenvalues --    1.41270   1.42212   1.43784   1.43893   1.44577
 Alpha virt. eigenvalues --    1.46219   1.46972   1.47399   1.49527   1.50897
 Alpha virt. eigenvalues --    1.51510   1.52829   1.54526   1.55911   1.59258
 Alpha virt. eigenvalues --    1.61372   1.63103   1.64940   1.65452   1.67809
 Alpha virt. eigenvalues --    1.69026   1.69378   1.70281   1.71718   1.73630
 Alpha virt. eigenvalues --    1.74968   1.75607   1.76168   1.77082   1.78289
 Alpha virt. eigenvalues --    1.79518   1.80292   1.80763   1.82337   1.83633
 Alpha virt. eigenvalues --    1.84658   1.86302   1.87256   1.87358   1.88251
 Alpha virt. eigenvalues --    1.89986   1.91976   1.94280   1.94974   1.96395
 Alpha virt. eigenvalues --    1.97187   1.97461   1.97761   1.98997   1.99740
 Alpha virt. eigenvalues --    1.99986   2.02056   2.03356   2.05454   2.06521
 Alpha virt. eigenvalues --    2.07318   2.08735   2.09294   2.09922   2.11761
 Alpha virt. eigenvalues --    2.12551   2.13715   2.15750   2.16045   2.16957
 Alpha virt. eigenvalues --    2.17663   2.18171   2.19296   2.21492   2.22801
 Alpha virt. eigenvalues --    2.22970   2.24024   2.25843   2.26693   2.27805
 Alpha virt. eigenvalues --    2.28903   2.29429   2.30531   2.31549   2.32338
 Alpha virt. eigenvalues --    2.32577   2.33202   2.35593   2.36989   2.37417
 Alpha virt. eigenvalues --    2.37761   2.38276   2.39170   2.41123   2.42435
 Alpha virt. eigenvalues --    2.43755   2.44516   2.45339   2.45931   2.46597
 Alpha virt. eigenvalues --    2.47972   2.48577   2.49667   2.50590   2.51655
 Alpha virt. eigenvalues --    2.53183   2.55123   2.56491   2.56787   2.57299
 Alpha virt. eigenvalues --    2.59089   2.60717   2.61382   2.63071   2.63906
 Alpha virt. eigenvalues --    2.65505   2.65993   2.66753   2.66976   2.69181
 Alpha virt. eigenvalues --    2.69755   2.71886   2.72749   2.73520   2.75554
 Alpha virt. eigenvalues --    2.76043   2.77623   2.78710   2.80902   2.81235
 Alpha virt. eigenvalues --    2.82571   2.83681   2.87274   2.89855   2.90657
 Alpha virt. eigenvalues --    2.91479   2.95289   2.96665   3.01289   3.03473
 Alpha virt. eigenvalues --    3.04395   3.09750   3.11911   3.12639   3.13163
 Alpha virt. eigenvalues --    3.18633   3.21524   3.22684   3.29135   3.31260
 Alpha virt. eigenvalues --    3.36769   3.38526   3.42632   3.51982   3.55760
 Alpha virt. eigenvalues --    3.61954   3.71796   3.75373   3.95149   3.99437
 Alpha virt. eigenvalues --    4.00468   4.13142   4.23158   4.27970   4.28802
 Alpha virt. eigenvalues --    4.30418   4.33631   4.33747   4.35896   4.36084
 Alpha virt. eigenvalues --    4.40344   4.41399   4.42665   4.46387   4.48122
 Alpha virt. eigenvalues --    4.53424   4.57265   4.59592   4.61945   4.66322
 Alpha virt. eigenvalues --    4.67928   4.79937   4.82506   4.92881
          Condensed to atoms (all electrons):
              1          2          3          4          5          6
     1  Si  12.680350   0.348472   0.308800  -0.232196   0.400680  -1.036147
     2  H    0.348472   0.848993  -0.064276  -0.002018   0.050535  -0.051383
     3  H    0.308800  -0.064276   0.775282   0.058515  -0.092599   0.089112
     4  C   -0.232196  -0.002018   0.058515   6.567562  -0.588756   1.704996
     5  C    0.400680   0.050535  -0.092599  -0.588756   7.166665  -2.536321
     6  C   -1.036147  -0.051383   0.089112   1.704996  -2.536321  12.071856
     7  C    1.178864   0.035139  -0.066067  -1.840699   2.630684  -6.175275
     8  C   -0.564317   0.060796   0.009490   0.682559  -1.061624   2.314915
     9  N   -0.029365  -0.001202   0.003087  -0.021395  -0.020014   0.141967
    10  C    0.195682  -0.011167  -0.020858  -0.111083   0.147686  -0.519019
    11  C   -0.127628   0.016889  -0.001816   0.075023  -0.277922   0.510068
    12  S    0.033782  -0.038928   0.079672   0.000242  -0.127609  -0.638689
    13  C   -0.025507   0.060366  -0.002349  -0.012076   0.018952  -0.076448
    14  C    0.039545  -0.107369   0.006978   0.007594  -0.016153   0.012176
    15  N   -0.004926   0.002803   0.000055   0.000127   0.000072   0.002298
    16  C   -0.024195   0.022174  -0.001173   0.000648   0.001609   0.015197
    17  C   -0.002682   0.002114   0.000037   0.000334  -0.000254   0.000782
    18  S    0.000114  -0.000110   0.000005  -0.000003  -0.000002  -0.000057
    19  C    0.000059  -0.000010  -0.000000  -0.000001   0.000001  -0.000004
    20  C   -0.000345   0.000098   0.000008   0.000016  -0.000009   0.000037
    21  C   -0.000075   0.000027  -0.000002  -0.000001   0.000000   0.000003
    22  C    0.000045   0.000094  -0.000015  -0.000002   0.000001  -0.000002
    23  O    0.000011   0.000050  -0.000002  -0.000001   0.000000  -0.000000
    24  C   -0.002519   0.001763  -0.000001   0.000082  -0.000019   0.000425
    25  C    0.012218  -0.010674   0.000329  -0.000490  -0.000510  -0.008460
    26  N    0.000180  -0.000120   0.000004   0.000002  -0.000027  -0.000052
    27  S    0.001677  -0.001079   0.000029  -0.000103  -0.000096  -0.001539
    28  N    0.000261  -0.000322   0.000057   0.000175  -0.000576  -0.001934
    29  C    0.061990  -0.035031  -0.000494  -0.004948  -0.008288  -0.035775
    30  H   -0.014577  -0.006937   0.003529   0.359718  -0.069187   0.080147
    31  H    0.014251   0.001905  -0.001738  -0.049900   0.374280  -0.081255
    32  H    0.004132   0.000523   0.001190   0.010448  -0.014042   0.251406
    33  H   -0.003920   0.000789  -0.000292   0.001961   0.005391   0.018627
    34  H   -0.023052  -0.031842   0.005891   0.002756  -0.004349   0.011525
    35  H    0.000001  -0.000001   0.000000  -0.000000   0.000000  -0.000000
    36  H   -0.000001   0.000001  -0.000000  -0.000000   0.000000   0.000000
    37  H    0.000013   0.000013  -0.000002  -0.000000   0.000000  -0.000001
              7          8          9         10         11         12
     1  Si   1.178864  -0.564317  -0.029365   0.195682  -0.127628   0.033782
     2  H    0.035139   0.060796  -0.001202  -0.011167   0.016889  -0.038928
     3  H   -0.066067   0.009490   0.003087  -0.020858  -0.001816   0.079672
     4  C   -1.840699   0.682559  -0.021395  -0.111083   0.075023   0.000242
     5  C    2.630684  -1.061624  -0.020014   0.147686  -0.277922  -0.127609
     6  C   -6.175275   2.314915   0.141967  -0.519019   0.510068  -0.638689
     7  C   20.115464  -8.381097  -0.344095  -0.200543  -1.935333   1.070186
     8  C   -8.381097  17.243394   0.001028   0.419222  -1.178689  -2.221897
     9  N   -0.344095   0.001028   7.007556  -0.399079   0.654059   0.209521
    10  C   -0.200543   0.419222  -0.399079  11.245764  -4.685001  -1.935215
    11  C   -1.935333  -1.178689   0.654059  -4.685001  18.127073  -0.404879
    12  S    1.070186  -2.221897   0.209521  -1.935215  -0.404879  20.364561
    13  C    0.307788  -0.026706   0.023121  -1.454581   3.859917   0.446263
    14  C   -0.037840  -0.424150  -0.013305   0.728202  -5.031904  -0.035238
    15  N    0.005756   0.007911   0.001763   0.049415   0.082174   0.009307
    16  C    0.010215   0.156660   0.007778  -0.352996   1.737064  -0.198586
    17  C   -0.003264  -0.018805   0.001345  -0.135105   0.459310   0.024994
    18  S   -0.000101  -0.000664   0.000069  -0.003272  -0.010533   0.005184
    19  C    0.000005   0.000481  -0.000003   0.004379  -0.003299  -0.001437
    20  C   -0.000097  -0.002592   0.000019  -0.014453   0.009046   0.003862
    21  C    0.000040  -0.000192   0.000003  -0.001637  -0.002886   0.001247
    22  C    0.000001   0.000216  -0.000000   0.000918   0.003077  -0.000173
    23  O    0.000004   0.000055   0.000002   0.001359   0.002259   0.000020
    24  C    0.000640  -0.002473   0.000300  -0.060185   0.134128   0.015013
    25  C   -0.004060  -0.031320  -0.005040   0.428460  -1.289650  -0.015856
    26  N   -0.000649  -0.010401  -0.000195  -0.010148  -0.046652  -0.003666
    27  S    0.000061  -0.006134  -0.004855   0.083361  -0.222939   0.009201
    28  N   -0.011648  -0.032566  -0.006007   0.113253  -0.193636  -0.031344
    29  C   -0.129078  -0.524394  -0.054825   1.675139  -3.478168  -0.604320
    30  H   -0.059942   0.035352  -0.002860  -0.000452  -0.000883  -0.002484
    31  H    0.056182  -0.036264   0.000061   0.000387  -0.000978   0.000140
    32  H    0.199508  -0.150047  -0.013410  -0.021317  -0.033811   0.012154
    33  H   -0.028340   0.118463  -0.102100   0.636504  -0.279061  -0.055081
    34  H   -0.001351  -0.080647   0.003729   0.018829  -0.352942   0.008410
    35  H    0.000000   0.000004  -0.000000   0.000058  -0.000158  -0.000008
    36  H    0.000001   0.000002   0.000000  -0.000007  -0.000008   0.000003
    37  H    0.000000   0.000003  -0.000000   0.000003   0.000224   0.000098
             13         14         15         16         17         18
     1  Si  -0.025507   0.039545  -0.004926  -0.024195  -0.002682   0.000114
     2  H    0.060366  -0.107369   0.002803   0.022174   0.002114  -0.000110
     3  H   -0.002349   0.006978   0.000055  -0.001173   0.000037   0.000005
     4  C   -0.012076   0.007594   0.000127   0.000648   0.000334  -0.000003
     5  C    0.018952  -0.016153   0.000072   0.001609  -0.000254  -0.000002
     6  C   -0.076448   0.012176   0.002298   0.015197   0.000782  -0.000057
     7  C    0.307788  -0.037840   0.005756   0.010215  -0.003264  -0.000101
     8  C   -0.026706  -0.424150   0.007911   0.156660  -0.018805  -0.000664
     9  N    0.023121  -0.013305   0.001763   0.007778   0.001345   0.000069
    10  C   -1.454581   0.728202   0.049415  -0.352996  -0.135105  -0.003272
    11  C    3.859917  -5.031904   0.082174   1.737064   0.459310  -0.010533
    12  S    0.446263  -0.035238   0.009307  -0.198586   0.024994   0.005184
    13  C   17.389810  -9.902659   0.493904   2.732736   1.960324  -0.043028
    14  C   -9.902659  17.508363  -0.473067  -3.589425  -1.579554   0.111240
    15  N    0.493904  -0.473067   7.129519   0.175340  -0.226841   0.017930
    16  C    2.732736  -3.589425   0.175340   9.745688   1.239609  -0.427357
    17  C    1.960324  -1.579554  -0.226841   1.239609   9.507961  -0.366565
    18  S   -0.043028   0.111240   0.017930  -0.427357  -0.366565  16.562208
    19  C   -0.193359   0.170451  -0.066440   1.024132   1.369372  -1.277581
    20  C    0.616342  -0.551185   0.224379  -2.064036  -2.657283   1.453726
    21  C    0.085071  -0.080951   0.094633  -0.757661  -1.248100   0.199512
    22  C   -0.016493   0.012400  -0.067134   0.243988   0.085115   0.172090
    23  O   -0.022608   0.001285   0.012590  -0.108051  -0.346232   0.027177
    24  C    1.300379  -1.242420   0.277323  -0.335308   1.415081  -0.405741
    25  C   -4.246913   3.479721  -0.250154  -1.128917  -1.798485  -0.321429
    26  N    0.025060   0.030188   0.012832   0.033922  -0.064017   0.018024
    27  S   -0.264543   0.274505   0.002909  -0.201147  -0.119607   0.043628
    28  N   -0.284754   0.135676  -0.007932  -0.068430  -0.120953  -0.000449
    29  C   -5.180600   5.034848  -0.221505  -1.709923  -0.719521   0.073458
    30  H   -0.001250   0.000190  -0.000002  -0.000053   0.000004   0.000000
    31  H    0.000317  -0.000175   0.000006   0.000077  -0.000001  -0.000000
    32  H    0.000304   0.000885   0.000016  -0.000289  -0.000015   0.000001
    33  H   -0.032057  -0.076450   0.000411   0.016633   0.003164  -0.000459
    34  H   -0.916137   1.309558  -0.174192  -0.204978  -0.080685  -0.001173
    35  H   -0.003886   0.003730  -0.001297   0.018531   0.070762  -0.060769
    36  H    0.000126  -0.000544   0.001501  -0.011698   0.027075  -0.010088
    37  H    0.002076   0.000010  -0.001248   0.004532   0.005259   0.004175
             19         20         21         22         23         24
     1  Si   0.000059  -0.000345  -0.000075   0.000045   0.000011  -0.002519
     2  H   -0.000010   0.000098   0.000027   0.000094   0.000050   0.001763
     3  H   -0.000000   0.000008  -0.000002  -0.000015  -0.000002  -0.000001
     4  C   -0.000001   0.000016  -0.000001  -0.000002  -0.000001   0.000082
     5  C    0.000001  -0.000009   0.000000   0.000001   0.000000  -0.000019
     6  C   -0.000004   0.000037   0.000003  -0.000002  -0.000000   0.000425
     7  C    0.000005  -0.000097   0.000040   0.000001   0.000004   0.000640
     8  C    0.000481  -0.002592  -0.000192   0.000216   0.000055  -0.002473
     9  N   -0.000003   0.000019   0.000003  -0.000000   0.000002   0.000300
    10  C    0.004379  -0.014453  -0.001637   0.000918   0.001359  -0.060185
    11  C   -0.003299   0.009046  -0.002886   0.003077   0.002259   0.134128
    12  S   -0.001437   0.003862   0.001247  -0.000173   0.000020   0.015013
    13  C   -0.193359   0.616342   0.085071  -0.016493  -0.022608   1.300379
    14  C    0.170451  -0.551185  -0.080951   0.012400   0.001285  -1.242420
    15  N   -0.066440   0.224379   0.094633  -0.067134   0.012590   0.277323
    16  C    1.024132  -2.064036  -0.757661   0.243988  -0.108051  -0.335308
    17  C    1.369372  -2.657283  -1.248100   0.085115  -0.346232   1.415081
    18  S   -1.277581   1.453726   0.199512   0.172090   0.027177  -0.405741
    19  C   11.061241  -5.870534  -1.519482  -0.263759  -0.031659   1.176561
    20  C   -5.870534  14.197358   2.835673  -0.377235   0.198995  -1.119816
    21  C   -1.519482   2.835673   8.338777  -0.290322   0.224771  -2.135902
    22  C   -0.263759  -0.377235  -0.290322   6.063085  -0.221893   0.213569
    23  O   -0.031659   0.198995   0.224771  -0.221893   8.422801   0.068450
    24  C    1.176561  -1.119816  -2.135902   0.213569   0.068450   8.389494
    25  C    0.338851  -0.679022   0.009099  -0.066420   0.021986  -0.733180
    26  N    0.013762  -0.046698  -0.013165   0.006662   0.000698  -0.014783
    27  S   -0.010003  -0.004941  -0.001357   0.000437   0.000171  -0.037946
    28  N    0.011139  -0.019898  -0.000454  -0.000089   0.000034  -0.010730
    29  C   -0.026099  -0.099338  -0.030199   0.019510   0.012954  -0.470554
    30  H    0.000000  -0.000000  -0.000000   0.000000   0.000000  -0.000005
    31  H   -0.000000   0.000000   0.000000  -0.000000  -0.000000   0.000002
    32  H    0.000000  -0.000001  -0.000000   0.000000   0.000000  -0.000010
    33  H   -0.000024   0.000055  -0.000016   0.000022   0.000026   0.000426
    34  H    0.005708  -0.011771  -0.000138  -0.005753  -0.000370  -0.056317
    35  H    0.463597  -0.157929  -0.067033  -0.008565  -0.001572   0.036478
    36  H   -0.045893   0.079554   0.338672  -0.104756   0.022445  -0.027307
    37  H   -0.029970  -0.002510  -0.129049   0.456170  -0.079848   0.039712
             25         26         27         28         29         30
     1  Si   0.012218   0.000180   0.001677   0.000261   0.061990  -0.014577
     2  H   -0.010674  -0.000120  -0.001079  -0.000322  -0.035031  -0.006937
     3  H    0.000329   0.000004   0.000029   0.000057  -0.000494   0.003529
     4  C   -0.000490   0.000002  -0.000103   0.000175  -0.004948   0.359718
     5  C   -0.000510  -0.000027  -0.000096  -0.000576  -0.008288  -0.069187
     6  C   -0.008460  -0.000052  -0.001539  -0.001934  -0.035775   0.080147
     7  C   -0.004060  -0.000649   0.000061  -0.011648  -0.129078  -0.059942
     8  C   -0.031320  -0.010401  -0.006134  -0.032566  -0.524394   0.035352
     9  N   -0.005040  -0.000195  -0.004855  -0.006007  -0.054825  -0.002860
    10  C    0.428460  -0.010148   0.083361   0.113253   1.675139  -0.000452
    11  C   -1.289650  -0.046652  -0.222939  -0.193636  -3.478168  -0.000883
    12  S   -0.015856  -0.003666   0.009201  -0.031344  -0.604320  -0.002484
    13  C   -4.246913   0.025060  -0.264543  -0.284754  -5.180600  -0.001250
    14  C    3.479721   0.030188   0.274505   0.135676   5.034848   0.000190
    15  N   -0.250154   0.012832   0.002909  -0.007932  -0.221505  -0.000002
    16  C   -1.128917   0.033922  -0.201147  -0.068430  -1.709923  -0.000053
    17  C   -1.798485  -0.064017  -0.119607  -0.120953  -0.719521   0.000004
    18  S   -0.321429   0.018024   0.043628  -0.000449   0.073458   0.000000
    19  C    0.338851   0.013762  -0.010003   0.011139  -0.026099   0.000000
    20  C   -0.679022  -0.046698  -0.004941  -0.019898  -0.099338  -0.000000
    21  C    0.009099  -0.013165  -0.001357  -0.000454  -0.030199  -0.000000
    22  C   -0.066420   0.006662   0.000437  -0.000089   0.019510   0.000000
    23  O    0.021986   0.000698   0.000171   0.000034   0.012954   0.000000
    24  C   -0.733180  -0.014783  -0.037946  -0.010730  -0.470554  -0.000005
    25  C    9.371924   0.281162  -0.074350   0.113971   2.105909   0.000018
    26  N    0.281162   7.494528  -0.103204  -0.135795  -0.078615   0.000000
    27  S   -0.074350  -0.103204  15.756294  -0.051025  -0.017106   0.000008
    28  N    0.113971  -0.135795  -0.051025   7.687680   0.362699   0.000009
    29  C    2.105909  -0.078615  -0.017106   0.362699   9.535017   0.000224
    30  H    0.000018   0.000000   0.000008   0.000009   0.000224   0.535043
    31  H   -0.000041  -0.000001  -0.000010  -0.000012  -0.000274  -0.018361
    32  H    0.000125   0.000008   0.000066  -0.000052   0.001158   0.002281
    33  H   -0.009869   0.001405  -0.015940  -0.002824  -0.030548  -0.000084
    34  H    0.206363   0.000158   0.009562   0.003453   0.291926  -0.000320
    35  H    0.009880   0.001068  -0.000001   0.000259   0.000153   0.000000
    36  H    0.003510  -0.000192  -0.000000   0.000014  -0.000355  -0.000000
    37  H   -0.003218   0.000114  -0.000017  -0.000013   0.000007  -0.000000
             31         32         33         34         35         36
     1  Si   0.014251   0.004132  -0.003920  -0.023052   0.000001  -0.000001
     2  H    0.001905   0.000523   0.000789  -0.031842  -0.000001   0.000001
     3  H   -0.001738   0.001190  -0.000292   0.005891   0.000000  -0.000000
     4  C   -0.049900   0.010448   0.001961   0.002756  -0.000000  -0.000000
     5  C    0.374280  -0.014042   0.005391  -0.004349   0.000000   0.000000
     6  C   -0.081255   0.251406   0.018627   0.011525  -0.000000   0.000000
     7  C    0.056182   0.199508  -0.028340  -0.001351   0.000000   0.000001
     8  C   -0.036264  -0.150047   0.118463  -0.080647   0.000004   0.000002
     9  N    0.000061  -0.013410  -0.102100   0.003729  -0.000000   0.000000
    10  C    0.000387  -0.021317   0.636504   0.018829   0.000058  -0.000007
    11  C   -0.000978  -0.033811  -0.279061  -0.352942  -0.000158  -0.000008
    12  S    0.000140   0.012154  -0.055081   0.008410  -0.000008   0.000003
    13  C    0.000317   0.000304  -0.032057  -0.916137  -0.003886   0.000126
    14  C   -0.000175   0.000885  -0.076450   1.309558   0.003730  -0.000544
    15  N    0.000006   0.000016   0.000411  -0.174192  -0.001297   0.001501
    16  C    0.000077  -0.000289   0.016633  -0.204978   0.018531  -0.011698
    17  C   -0.000001  -0.000015   0.003164  -0.080685   0.070762   0.027075
    18  S   -0.000000   0.000001  -0.000459  -0.001173  -0.060769  -0.010088
    19  C   -0.000000   0.000000  -0.000024   0.005708   0.463597  -0.045893
    20  C    0.000000  -0.000001   0.000055  -0.011771  -0.157929   0.079554
    21  C    0.000000  -0.000000  -0.000016  -0.000138  -0.067033   0.338672
    22  C   -0.000000   0.000000   0.000022  -0.005753  -0.008565  -0.104756
    23  O   -0.000000   0.000000   0.000026  -0.000370  -0.001572   0.022445
    24  C    0.000002  -0.000010   0.000426  -0.056317   0.036478  -0.027307
    25  C   -0.000041   0.000125  -0.009869   0.206363   0.009880   0.003510
    26  N   -0.000001   0.000008   0.001405   0.000158   0.001068  -0.000192
    27  S   -0.000010   0.000066  -0.015940   0.009562  -0.000001  -0.000000
    28  N   -0.000012  -0.000052  -0.002824   0.003453   0.000259   0.000014
    29  C   -0.000274   0.001158  -0.030548   0.291926   0.000153  -0.000355
    30  H   -0.018361   0.002281  -0.000084  -0.000320   0.000000  -0.000000
    31  H    0.620969  -0.014213   0.000186   0.000094  -0.000000   0.000000
    32  H   -0.014213   0.569825  -0.002700  -0.000434   0.000000  -0.000000
    33  H    0.000186  -0.002700   0.619867  -0.000964  -0.000002  -0.000000
    34  H    0.000094  -0.000434  -0.000964   0.845010   0.000116   0.000041
    35  H   -0.000000   0.000000  -0.000002   0.000116   0.510877   0.002683
    36  H    0.000000  -0.000000  -0.000000   0.000041   0.002683   0.590688
    37  H   -0.000000   0.000000   0.000000  -0.001645  -0.000258   0.000075
             37
     1  Si   0.000013
     2  H    0.000013
     3  H   -0.000002
     4  C   -0.000000
     5  C    0.000000
     6  C   -0.000001
     7  C    0.000000
     8  C    0.000003
     9  N   -0.000000
    10  C    0.000003
    11  C    0.000224
    12  S    0.000098
    13  C    0.002076
    14  C    0.000010
    15  N   -0.001248
    16  C    0.004532
    17  C    0.005259
    18  S    0.004175
    19  C   -0.029970
    20  C   -0.002510
    21  C   -0.129049
    22  C    0.456170
    23  O   -0.079848
    24  C    0.039712
    25  C   -0.003218
    26  N    0.000114
    27  S   -0.000017
    28  N   -0.000013
    29  C    0.000007
    30  H   -0.000000
    31  H   -0.000000
    32  H    0.000000
    33  H    0.000000
    34  H   -0.001645
    35  H   -0.000258
    36  H    0.000075
    37  H    0.593546
 Mulliken atomic charges:
              1
     1  Si   0.810325
     2  H   -0.091076
     3  H   -0.090385
     4  C   -0.609086
     5  C    0.021800
     6  C   -0.063177
     7  C   -0.391060
     8  C   -0.295571
     9  N   -0.037656
    10  C    0.187496
    11  C   -0.111533
    12  S    0.021553
    13  C   -0.616902
    14  C    0.294845
    15  N   -0.110236
    16  C   -0.002306
    17  C   -0.684677
    18  S    0.240841
    19  C   -0.300179
    20  C    0.060524
    21  C    0.151096
    22  C    0.145212
    23  O   -0.205905
    24  C   -0.414608
    25  C    0.294532
    26  N   -0.391396
    27  S    0.956033
    28  N   -0.447238
    29  C    0.284965
    30  H    0.160873
    31  H    0.134366
    32  H    0.196310
    33  H    0.216799
    34  H    0.225931
    35  H    0.183281
    36  H    0.134460
    37  H    0.141750
 Sum of Mulliken atomic charges =  -0.00000
 Mulliken charges with hydrogens summed into heavy atoms:
              1
     1  Si   0.628864
     4  C   -0.448212
     5  C    0.156166
     6  C    0.133133
     7  C   -0.391060
     8  C   -0.295571
     9  N   -0.037656
    10  C    0.404296
    11  C   -0.111533
    12  S    0.021553
    13  C   -0.616902
    14  C    0.520776
    15  N   -0.110236
    16  C   -0.002306
    17  C   -0.684677
    18  S    0.240841
    19  C   -0.116898
    20  C    0.060524
    21  C    0.285556
    22  C    0.286962
    23  O   -0.205905
    24  C   -0.414608
    25  C    0.294532
    26  N   -0.391396
    27  S    0.956033
    28  N   -0.447238
    29  C    0.284965
 Sum of Mulliken charges with hydrogens summed into heavy atoms =  -0.00000
 Electronic spatial extent (au):  <R**2>=          16498.2024
 Charge=              0.0000 electrons
 Dipole moment (field-independent basis, Debye):
    X=              1.5321    Y=             -1.8315    Z=              1.3810  Tot=              2.7584
 Quadrupole moment (field-independent basis, Debye-Ang):
   XX=           -160.3424   YY=           -171.1089   ZZ=           -183.4179
   XY=              0.8202   XZ=             -4.7421   YZ=              0.6624
 Traceless Quadrupole moment (field-independent basis, Debye-Ang):
   XX=             11.2807   YY=              0.5142   ZZ=            -11.7949
   XY=              0.8202   XZ=             -4.7421   YZ=              0.6624
 Octapole moment (field-independent basis, Debye-Ang**2):
  XXX=            144.7606  YYY=             -9.8887  ZZZ=              2.2241  XYY=             51.4321
[...]
 0.00004388,0.00008434,-0.00008226,0.00002951,0.00005120,-0.00028773,0.
 00049868,0.00226490,0.00130361,0.00296998,-0.00837363,-0.00291777,0.00
 782902,-0.14328259,-0.07695981,0.12886354,0.00233907,-0.00045176,0.002
 83335,0.00446564,0.00000410,0.00180967,-0.00152133,-0.00011816,-0.0012
 1695,-0.00011377,0.00000318,-0.00008178,-0.00013110,-0.00003688,0.0000
 3922,0.00002909,0.00005598,-0.00007363,-0.00003184,0.00002392,0.000012
 19,0.00003777,0.00000799,0.00001055,-0.00000805,0.00004591,0.00000586,
 -0.00002804,-0.00001416,0.00001701,0.00000234,0.00000111,0.00000160,0.
 00000163,-0.00000997,0.00000250,0.00000939,0.00000813,-0.00001461,-0.0
 0000969,-0.00003427,0.00000639,0.00014610,-0.00005726,0.00014184,0.000
 02479,-0.00015564,-0.00002075,-0.00054730,0.00024469,0.00070010,-0.001
 77650,0.00105250,0.00165705,0.00069858,0.00008440,-0.00056229,-0.00003
 110,0.00001330,-0.00002336,-0.00000676,0.00000283,0.00000433,0.0001070
 0,-0.00001072,0.00008739,0.14556710,0.00011339,-0.00032306,-0.00019488
 ,0.00000274,0.00005868,0.00002511,-0.00001440,0.00005190,0.00001351,0.
 00006613,0.00002774,-0.00008478,-0.00003267,0.00001929,0.00006126,-0.0
 0002145,0.00000806,0.00001374,0.00041490,0.00093540,-0.00047376,0.0026
 3781,-0.00206762,-0.00423867,0.01463420,0.01083196,-0.01719083,-0.0782
 1351,-0.11136244,0.09094243,-0.01613942,-0.00701487,0.01928855,-0.0019
 3900,-0.00313787,0.00133450,0.00024311,0.00115345,0.00015268,0.0000289
 7,-0.00040015,-0.00006630,0.00003983,0.00012523,-0.00002260,0.00001435
 ,-0.00033171,-0.00005704,0.00001100,0.00017152,0.00001121,0.00002416,-
 0.00003920,-0.00004200,-0.00001312,-0.00000140,0.00001775,-0.00000760,
 0.00000610,0.00001232,-0.00000489,-0.00000134,0.00000567,0.00001376,-0
 .00003991,-0.00002347,0.00007752,0.00010145,-0.00008638,-0.00009915,-0
 .00009961,0.00011498,-0.00007196,-0.00009037,0.00004709,-0.00032556,0.
 00104382,0.00055127,0.00090866,0.00045530,-0.00110767,-0.00032653,-0.0
 0042365,0.00044195,-0.00027807,-0.00168047,0.00010805,0.00000100,-0.00
 000700,0.00000434,0.00000645,0.00000270,-0.00000749,-0.00001102,-0.000
 01096,-0.00000996,0.07821161,0.11188739,0.00003818,-0.00024531,-0.0000
 2509,-0.00001345,0.00000273,-0.00000195,-0.00001913,0.00006929,-0.0000
 1912,0.00006265,0.00000395,-0.00005587,-0.00004741,0.00002463,-0.00006
 488,0.00003724,0.00009215,0.00007946,0.00058973,0.00043047,-0.00023662
 ,0.00314175,-0.00251990,0.00006753,0.01009788,0.00541601,-0.01430873,0
 .12869789,0.08932514,-0.18974218,0.00080931,-0.00091519,0.00342444,0.0
 0155848,-0.00116800,0.00371230,-0.00117066,0.00061872,-0.00086712,-0.0
 0007842,-0.00003362,-0.00008097,0.00004885,0.00007653,-0.00014987,-0.0
 0007876,-0.00011011,0.00005342,0.00001049,-0.00000560,-0.00003901,0.00
 001260,-0.00002114,0.00002619,-0.00000175,-0.00005833,-0.00001340,0.00
 001790,0.00002077,-0.00003375,0.00000083,-0.00000204,0.00000214,0.0000
 0556,0.00000715,-0.00000165,-0.00000574,0.00000287,0.00000499,-0.00000
 189,0.00003154,0.00000522,0.00013988,0.00002760,0.00008559,-0.00004241
 ,0.00033142,0.00012180,0.00078523,-0.00025269,-0.00107162,0.00147993,-
 0.00133325,-0.00267146,-0.00060900,-0.00035780,0.00099091,-0.00002494,
 -0.00001147,-0.00001993,0.00000479,-0.00000283,-0.00001022,0.00008736,
 -0.00001033,0.00006208,-0.14568993,-0.08946222,0.20070193,0.00009540,-
 0.00002133,-0.00001839,-0.00002523,-0.00000210,0.00000280,-0.00002150,
 0.00000779,0.00000439,-0.00003476,0.00000601,0.00000250,0.00001733,-0.
 00000517,0.00001711,-0.00001565,-0.00002116,0.00000690,-0.00010990,0.0
 0011531,-0.00010653,-0.00003052,-0.00051277,-0.00050307,0.00017691,0.0
 0057372,-0.00000521,-0.00023327,-0.00025935,-0.00020501,-0.00199585,0.
 00057687,-0.00136917,0.00056826,0.00062951,0.00086584,0.00085522,-0.00
 100809,0.00780689,-0.14870991,-0.04700017,0.13198338,-0.00810381,0.005
 38584,0.00983848,0.00479210,0.00017020,0.00286941,0.00010220,-0.000033
 31,0.00039964,0.00002956,0.00007917,-0.00005059,-0.00007241,0.00005014
 ,0.00005204,-0.00001721,-0.00000302,0.00002223,-0.00001660,0.00002086,
 0.00001932,-0.00001589,-0.00006742,-0.00002734,0.00010329,0.00016150,-
 0.00003906,-0.00006297,-0.00015453,0.00004923,-0.00005594,0.00011026,-
 0.00027459,-0.00021733,0.00000238,-0.00009334,-0.00085798,-0.00007328,
 -0.00058223,0.00037442,-0.00011498,0.00064281,0.00467057,-0.00149933,0
 .00280369,0.00000337,0.00000524,0.00000697,0.00000106,0.00000553,0.000
 00778,0.00000431,-0.00000495,-0.00000718,0.00015914,0.00004523,0.00015
 909,0.14863803,0.00007475,0.00007792,-0.00009703,-0.00002374,-0.000016
 61,0.00002016,-0.00001329,-0.00001868,0.00002839,-0.00004880,-0.000004
 64,0.00006667,0.00000674,-0.00002934,-0.00001649,-0.00003264,-0.000020
 92,0.00004032,0.00005454,0.00031924,-0.00000246,-0.00008317,-0.0017377
 8,-0.00006902,0.00043222,0.00074535,-0.00047553,0.00001383,0.00024214,
 0.00006118,-0.00089822,0.00074290,0.00165623,0.00084270,-0.00107658,-0
 .00137791,-0.01799440,-0.00318816,0.02184373,-0.04720267,-0.07310367,0
 .05667094,0.02097404,0.00105233,-0.02673507,0.00252546,-0.00193435,-0.
 00440783,0.00028491,0.00056352,-0.00034779,-0.00001606,-0.00022351,-0.
 00000592,0.00009368,-0.00001300,-0.00011750,-0.00003447,0.00001296,0.0
 0004599,-0.00000903,0.00000997,0.00001339,-0.00000177,-0.00010060,-0.0
 0000679,-0.00010578,-0.00005342,0.00012202,0.00013162,0.00010746,-0.00
 015444,0.00020665,-0.00089946,-0.00034614,0.00008574,0.00046980,-0.000
 01206,-0.00016939,-0.00029740,0.00034817,-0.00103148,0.00003528,0.0012
 1791,-0.00081652,-0.00524119,-0.00053254,-0.00000429,0.00000892,0.0000
 0556,-0.00001067,0.00001265,0.00001452,0.00000734,-0.00001323,-0.00001
 105,-0.00003237,0.00013384,0.00002284,0.04280422,0.08349984,-0.0000059
 5,0.00002684,0.00009445,0.00000123,-0.00000728,-0.00002152,0.00000040,
 0.00000076,-0.00002317,-0.00000462,-0.00000407,-0.00002801,0.00001866,
 -0.00000120,0.00000693,0.00000542,0.00002568,-0.00001177,-0.00011438,-
 0.00008068,-0.00006752,-0.00044833,0.00048197,0.00026930,-0.00002244,-
 0.00065673,0.00005976,-0.00017016,0.00041365,-0.00009441,-0.00156023,-
 0.00024381,-0.00114027,0.00089422,-0.00110260,-0.00011645,0.00560899,-
 0.00002275,-0.00020250,0.13195596,0.05640973,-0.20403222,0.01185595,-0
 .00666779,-0.01712867,0.00317420,-0.00137614,0.00273958,0.00044085,0.0
 0006208,-0.00014358,-0.00006289,-0.00012855,0.00004672,0.00005768,-0.0
 0006149,-0.00011924,0.00001815,0.00000552,-0.00002230,0.00001547,-0.00
 002508,-0.00002684,-0.00001889,0.00007773,0.00000400,-0.00007354,-0.00
 022212,0.00012282,0.00008624,0.00021403,-0.00009263,-0.00026214,-0.000
 22194,0.00002850,-0.00008254,0.00009528,-0.00017146,-0.00059481,0.0002
 2445,-0.00050817,0.00052417,0.00003788,0.00021540,0.00289248,0.0003465
 7,0.00332045,0.00000574,-0.00000666,0.,0.00000569,-0.00000631,-0.00000
 159,-0.00000558,0.00000476,0.00000705,0.00014911,-0.00007670,0.0000763
 4,-0.15427815,-0.04746671,0.21695773,0.00000086,-0.00000931,0.00000701
 ,0.00000018,0.00000169,-0.00000154,-0.00000058,0.00000219,-0.00000207,
 0.00000337,0.00000135,-0.00000686,-0.00000179,0.00000560,0.00000219,0.
 00000127,-0.00000078,-0.00000158,0.00000099,-0.00000748,0.00000192,-0.
 00000572,-0.00001143,0.00000589,0.00000876,0.00000094,-0.00002705,0.00
 000960,0.00001487,0.00001637,0.00005730,-0.00002455,0.00004476,-0.0000
 1712,0.00000001,-0.00000347,0.00003323,0.00002477,0.00002298,-0.000461
 19,0.00001458,-0.00038282,0.00026221,-0.00011979,0.00002277,0.00199231
 ,0.00017828,0.00112046,-0.00008507,-0.00199994,-0.00045006,0.00048714,
 -0.00130269,-0.00445862,-0.11617647,0.06918462,0.13111474,-0.00301898,
 0.00999386,0.00783942,-0.00144536,0.00025241,-0.00230685,-0.00025042,0
 .00050496,-0.00002074,-0.00025215,0.00014735,0.00117367,0.00239231,-0.
 00255962,0.00393013,0.00000494,0.00002021,0.00004312,-0.00007688,0.000
 02552,-0.00005431,0.00000028,-0.00002496,0.00001540,0.00002657,-0.0000
 1157,0.00001110,-0.00003790,0.00000269,-0.00004165,0.00000063,-0.00000
 022,-0.00000018,0.00000098,-0.00000114,-0.00000043,0.00000014,0.000000
 93,0.00000028,-0.00000460,0.00000232,-0.00000404,-0.00000233,-0.000008
 96,-0.00001327,0.11651731,-0.00000172,0.00000347,0.00000173,0.00000032
 ,-0.00000076,-0.00000046,0.00000050,-0.00000082,-0.00000033,0.00000007
 ,-0.00000052,0.00000011,0.00000028,-0.00000028,-0.00000031,-0.00000032
 ,0.00000091,0.00000051,0.00000001,-0.00000382,-0.00000094,0.00000301,0
 .00002778,-0.00000030,-0.00000670,-0.00001127,0.00000877,0.00000226,-0
 .00001124,-0.00000705,-0.00000579,0.00000273,-0.00000441,0.00000398,-0
 .00000823,-0.00000361,0.00000990,0.00002364,-0.00001597,0.00012960,-0.
 00004844,-0.00007483,0.00014214,-0.00041091,-0.00027396,0.00053285,0.0
 0105377,-0.00091753,-0.00155610,-0.00582771,0.00128058,0.01264043,-0.0
 0708302,-0.01682434,0.07056522,-0.11395891,-0.10284713,-0.00643008,0.0
 1309083,0.00970446,0.00062978,0.00016037,-0.00036821,0.00020530,0.0001
 1137,-0.00020900,-0.00078133,0.00058205,0.00099808,-0.00193486,-0.0013
 2708,0.00158231,-0.00005746,0.00017520,0.00009193,-0.00009451,-0.00035
 529,0.00009132,0.00009004,0.00010197,-0.00010463,0.00005704,-0.0001333
 9,-0.00009539,-0.00007248,-0.00003742,0.00009758,0.00000009,-0.0000003
 1,-0.00000023,0.00000002,-0.00000031,-0.00000016,-0.00000026,0.0000001
 6,0.00000032,-0.00000173,0.00000657,0.00000410,0.00001489,-0.00003416,
 -0.00002207,-0.07403439,0.11418961,0.00000798,0.00001148,-0.00000156,-
 0.00000250,-0.00000248,0.00000007,-0.00000150,-0.00000225,0.00000089,-
 0.00000700,-0.00000154,0.00000675,0.00000150,-0.00000716,-0.00000350,-
 0.00000152,0.00000110,0.00000222,0.00000288,0.00000870,0.00000064,0.00
 000775,0.00001833,-0.00000763,-0.00002802,-0.00000109,0.00002362,0.000
 01474,-0.00002326,-0.00000119,0.00004718,0.00001970,0.00003632,-0.0000
 0296,0.00000147,-0.00001579,0.00002103,-0.00003508,0.00001696,-0.00036
 788,0.00007327,-0.00027682,0.00005669,0.00006315,0.00022709,0.00116618
 ,-0.00046079,0.00128332,-0.00039179,0.00185255,0.00051023,-0.00265705,
 0.00113019,0.00072262,0.13129856,-0.10107027,-0.20343731,0.00571148,-0
 .01144240,-0.00676893,-0.00225788,0.00011700,-0.00033933,-0.00005962,-
 0.00059445,-0.00031714,0.00105339,-0.00019774,-0.00073743,0.00401053,0
 .00238519,0.00084537,0.00003309,-0.00000800,-0.00000726,-0.00006981,-0
 .00006295,-0.00003988,0.00003025,0.00004339,-0.00001858,0.00001996,-0.
 00000708,0.00000973,-0.00005134,0.00000079,-0.00000428,-0.00000014,0.0
 0000017,0.00000071,-0.00000028,0.00000133,0.00000130,0.00000012,-0.000
 00121,-0.00000005,-0.00000456,-0.00000111,-0.00000223,-0.00001017,0.00
 000863,0.00000248,-0.13790774,0.10791966,0.20838659,0.00000550,0.00000
 056,0.00000307,-0.00000152,-0.00000042,-0.00000082,-0.00000132,0.00000
 010,-0.00000081,-0.00000174,-0.00000014,-0.00000100,-0.00000048,0.0000
 0008,-0.00000046,-0.00000021,0.00000004,-0.00000009,-0.00000160,0.0000
 0023,-0.00000166,-0.00000125,-0.00000260,-0.00000151,0.00000198,0.0000
 0132,-0.00000127,-0.00000276,0.00000198,0.00000084,-0.00000015,-0.0000
 0048,-0.00000498,0.00000261,-0.00000038,0.00000233,0.00000662,0.000013
 61,0.00000744,0.00003482,-0.00001284,-0.00001778,-0.00008091,0.0000934
 7,-0.00004853,0.00002871,-0.00015644,0.00027828,0.00071859,-0.00034849
 ,-0.00018703,-0.00019336,-0.00020310,-0.00017455,-0.00033046,0.0007663
 9,-0.00068118,0.00410428,-0.00956388,-0.00750922,-0.04786531,0.0467052
 6,0.03234805,0.00020924,0.01589243,0.00023656,0.00403229,0.00188275,0.
 00642254,-0.00009019,-0.00281972,0.00359234,-0.00000728,-0.00004630,-0
 .00007619,0.00000653,-0.00000019,-0.00000670,0.00000881,0.00000759,0.0
 0000029,0.00000115,-0.00001474,-0.00001056,-0.00002111,-0.00000818,0.0
 0001490,0.00000043,0.00000006,0.00000034,0.00000051,-0.00000013,0.0000
 0040,0.00000072,-0.00000016,0.00000056,0.00000067,0.00000051,0.0000008
 8,0.00000221,-0.00000373,0.00000309,-0.00008957,-0.00002895,0.00020544
 ,0.04140442,-0.00000918,-0.00001980,0.00000826,0.00000316,0.00000417,-
 0.00000151,0.00000146,0.00000429,-0.00000281,0.00001042,0.00000327,-0.
 00001270,-0.00000334,0.00001164,0.00000591,0.00000231,-0.00000355,-0.0
 0000339,-0.00000265,-0.00001373,0.00000202,-0.00000850,-0.00001873,0.0
 0000882,0.00003099,0.00000189,-0.00003979,-0.00000770,0.00002219,0.000
 01310,-0.00000344,-0.00002032,0.00000232,-0.00000723,-0.00000274,0.000
 00837,-0.00000385,0.00002861,0.00000723,-0.00003165,-0.00002099,0.0000
 3516,0.00005097,-0.00001103,-0.00005052,-0.00018690,-0.00000316,0.0002
 0654,0.00042191,-0.00047678,-0.00068329,-0.00008871,-0.00046471,0.0000
 9401,0.00025752,0.00091783,-0.00009187,0.00655184,-0.01076767,-0.00973
 039,0.04859503,-0.31456778,-0.09967932,-0.00107006,-0.00030389,0.00149
 362,-0.00108563,0.00246402,0.00057560,-0.00185267,-0.00263420,0.001660
 12,0.00003236,-0.00008837,-0.00004510,0.00001378,-0.00000416,-0.000018
 45,-0.00000901,0.00001098,0.00001195,0.00002136,-0.00004718,-0.0000328
 7,-0.00000905,-0.00001894,0.00001032,0.00000064,-0.00000060,-0.0000009
 8,0.00000100,-0.00000221,-0.00000168,-0.00000011,0.00000218,0.00000027
 ,-0.00000051,0.00000672,0.00000135,0.00000639,-0.00000508,-0.00000953,
 -0.00023298,-0.00026044,0.00025689,-0.05185270,0.32634563,0.00000181,-
 0.00000430,0.00000494,-0.00000037,0.00000080,-0.00000111,-0.00000063,0
 .00000124,-0.00000143,0.00000037,0.00000093,-0.00000286,-0.00000090,0.
 00000150,0.00000051,0.00000020,-0.00000047,-0.00000061,-0.00000203,-0.
 00000170,-0.00000051,-0.00000227,0.00000121,0.00000092,0.00000256,-0.0
 0000157,-0.00000264,-0.00000041,0.00000061,-0.00000170,-0.00000537,-0.
 00000148,0.00000274,0.00000144,-0.00000044,0.00000254,0.00000517,-0.00
 001529,0.00000238,-0.00002023,0.00001097,0.00004977,-0.00005400,-0.000
 10536,-0.00007201,0.00027448,0.00016737,-0.00007121,-0.00008786,0.0003
 0881,0.00076110,-0.00015972,0.00024142,-0.00007158,-0.00074680,-0.0007
 4722,-0.00007099,-0.00542734,0.01102839,0.00764727,0.03259274,-0.09725
 239,-0.08197522,-0.00195563,-0.02034884,-0.00131168,0.00603859,-0.0032
 4804,0.00063435,0.00371803,0.00290644,-0.00143104,-0.00006603,0.000056
 24,0.00003050,-0.00000491,-0.00000047,0.00000759,-0.00000187,-0.000009
 43,0.00000944,-0.00000591,0.00001362,0.00000379,0.00001482,0.00000923,
 -0.00002658,0.00000041,-0.00000024,0.00000012,0.00000054,-0.00000022,0
 .00000011,0.00000057,0.00000034,0.00000048,0.00000075,0.00000005,0.000
 00034,0.00000440,0.00000351,-0.00000022,0.00017911,-0.00000584,-0.0001
 5856,-0.03276003,0.10620668,0.07708272,0.00000934,-0.00000027,0.000009
 14,-0.00000246,-0.00000074,-0.00000238,-0.00000232,0.00000060,-0.00000
 253,-0.00000137,0.00000048,-0.00000502,-0.00000144,0.00000242,0.000000
 90,-0.00000007,-0.00000088,-0.00000129,-0.00000341,-0.00000393,-0.0000
 0209,-0.00000335,0.00000134,0.00000131,0.00000380,-0.00000273,-0.00000
 701,-0.00000264,0.00000408,0.00000203,0.00000182,-0.00000539,-0.000001
 10,0.00000167,-0.00000166,0.00000358,-0.00000444,0.00000592,0.00000099
 ,-0.00000308,-0.00000238,0.00000207,-0.00001705,-0.00000682,-0.0000281
 4,0.00000293,0.00000993,0.00005020,0.00123081,-0.00011343,0.00054499,-
 0.00090814,0.00012473,-0.00055320,0.00056018,-0.00062206,0.00027991,0.
 00286622,0.00048002,0.00517289,-0.00020688,-0.00961213,0.00455937,-0.1
 3410709,-0.09513244,0.12195877,0.00111740,0.00298718,-0.00422436,0.001
 65037,0.00132347,0.00071566,-0.00001149,-0.00001194,-0.00000274,0.0000
 1038,-0.00000306,0.00000613,0.00000209,-0.00000441,0.00000987,-0.00000
 105,-0.00000514,-0.00001042,0.00001017,-0.00000601,-0.00000147,0.00000
 093,-0.00000024,0.00000027,0.00000109,-0.00000100,0.00000037,0.0000009
 9,0.00000016,0.00000096,0.00000154,0.00000070,0.00000103,0.00000565,0.
 00000301,0.00000422,0.00012571,-0.00002110,0.00013302,-0.00188085,0.00
 046474,-0.00153370,0.12955402,-0.00000742,-0.00002524,0.00000417,0.000
 00272,0.00000570,-0.00000032,0.00000087,0.00000575,-0.00000173,0.00000
 784,0.00000357,-0.00000896,-0.00000253,0.00000803,0.00000443,0.0000023
 8,-0.00000374,-0.00000341,-0.00000296,-0.00000344,0.00000398,-0.000004
 77,-0.00003932,0.00000139,0.00002981,0.00001215,-0.00003666,-0.0000058
 6,0.00001765,0.00001002,-0.00001211,-0.00001093,0.00001401,-0.00000557
 ,0.00000408,0.00000710,0.00001127,-0.00001063,-0.00001534,-0.00006622,
 -0.00000287,0.00008503,0.00014138,-0.00004384,-0.00018273,-0.00010968,
 0.00033577,0.00017932,-0.00093754,-0.00009547,0.00098041,0.00003135,0.
 00011400,0.00014861,-0.00033329,0.00053180,0.00038930,0.00163990,-0.00
 054251,-0.00306427,0.00478988,0.01155243,-0.00523220,-0.08858205,-0.14
 071768,0.09976651,-0.01860832,-0.02301966,0.02131004,0.00218645,-0.004
 54759,-0.00367150,-0.00000020,-0.00008073,-0.00000859,0.00002357,0.000
 05797,-0.00002484,-0.00002744,-0.00003254,0.00002979,0.00001056,-0.000
 00848,-0.00001357,0.00000045,-0.00000352,-0.00000228,0.00000019,0.0000
 0009,-0.00000038,0.00000076,-0.00000047,-0.00000123,0.00000010,0.00000
 167,-0.00000013,-0.00000021,0.00000452,0.00000056,0.00000989,-0.000022
 33,-0.00001673,-0.00002935,-0.00001607,0.00000588,-0.00030282,-0.00006
 737,0.00078394,0.10014898,0.15663923,0.00000822,-0.00000505,0.00000522
 ,-0.00000222,0.00000086,-0.00000116,-0.00000221,0.00000191,-0.00000135
 ,-0.00000406,0.00000053,0.,0.00000026,-0.00000195,-0.00000158,-0.00000
 088,0.00000078,0.00000024,-0.00000196,0.00000522,-0.00000144,0.0000005
 2,-0.00000649,-0.00000398,-0.00000280,0.00000526,0.00000292,0.00000074
 ,-0.00000277,-0.00000280,-0.00000197,0.00000532,0.00000474,0.00000308,
 0.00000206,0.00000093,0.00000167,-0.00000843,-0.00000751,-0.00000616,0
 .00000282,0.00000705,-0.00000907,0.00000807,-0.00002556,0.00003479,0.0
 0002515,-0.00000063,0.00043874,-0.00008099,0.00108968,-0.00056518,0.00
 002810,-0.00061854,0.00031755,0.00076272,0.00052901,0.00532239,-0.0015
 7208,-0.00022187,0.00641854,0.01331608,-0.00225007,0.12280544,0.108202
 09,-0.17405017,-0.00701313,-0.00650184,0.00573015,0.00082679,-0.002559
 95,0.00067803,-0.00000121,0.00000658,-0.00000999,0.00000956,0.00000938
 ,0.00000437,0.00000691,0.00000019,0.00000132,-0.00000839,0.00000662,0.
 00000302,-0.00000063,0.00000602,0.00001123,0.00000033,0.00000017,0.000
 00077,0.00000059,0.00000104,0.00000084,0.00000095,-0.00000021,0.000000
 47,0.00000091,-0.00000061,0.00000102,0.00000510,-0.00000786,0.00000103
 ,0.00013196,-0.00000477,0.00006057,-0.00163296,-0.00020436,-0.00104169
 ,-0.12708224,-0.11143962,0.17010573\\0.00000693,0.00000329,0.00001242,
 0.00000382,-0.00000017,-0.00000823,-0.00000607,-0.00000008,0.00000370,
 -0.00001402,-0.00000009,-0.00001515,0.00000647,0.00000103,0.00000039,0
 .00000616,0.00000401,0.00000521,-0.00000929,-0.00000045,-0.00001005,0.
 00000056,-0.00000281,0.00000558,-0.00000171,0.00000052,-0.00000340,0.0
 0000607,-0.00000338,0.00000446,-0.00000585,0.00000162,-0.00000458,0.00
 000684,0.00000702,-0.00000101,0.00000038,0.00000140,-0.00000167,-0.000
 00047,-0.00000187,-0.00000227,-0.00000164,-0.00000122,0.00000383,0.000
 00648,0.00000446,-0.00000325,-0.00000583,-0.00000249,0.00000026,-0.000
 00204,0.00000017,0.00000077,-0.00000729,-0.00000229,-0.00000536,0.0000
 0964,0.00000122,0.00001269,-0.00000784,0.00000495,-0.00000665,0.000001
 81,0.00000111,0.00000032,-0.00000469,0.00000097,0.00000034,0.00000665,
 -0.00000459,-0.00000004,0.00000072,-0.00000656,-0.00000131,-0.00000084
 ,0.00000023,0.00000314,-0.00000061,0.00000016,-0.00000357,0.00000103,-
 0.00000324,0.00000398,-0.00000498,0.00000143,0.00000089,0.00001152,-0.
 00000123,0.00000846,-0.00000254,-0.00000012,-0.00000014,-0.00000238,-0
 .00000153,-0.00000393,0.00000028,0.00000063,0.00000037,0.00000066,-0.0
 0000127,-0.00000021,0.00000196,-0.00000012,0.00000150,0.00000067,-0.00
 000041,0.00000235,-0.00000056,-0.00000031,0.00000017\\\@


 POCKETA-POCKETA
 BARON VON RICHTOFEN
 SLAUGHTERED THE ALLIES WITH
 HARDLY A CARE.
 KILLED EIGHTY-ONE WITH HIS
 BLOOD-COLORED TRIPLANE, THEN
 UN-AEROBATICALLY
 PLUNGED FROM THE AIR.
   -- TONY HOFFMAN
 Job cpu time:  0 days 11 hours 32 minutes 22.3 seconds.
 File lengths (MBytes):  RWF=   1413 Int=      0 D2E=      0 Chk=     24 Scr=      1
 Normal termination of Gaussian 09 at Sun Dec 29 02:15:37 2013.
