 Entering Gaussian System, Link 0=g09
 Initial command:
 /opt/gaussian/g09/l1.exe /panfs/panfs.cluster/home/shuo/Gau-25091.inp -scrdir=/panfs/panfs.cluster/home/shuo/
 Default is to use a total of  12 processors:
                               12 via shared-memory
                                1 via Linda
 Entering Link 1 = /opt/gaussian/g09/l1.exe PID=     25092.
  
 Copyright (c) 1988,1990,1992,1993,1995,1998,2003,2009,2011,
            Gaussian, Inc.  All Rights Reserved.
  
 This is part of the Gaussian(R) 09 program.  It is based on
 the Gaussian(R) 03 system (copyright 2003, Gaussian, Inc.),
 the Gaussian(R) 98 system (copyright 1998, Gaussian, Inc.),
 the Gaussian(R) 94 system (copyright 1995, Gaussian, Inc.),
 the Gaussian 92(TM) system (copyright 1992, Gaussian, Inc.),
 the Gaussian 90(TM) system (copyright 1990, Gaussian, Inc.),
 the Gaussian 88(TM) system (copyright 1988, Gaussian, Inc.),
 the Gaussian 86(TM) system (copyright 1986, Carnegie Mellon
 University), and the Gaussian 82(TM) system (copyright 1983,
 Carnegie Mellon University). Gaussian is a federally registered
 trademark of Gaussian, Inc.
  
 This software contains proprietary and confidential information,
 including trade secrets, belonging to Gaussian, Inc.
  
 This software is provided under written license and may be
 used, copied, transmitted, or stored only in accord with that
 written license.
  
 The following legend is applicable only to US Government
 contracts under FAR:
  
                    RESTRICTED RIGHTS LEGEND
  
 Use, reproduction and disclosure by the US Government is
 subject to restrictions as set forth in subparagraphs (a)
 and (c) of the Commercial Computer Software - Restricted
 Rights clause in FAR 52.227-19.
  
 Gaussian, Inc.
 340 Quinnipiac St., Bldg. 40, Wallingford CT 06492
  
  
 ---------------------------------------------------------------
 Warning -- This program may not be used in any manner that
 competes with the business of Gaussian, Inc. or will provide
 assistance to any competitor of Gaussian, Inc.  The licensee
 of this program is prohibited from giving any competitor of
 Gaussian, Inc. access to this program.  By using this program,
 the user acknowledges that Gaussian, Inc. is engaged in the
 business of creating and licensing software in the field of
 computational chemistry and represents and warrants to the
 licensee that it is not a competitor of Gaussian, Inc. and that
 it will not use this program in any manner prohibited above.
 ---------------------------------------------------------------
  

 Cite this work as:
 Gaussian 09, Revision C.01,
 M. J. Frisch, G. W. Trucks, H. B. Schlegel, G. E. Scuseria, 
 M. A. Robb, J. R. Cheeseman, G. Scalmani, V. Barone, B. Mennucci, 
 G. A. Petersson, H. Nakatsuji, M. Caricato, X. Li, H. P. Hratchian, 
 A. F. Izmaylov, J. Bloino, G. Zheng, J. L. Sonnenberg, M. Hada, 
 M. Ehara, K. Toyota, R. Fukuda, J. Hasegawa, M. Ishida, T. Nakajima, 
 Y. Honda, O. Kitao, H. Nakai, T. Vreven, J. A. Montgomery, Jr., 
 J. E. Peralta, F. Ogliaro, M. Bearpark, J. J. Heyd, E. Brothers, 
 K. N. Kudin, V. N. Staroverov, T. Keith, R. Kobayashi, J. Normand, 
 K. Raghavachari, A. Rendell, J. C. Burant, S. S. Iyengar, J. Tomasi, 
 M. Cossi, N. Rega, J. M. Millam, M. Klene, J. E. Knox, J. B. Cross, 
 V. Bakken, C. Adamo, J. Jaramillo, R. Gomperts, R. E. Stratmann, 
 O. Yazyev, A. J. Austin, R. Cammi, C. Pomelli, J. W. Ochterski, 
 R. L. Martin, K. Morokuma, V. G. Zakrzewski, G. A. Voth, 
 P. Salvador, J. J. Dannenberg, S. Dapprich, A. D. Daniels, 
 O. Farkas, J. B. Foresman, J. V. Ortiz, J. Cioslowski, 
 and D. J. Fox, Gaussian, Inc., Wallingford CT, 2010.
 
 ******************************************
 Gaussian 09:  EM64L-G09RevC.01 23-Sep-2011
                29-Dec-2013 
 ******************************************
 %chk=72_C21H9N7OS3.chk
 %NProcShared=12
 Will use up to   12 processors via shared memory.
 %Mem=8000MB
 Default route:  MaxDisk=100GB
 --------------------------------------------
 #B3LYP/6-31++G(d,p) opt scf=direct freq test
 --------------------------------------------
 1/14=-1,18=20,19=15,26=3,38=1/1,3;
 2/9=110,12=2,17=6,18=5,40=1/2;
 3/5=1,6=6,7=1111,11=2,16=1,25=1,30=1,71=1,74=-5/1,2,3;
 4//1;
 5/5=2,38=5/2;
 6/7=2,8=2,9=2,10=2,28=1/1;
 7//1,2,3,16;
 1/14=-1,18=20,19=15/3(2);
 2/9=110/2;
 99//99;
 2/9=110/2;
 3/5=1,6=6,7=1111,11=2,16=1,25=1,30=1,71=1,74=-5/1,2,3;
 4/5=5,16=3/1;
 5/5=2,38=5/2;
 7//1,2,3,16;
 1/14=-1,18=20,19=15/3(-5);
 2/9=110/2;
 6/7=2,8=2,9=2,10=2,19=2,28=1/1;
 99/9=1/99;
 ----------------------------------------------------------------------
 Geom opt of No.72 candidate from the CEPDB database with SMILE code of
  [SiH2]1C=c2ccc3c4nsnc4c4c(cnc5cc(-c6nccs6)c6=C[SiH2]C=c6c45)c3c2=C1, 
 HPC, 20131227, Shuo Dai, Gaussian09
 ----------------------------------------------------------------------
 Charge =  0 Multiplicity = 1
 Symbolic Z-Matrix:
 Si                   -3.98177  -0.96351  -3.25792 
 H                    -3.68931  -2.20929  -2.58215 
 H                    -3.41231   0.48245  -3.08183 
 C                    -5.70894  -1.63603  -4.57878 
 C                    -5.25993  -1.39421  -5.79914 
 C                    -5.91454  -1.37318  -7.10566 
 C                    -5.18252  -1.52384  -8.11926 
 C                    -3.70818  -1.47359  -8.04081 
 C                    -3.08886  -1.7716   -9.27632 
 N                    -3.78375  -1.9837   -10.41507 
 S                    -2.7188   -2.26136  -11.60972 
 N                    -1.31138  -2.10593  -10.74829 
 C                    -1.62064  -1.8445   -9.45872 
 C                    -0.74151  -1.63146  -8.33328 
 C                    -1.49998  -1.26973  -7.02756 
 C                    -0.61656  -1.10706  -5.9644 
 N                     0.74934  -1.13529  -6.0348 
 C                     1.37283  -1.38062  -7.22749 
 C                     2.85614  -1.30157  -7.10607 
 C                     3.65323  -1.3393   -8.18515 
 C                     5.07104  -1.39327  -8.08397 
 N                     5.90293  -0.52749  -8.63192 
 C                     7.17918  -1.03085  -8.64204 
 C                     7.32123  -2.29306  -8.11556 
 S                     5.82191  -2.85086  -7.51242 
 C                     3.0161   -1.44858  -9.46737 
 C                     3.67545  -1.16647  -10.6176 
 Si                    3.95725  -3.07843  -11.33944 
 H                     4.99874  -3.34616  -10.28621 
 H                     5.006    -2.40478  -12.21265 
 C                     1.85064  -2.76566  -10.77736 
 C                     1.72364  -2.11448  -9.58184 
 C                     0.71325  -1.70564  -8.44901 
 C                    -2.98887  -1.09494  -6.87446 
 C                    -4.00736  -0.71045  -5.60796 
 C                    -4.52771   0.16426  -4.61047 
 H                    -6.74322  -1.26085  -4.42873 
 H                    -7.00737  -1.41124  -7.22826 
 H                    -5.60642  -1.76708  -9.11905 
 H                    -0.96324  -0.92136  -4.95001 
 H                     3.28296  -1.19202  -6.11617 
 H                     7.97152  -0.42222  -9.05611 
 H                     8.21023  -2.89567  -8.03339 
 H                     3.24439  -1.04281  -11.61558 
 H                     1.14502  -2.67573  -11.59745 
 H                    -5.37687   0.08974  -3.65517 
 

 GradGradGradGradGradGradGradGradGradGradGradGradGradGradGradGradGradGrad
 Berny optimization.
 Initialization pass.
                           ----------------------------
                           !    Initial Parameters    !
                           ! (Angstroms and Degrees)  !
 --------------------------                            --------------------------
 ! Name  Definition              Value          Derivative Info.                !
 --------------------------------------------------------------------------------
 ! R1    R(1,2)                  1.4471         estimate D2E/DX2                !
 ! R2    R(1,3)                  1.564          estimate D2E/DX2                !
 ! R3    R(1,36)                 1.8437         estimate D2E/DX2                !
 ! R4    R(1,46)                 1.7926         estimate D2E/DX2                !
 ! R5    R(4,5)                  1.3226         estimate D2E/DX2                !
 ! R6    R(4,37)                 1.1104         estimate D2E/DX2                !
 ! R7    R(5,6)                  1.4615         estimate D2E/DX2                !
 ! R8    R(5,35)                 1.4398         estimate D2E/DX2                !
 ! R9    R(6,7)                  1.2593         estimate D2E/DX2                !
 ! R10   R(6,38)                 1.1003         estimate D2E/DX2                !
 ! R11   R(7,8)                  1.4773         estimate D2E/DX2                !
 ! R12   R(7,39)                 1.1129         estimate D2E/DX2                !
 ! R13   R(8,9)                  1.4138         estimate D2E/DX2                !
 ! R14   R(8,34)                 1.4217         estimate D2E/DX2                !
 ! R15   R(9,10)                 1.3508         estimate D2E/DX2                !
 ! R16   R(9,13)                 1.4813         estimate D2E/DX2                !
 ! R17   R(10,11)                1.6243         estimate D2E/DX2                !
 ! R18   R(11,12)                1.6574         estimate D2E/DX2                !
 ! R19   R(12,13)                1.3517         estimate D2E/DX2                !
 ! R20   R(13,14)                1.4439         estimate D2E/DX2                !
 ! R21   R(14,15)                1.5527         estimate D2E/DX2                !
 ! R22   R(14,33)                1.4612         estimate D2E/DX2                !
 ! R23   R(15,16)                1.3918         estimate D2E/DX2                !
 ! R24   R(15,34)                1.5069         estimate D2E/DX2                !
 ! R25   R(16,17)                1.368          estimate D2E/DX2                !
 ! R26   R(16,40)                1.088          estimate D2E/DX2                !
 ! R27   R(17,18)                1.368          estimate D2E/DX2                !
 ! R28   R(18,19)                1.4904         estimate D2E/DX2                !
 ! R29   R(18,33)                1.4258         estimate D2E/DX2                !
 ! R30   R(19,20)                1.3421         estimate D2E/DX2                !
 ! R31   R(19,41)                1.0835         estimate D2E/DX2                !
 ! R32   R(20,21)                1.4224         estimate D2E/DX2                !
 ! R33   R(20,26)                1.436          estimate D2E/DX2                !
 ! R34   R(21,22)                1.3198         estimate D2E/DX2                !
 ! R35   R(21,25)                1.7364         estimate D2E/DX2                !
 ! R36   R(22,23)                1.372          estimate D2E/DX2                !
 ! R37   R(23,24)                1.375          estimate D2E/DX2                !
 ! R38   R(23,42)                1.0815         estimate D2E/DX2                !
 ! R39   R(24,25)                1.7096         estimate D2E/DX2                !
 ! R40   R(24,43)                1.0771         estimate D2E/DX2                !
 ! R41   R(26,27)                1.3555         estimate D2E/DX2                !
 ! R42   R(26,32)                1.4584         estimate D2E/DX2                !
 ! R43   R(27,28)                2.063          estimate D2E/DX2                !
 ! R44   R(27,44)                1.0941         estimate D2E/DX2                !
 ! R45   R(28,29)                1.5052         estimate D2E/DX2                !
 ! R46   R(28,30)                1.5219         estimate D2E/DX2                !
 ! R47   R(28,31)                2.2026         estimate D2E/DX2                !
 ! R48   R(31,32)                1.3673         estimate D2E/DX2                !
 ! R49   R(31,45)                1.0856         estimate D2E/DX2                !
 ! R50   R(32,33)                1.5721         estimate D2E/DX2                !
 ! R51   R(34,35)                1.6701         estimate D2E/DX2                !
 ! R52   R(35,36)                1.4251         estimate D2E/DX2                !
 ! R53   R(36,46)                1.2803         estimate D2E/DX2                !
 ! A1    A(2,1,3)              132.0465         estimate D2E/DX2                !
 ! A2    A(2,1,36)             158.278          estimate D2E/DX2                !
 ! A3    A(2,1,46)             140.0468         estimate D2E/DX2                !
 ! A4    A(3,1,36)              67.9691         estimate D2E/DX2                !
 ! A5    A(3,1,46)              76.4147         estimate D2E/DX2                !
 ! A6    A(5,4,37)             112.2787         estimate D2E/DX2                !
 ! A7    A(4,5,6)              132.4862         estimate D2E/DX2                !
 ! A8    A(4,5,35)             105.0492         estimate D2E/DX2                !
 ! A9    A(6,5,35)             120.1014         estimate D2E/DX2                !
 ! A10   A(5,6,7)              117.2224         estimate D2E/DX2                !
 ! A11   A(5,6,38)             122.9533         estimate D2E/DX2                !
 ! A12   A(7,6,38)             118.9134         estimate D2E/DX2                !
 ! A13   A(6,7,8)              122.229          estimate D2E/DX2                !
 ! A14   A(6,7,39)             121.8589         estimate D2E/DX2                !
 ! A15   A(8,7,39)             115.8043         estimate D2E/DX2                !
 ! A16   A(7,8,9)              112.557          estimate D2E/DX2                !
 ! A17   A(7,8,34)             123.8886         estimate D2E/DX2                !
 ! A18   A(9,8,34)             123.4664         estimate D2E/DX2                !
 ! A19   A(8,9,10)             122.988          estimate D2E/DX2                !
 ! A20   A(8,9,13)             123.5155         estimate D2E/DX2                !
 ! A21   A(10,9,13)            113.4756         estimate D2E/DX2                !
 ! A22   A(9,10,11)            108.0347         estimate D2E/DX2                !
 ! A23   A(10,11,12)            99.1168         estimate D2E/DX2                !
 ! A24   A(11,12,13)           108.6458         estimate D2E/DX2                !
 ! A25   A(9,13,12)            110.7185         estimate D2E/DX2                !
 ! A26   A(9,13,14)            120.0159         estimate D2E/DX2                !
 ! A27   A(12,13,14)           129.262          estimate D2E/DX2                !
 ! A28   A(13,14,15)           113.1041         estimate D2E/DX2                !
 ! A29   A(13,14,33)           122.4751         estimate D2E/DX2                !
 ! A30   A(15,14,33)           124.3835         estimate D2E/DX2                !
 ! A31   A(14,15,16)           111.0707         estimate D2E/DX2                !
 ! A32   A(14,15,34)           126.5186         estimate D2E/DX2                !
 ! A33   A(16,15,34)           122.4092         estimate D2E/DX2                !
 ! A34   A(15,16,17)           126.3004         estimate D2E/DX2                !
 ! A35   A(15,16,40)           121.9985         estimate D2E/DX2                !
 ! A36   A(17,16,40)           111.695          estimate D2E/DX2                !
 ! A37   A(16,17,18)           120.2406         estimate D2E/DX2                !
 ! A38   A(17,18,19)           111.9048         estimate D2E/DX2                !
 ! A39   A(17,18,33)           125.2392         estimate D2E/DX2                !
 ! A40   A(19,18,33)           122.8414         estimate D2E/DX2                !
 ! A41   A(18,19,20)           121.6084         estimate D2E/DX2                !
 ! A42   A(18,19,41)           118.1534         estimate D2E/DX2                !
 ! A43   A(20,19,41)           120.2274         estimate D2E/DX2                !
 ! A44   A(19,20,21)           122.4023         estimate D2E/DX2                !
 ! A45   A(19,20,26)           117.1661         estimate D2E/DX2                !
 ! A46   A(21,20,26)           120.1909         estimate D2E/DX2                !
 ! A47   A(20,21,22)           125.0187         estimate D2E/DX2                !
 ! A48   A(20,21,25)           119.0969         estimate D2E/DX2                !
 ! A49   A(22,21,25)           114.5041         estimate D2E/DX2                !
 ! A50   A(21,22,23)           110.4095         estimate D2E/DX2                !
 ! A51   A(22,23,24)           115.4728         estimate D2E/DX2                !
 ! A52   A(22,23,42)           118.5458         estimate D2E/DX2                !
 ! A53   A(24,23,42)           125.9808         estimate D2E/DX2                !
 ! A54   A(23,24,25)           110.1203         estimate D2E/DX2                !
 ! A55   A(23,24,43)           128.9069         estimate D2E/DX2                !
 ! A56   A(25,24,43)           120.9547         estimate D2E/DX2                !
 ! A57   A(21,25,24)            89.3829         estimate D2E/DX2                !
 ! A58   A(20,26,27)           121.7393         estimate D2E/DX2                !
 ! A59   A(20,26,32)           119.8706         estimate D2E/DX2                !
 ! A60   A(27,26,32)           117.3549         estimate D2E/DX2                !
 ! A61   A(26,27,28)            99.8152         estimate D2E/DX2                !
 ! A62   A(26,27,44)           127.2932         estimate D2E/DX2                !
 ! A63   A(28,27,44)            80.7589         estimate D2E/DX2                !
 ! A64   A(27,28,29)            90.8325         estimate D2E/DX2                !
 ! A65   A(27,28,30)            83.3767         estimate D2E/DX2                !
 ! A66   A(27,28,31)            69.419          estimate D2E/DX2                !
 ! A67   A(29,28,30)            90.1947         estimate D2E/DX2                !
 ! A68   A(29,28,31)           120.5611         estimate D2E/DX2                !
 ! A69   A(30,28,31)           137.9559         estimate D2E/DX2                !
 ! A70   A(28,31,32)           112.3087         estimate D2E/DX2                !
 ! A71   A(28,31,45)           116.1444         estimate D2E/DX2                !
 ! A72   A(32,31,45)           124.1044         estimate D2E/DX2                !
 ! A73   A(26,32,31)           101.7576         estimate D2E/DX2                !
 ! A74   A(26,32,33)           113.2211         estimate D2E/DX2                !
 ! A75   A(31,32,33)           144.4538         estimate D2E/DX2                !
 ! A76   A(14,33,18)           112.4042         estimate D2E/DX2                !
 ! A77   A(14,33,32)           135.2467         estimate D2E/DX2                !
 ! A78   A(18,33,32)           112.2923         estimate D2E/DX2                !
 ! A79   A(8,34,15)            112.6849         estimate D2E/DX2                !
 ! A80   A(8,34,35)            112.0189         estimate D2E/DX2                !
 ! A81   A(15,34,35)           134.9348         estimate D2E/DX2                !
 ! A82   A(5,35,34)            108.694          estimate D2E/DX2                !
 ! A83   A(5,35,36)             93.8289         estimate D2E/DX2                !
 ! A84   A(34,35,36)           153.4815         estimate D2E/DX2                !
 ! A85   A(1,36,35)             91.7143         estimate D2E/DX2                !
 ! A86   A(35,36,46)           136.7783         estimate D2E/DX2                !
 ! D1    D(2,1,3,36)           169.9279         estimate D2E/DX2                !
 ! D2    D(2,1,36,35)          -34.9769         estimate D2E/DX2                !
 ! D3    D(3,1,36,35)          124.4803         estimate D2E/DX2                !
 ! D4    D(37,4,5,6)           -35.2432         estimate D2E/DX2                !
 ! D5    D(37,4,5,35)          126.655          estimate D2E/DX2                !
 ! D6    D(4,5,6,7)           -158.2609         estimate D2E/DX2                !
 ! D7    D(4,5,6,38)            10.6805         estimate D2E/DX2                !
 ! D8    D(35,5,6,7)            42.0322         estimate D2E/DX2                !
 ! D9    D(35,5,6,38)         -149.0265         estimate D2E/DX2                !
 ! D10   D(4,5,35,34)          148.676          estimate D2E/DX2                !
 ! D11   D(4,5,35,36)          -45.5383         estimate D2E/DX2                !
 ! D12   D(6,5,35,34)          -46.6817         estimate D2E/DX2                !
 ! D13   D(6,5,35,36)          119.104          estimate D2E/DX2                !
 ! D14   D(5,6,7,8)            -11.1785         estimate D2E/DX2                !
 ! D15   D(5,6,7,39)           164.8885         estimate D2E/DX2                !
 ! D16   D(38,6,7,8)           179.4169         estimate D2E/DX2                !
 ! D17   D(38,6,7,39)           -4.5161         estimate D2E/DX2                !
 ! D18   D(6,7,8,9)            175.3438         estimate D2E/DX2                !
 ! D19   D(6,7,8,34)            -7.9688         estimate D2E/DX2                !
 ! D20   D(39,7,8,9)            -0.9459         estimate D2E/DX2                !
 ! D21   D(39,7,8,34)          175.7414         estimate D2E/DX2                !
 ! D22   D(7,8,9,10)             4.3565         estimate D2E/DX2                !
 ! D23   D(7,8,9,13)          -177.4172         estimate D2E/DX2                !
 ! D24   D(34,8,9,10)         -172.347          estimate D2E/DX2                !
 ! D25   D(34,8,9,13)            5.8792         estimate D2E/DX2                !
 ! D26   D(7,8,34,15)          173.9897         estimate D2E/DX2                !
 ! D27   D(7,8,34,35)           -0.1624         estimate D2E/DX2                !
 ! D28   D(9,8,34,15)           -9.6779         estimate D2E/DX2                !
 ! D29   D(9,8,34,35)          176.1699         estimate D2E/DX2                !
 ! D30   D(8,9,10,11)          178.7854         estimate D2E/DX2                !
 ! D31   D(13,9,10,11)           0.3976         estimate D2E/DX2                !
 ! D32   D(8,9,13,12)         -178.1214         estimate D2E/DX2                !
 ! D33   D(8,9,13,14)            1.2555         estimate D2E/DX2                !
 ! D34   D(10,9,13,12)           0.2566         estimate D2E/DX2                !
 ! D35   D(10,9,13,14)         179.6335         estimate D2E/DX2                !
 ! D36   D(9,10,11,12)          -0.7573         estimate D2E/DX2                !
 ! D37   D(10,11,12,13)          0.9182         estimate D2E/DX2                !
 ! D38   D(11,12,13,9)          -0.7694         estimate D2E/DX2                !
 ! D39   D(11,12,13,14)        179.9274         estimate D2E/DX2                !
 ! D40   D(9,13,14,15)          -2.836          estimate D2E/DX2                !
 ! D41   D(9,13,14,33)         179.2966         estimate D2E/DX2                !
 ! D42   D(12,13,14,15)        176.4113         estimate D2E/DX2                !
 ! D43   D(12,13,14,33)         -1.4561         estimate D2E/DX2                !
 ! D44   D(13,14,15,16)        178.4939         estimate D2E/DX2                !
 ! D45   D(13,14,15,34)         -1.9378         estimate D2E/DX2                !
 ! D46   D(33,14,15,16)         -3.6861         estimate D2E/DX2                !
 ! D47   D(33,14,15,34)        175.8822         estimate D2E/DX2                !
 ! D48   D(13,14,33,18)        176.4379         estimate D2E/DX2                !
 ! D49   D(13,14,33,32)         -6.6037         estimate D2E/DX2                !
 ! D50   D(15,14,33,18)         -1.1851         estimate D2E/DX2                !
 ! D51   D(15,14,33,32)        175.7733         estimate D2E/DX2                !
 ! D52   D(14,15,16,17)          5.4463         estimate D2E/DX2                !
 ! D53   D(14,15,16,40)       -175.5288         estimate D2E/DX2                !
 ! D54   D(34,15,16,17)       -174.1427         estimate D2E/DX2                !
 ! D55   D(34,15,16,40)          4.8821         estimate D2E/DX2                !
 ! D56   D(14,15,34,8)           7.992          estimate D2E/DX2                !
 ! D57   D(14,15,34,35)       -179.6757         estimate D2E/DX2                !
 ! D58   D(16,15,34,8)        -172.4851         estimate D2E/DX2                !
 ! D59   D(16,15,34,35)         -0.1529         estimate D2E/DX2                !
 ! D60   D(15,16,17,18)         -2.0602         estimate D2E/DX2                !
 ! D61   D(40,16,17,18)        178.8298         estimate D2E/DX2                !
 ! D62   D(16,17,18,19)        177.1519         estimate D2E/DX2                !
 ! D63   D(16,17,18,33)         -4.2099         estimate D2E/DX2                !
 ! D64   D(17,18,19,20)       -171.3588         estimate D2E/DX2                !
 ! D65   D(17,18,19,41)          7.4538         estimate D2E/DX2                !
 ! D66   D(33,18,19,20)          9.965          estimate D2E/DX2                !
 ! D67   D(33,18,19,41)       -171.2223         estimate D2E/DX2                !
 ! D68   D(17,18,33,14)          5.3498         estimate D2E/DX2                !
 ! D69   D(17,18,33,32)       -172.3363         estimate D2E/DX2                !
 ! D70   D(19,18,33,14)       -176.1541         estimate D2E/DX2                !
 ! D71   D(19,18,33,32)          6.1598         estimate D2E/DX2                !
 ! D72   D(18,19,20,21)       -173.8804         estimate D2E/DX2                !
 ! D73   D(18,19,20,26)          0.4868         estimate D2E/DX2                !
 ! D74   D(41,19,20,21)          7.3312         estimate D2E/DX2                !
 ! D75   D(41,19,20,26)       -178.3016         estimate D2E/DX2                !
 ! D76   D(19,20,21,22)       -123.5587         estimate D2E/DX2                !
 ! D77   D(19,20,21,25)         70.62           estimate D2E/DX2                !
 ! D78   D(26,20,21,22)         62.2397         estimate D2E/DX2                !
 ! D79   D(26,20,21,25)       -103.5816         estimate D2E/DX2                !
 ! D80   D(19,20,26,27)        163.4121         estimate D2E/DX2                !
 ! D81   D(19,20,26,32)        -28.534          estimate D2E/DX2                !
 ! D82   D(21,20,26,27)        -22.0896         estimate D2E/DX2                !
 ! D83   D(21,20,26,32)        145.9643         estimate D2E/DX2                !
 ! D84   D(20,21,22,23)       -164.7392         estimate D2E/DX2                !
 ! D85   D(25,21,22,23)          1.6562         estimate D2E/DX2                !
 ! D86   D(20,21,25,24)        164.4799         estimate D2E/DX2                !
 ! D87   D(22,21,25,24)         -2.784          estimate D2E/DX2                !
 ! D88   D(21,22,23,24)          0.8009         estimate D2E/DX2                !
 ! D89   D(21,22,23,42)       -179.4644         estimate D2E/DX2                !
 ! D90   D(22,23,24,25)         -2.8595         estimate D2E/DX2                !
 ! D91   D(22,23,24,43)        178.7022         estimate D2E/DX2                !
 ! D92   D(42,23,24,25)        177.4285         estimate D2E/DX2                !
 ! D93   D(42,23,24,43)         -1.0098         estimate D2E/DX2                !
 ! D94   D(23,24,25,21)          3.0303         estimate D2E/DX2                !
 ! D95   D(43,24,25,21)       -178.3868         estimate D2E/DX2                !
 ! D96   D(20,26,27,28)        106.1207         estimate D2E/DX2                !
 ! D97   D(20,26,27,44)       -168.0713         estimate D2E/DX2                !
 ! D98   D(32,26,27,28)        -62.2201         estimate D2E/DX2                !
 ! D99   D(32,26,27,44)         23.5879         estimate D2E/DX2                !
 ! D100  D(20,26,32,31)       -142.5879         estimate D2E/DX2                !
 ! D101  D(20,26,32,33)         43.8758         estimate D2E/DX2                !
 ! D102  D(27,26,32,31)         25.9804         estimate D2E/DX2                !
 ! D103  D(27,26,32,33)       -147.5558         estimate D2E/DX2                !
 ! D104  D(26,27,28,29)        -72.4747         estimate D2E/DX2                !
 ! D105  D(26,27,28,30)       -162.5741         estimate D2E/DX2                !
 ! D106  D(26,27,28,31)         50.0539         estimate D2E/DX2                !
 ! D107  D(44,27,28,29)        161.0246         estimate D2E/DX2                !
 ! D108  D(44,27,28,30)         70.9252         estimate D2E/DX2                !
 ! D109  D(44,27,28,31)        -76.4468         estimate D2E/DX2                !
 ! D110  D(27,28,31,32)        -43.6604         estimate D2E/DX2                !
 ! D111  D(27,28,31,45)        107.5677         estimate D2E/DX2                !
 ! D112  D(29,28,31,32)         34.5861         estimate D2E/DX2                !
 ! D113  D(29,28,31,45)       -174.1857         estimate D2E/DX2                !
 ! D114  D(30,28,31,32)        -96.7652         estimate D2E/DX2                !
 ! D115  D(30,28,31,45)         54.4629         estimate D2E/DX2                !
 ! D116  D(28,31,32,26)         21.9538         estimate D2E/DX2                !
 ! D117  D(28,31,32,33)       -168.2968         estimate D2E/DX2                !
 ! D118  D(45,31,32,26)       -126.5916         estimate D2E/DX2                !
 ! D119  D(45,31,32,33)         43.1578         estimate D2E/DX2                !
 ! D120  D(26,32,33,14)        152.3036         estimate D2E/DX2                !
 ! D121  D(26,32,33,18)        -30.7355         estimate D2E/DX2                !
 ! D122  D(31,32,33,14)        -16.7682         estimate D2E/DX2                !
 ! D123  D(31,32,33,18)        160.1926         estimate D2E/DX2                !
 ! D124  D(8,34,35,5)           25.0189         estimate D2E/DX2                !
 ! D125  D(8,34,35,36)        -121.7012         estimate D2E/DX2                !
 ! D126  D(15,34,35,5)        -147.3502         estimate D2E/DX2                !
 ! D127  D(15,34,35,36)         65.9297         estimate D2E/DX2                !
 ! D128  D(5,35,36,1)           93.5945         estimate D2E/DX2                !
 ! D129  D(5,35,36,46)          35.7961         estimate D2E/DX2                !
 ! D130  D(34,35,36,1)        -117.8011         estimate D2E/DX2                !
 ! D131  D(34,35,36,46)       -175.5995         estimate D2E/DX2                !
 --------------------------------------------------------------------------------
 Trust Radius=3.00D-01 FncErr=1.00D-07 GrdErr=1.00D-06
 Number of steps in this run=    276 maximum allowed number of steps=    276.
 GradGradGradGradGradGradGradGradGradGradGradGradGradGradGradGradGradGrad

                          Input orientation:                          
 ---------------------------------------------------------------------
 Center     Atomic      Atomic             Coordinates (Angstroms)
 Number     Number       Type             X           Y           Z
 ---------------------------------------------------------------------
      1         14           0       -3.981770   -0.963510   -3.257920
      2          1           0       -3.689310   -2.209290   -2.582150
      3          1           0       -3.412310    0.482450   -3.081830
      4          6           0       -5.708940   -1.636030   -4.578780
      5          6           0       -5.259930   -1.394210   -5.799140
      6          6           0       -5.914540   -1.373180   -7.105660
      7          6           0       -5.182520   -1.523840   -8.119260
      8          6           0       -3.708180   -1.473590   -8.040810
      9          6           0       -3.088860   -1.771600   -9.276320
     10          7           0       -3.783750   -1.983700  -10.415070
     11         16           0       -2.718800   -2.261360  -11.609720
     12          7           0       -1.311380   -2.105930  -10.748290
     13          6           0       -1.620640   -1.844500   -9.458720
     14          6           0       -0.741510   -1.631460   -8.333280
     15          6           0       -1.499980   -1.269730   -7.027560
     16          6           0       -0.616560   -1.107060   -5.964400
     17          7           0        0.749340   -1.135290   -6.034800
     18          6           0        1.372830   -1.380620   -7.227490
     19          6           0        2.856140   -1.301570   -7.106070
     20          6           0        3.653230   -1.339300   -8.185150
     21          6           0        5.071040   -1.393270   -8.083970
     22          7           0        5.902930   -0.527490   -8.631920
     23          6           0        7.179180   -1.030850   -8.642040
     24          6           0        7.321230   -2.293060   -8.115560
     25         16           0        5.821910   -2.850860   -7.512420
     26          6           0        3.016100   -1.448580   -9.467370
     27          6           0        3.675450   -1.166470  -10.617600
     28         14           0        3.957250   -3.078430  -11.339440
     29          1           0        4.998740   -3.346160  -10.286210
     30          1           0        5.006000   -2.404780  -12.212650
     31          6           0        1.850640   -2.765660  -10.777360
     32          6           0        1.723640   -2.114480   -9.581840
     33          6           0        0.713250   -1.705640   -8.449010
     34          6           0       -2.988870   -1.094940   -6.874460
     35          6           0       -4.007360   -0.710450   -5.607960
     36          6           0       -4.527710    0.164260   -4.610470
     37          1           0       -6.743220   -1.260850   -4.428730
     38          1           0       -7.007370   -1.411240   -7.228260
     39          1           0       -5.606420   -1.767080   -9.119050
     40          1           0       -0.963240   -0.921360   -4.950010
     41          1           0        3.282960   -1.192020   -6.116170
     42          1           0        7.971520   -0.422220   -9.056110
     43          1           0        8.210230   -2.895670   -8.033390
     44          1           0        3.244390   -1.042810  -11.615580
     45          1           0        1.145020   -2.675730  -11.597450
     46          1           0       -5.376870    0.089740   -3.655170
 ---------------------------------------------------------------------
                    Distance matrix (angstroms):
                    1          2          3          4          5
     1  Si   0.000000
     2  H    1.447123   0.000000
     3  H    1.563999   2.751704   0.000000
     4  C    2.275977   2.897251   3.464582   0.000000
     5  C    2.876977   3.671543   3.784089   1.322636   0.000000
     6  C    4.325336   5.110075   5.088784   2.548820   1.461489
     7  C    5.038690   5.775734   5.703906   3.581159   2.325028
     8  C    4.817787   5.508047   5.339018   4.001884   2.727511
     9  C    6.137706   6.735282   6.599778   5.380528   4.116643
    10  N    7.232205   7.836737   7.745726   6.155446   4.881948
    11  S    8.545880   9.079737   8.985230   7.665905   6.400948
    12  N    8.033788   8.505944   8.359918   7.590928   6.371160
    13  C    6.693355   7.190249   7.020648   6.369574   5.180706
    14  C    6.058442   6.488367   6.259354   6.226689   5.185969
    15  C    4.523631   5.043571   4.721856   4.883241   3.957491
    16  C    4.320912   4.700672   4.318793   5.303969   4.655175
    17  N    5.488531   5.725022   5.353172   6.639286   6.019460
    18  C    6.678563   6.920342   6.599628   7.565208   6.784827
    19  C    7.853633   8.008291   7.659680   8.936423   8.221146
    20  C    9.094616   9.277035   8.904185  10.037140   9.227160
    21  C   10.267854  10.376880  10.025316  11.338133  10.580614
    22  N   11.259542  11.464695  10.890233  12.348778  11.549255
    23  C   12.391936  12.499402  12.057598  13.527009  12.765013
    24  C   12.374255  12.323053  12.175827  13.517612  12.824169
    25  S   10.852419  10.732310  10.770882  11.960040  11.307711
    26  C    9.368177   9.640926   9.264365  10.002988   9.052709
    27  C   10.622575  10.949686  10.475835  11.169360  10.154331
    28  Si  11.524404  11.658277  11.626625  11.883698  10.885216
    29  H   11.650040  11.667357  11.717812  12.253722  11.365923
    30  H   12.768886  12.976639  12.750526  13.178653  12.146756
    31  C    9.685387   9.907677   9.872692   9.841022   8.787705
    32  C    8.594673   8.848993   8.681714   8.972334   7.974827
    33  C    7.038564   7.352295   7.114394   7.498537   6.541994
    34  C    3.752664   4.489579   4.129347   3.600237   2.530531
    35  C    2.363764   3.391637   2.856296   2.193464   1.439795
    36  C    1.843721   3.232760   1.918880   2.153451   2.092346
    37  H    3.014102   3.692663   3.993519   1.110410   2.023847
    38  H    5.011818   5.764785   5.805463   2.959087   2.257481
    39  H    6.134986   6.826560   6.806066   4.543318   3.358704
    40  H    3.460703   3.833664   3.385074   4.813547   4.405242
    41  H    7.810129   7.882683   7.539079   9.133180   8.551161
    42  H   13.296358  13.456624  12.888058  14.445581  13.661035
    43  H   13.235680  13.106723  13.077197  14.396677  13.736501
    44  H   11.048717  11.447259  10.929911  11.403095  10.309118
    45  H    9.937979  10.240310  10.161651   9.865063   8.734190
    46  H    1.792609   3.047092   2.083851   1.985348   2.610056
                    6          7          8          9         10
     6  C    0.000000
     7  C    1.259340   0.000000
     8  C    2.398460   1.477281   0.000000
     9  C    3.585383   2.404909   1.413808   0.000000
    10  N    3.983114   2.727411   2.429616   1.350781   0.000000
    11  S    5.593583   4.335570   3.786367   2.412792   1.624316
    12  N    5.915637   4.715544   3.670824   2.331932   2.497717
    13  C    4.919005   3.818896   2.550660   1.481302   2.369183
    14  C    5.322969   4.447466   2.985229   2.533578   3.703127
    15  C    4.416463   3.849348   2.438110   2.798810   4.147359
    16  C    5.426038   5.066075   3.742183   4.186012   5.532455
    17  N    6.753564   6.299437   4.899797   5.064003   6.360461
    18  C    7.288392   6.617279   5.146532   4.925165   6.092183
    19  C    8.770972   8.105308   6.632769   6.346175   7.450028
    20  C    9.628534   8.837923   7.364049   6.843487   7.790794
    21  C   11.029073  10.254452   8.779693   8.255229   9.175508
    22  N   11.945596  11.141936   9.675637   9.100294   9.956502
    23  C   13.187993  12.382567  10.912933  10.314246  11.146183
    24  C   13.306077  12.527389  11.060063  10.487576  11.344780
    25  S   11.836099  11.100753   9.643583   9.147566  10.072043
    26  C    9.237948   8.309057   6.873983   6.116484   6.886396
    27  C   10.214909   9.210486   7.826376   6.922507   7.506567
    28  Si  10.875891   9.814362   8.497958   7.457341   7.872482
    29  H   11.537254  10.567619   9.184704   8.301108   8.888478
    30  H   12.099741  11.015346   9.706096   8.634217   8.981554
    31  C    8.701632   7.620561   6.329189   5.257370   5.699918
    32  C    8.063671   7.083999   5.682445   4.834363   5.571599
    33  C    6.770725   5.907782   4.446293   3.891636   4.915864
    34  C    2.947951   2.558434   1.421673   2.497358   3.735994
    35  C    2.513892   2.889504   2.567226   3.927664   4.977899
    36  C    3.242374   3.948426   3.888626   5.252428   6.233826
    37  H    2.804511   4.015590   4.722695   6.092154   6.716937
    38  H    1.100344   2.033872   3.398350   4.436117   4.568938
    39  H    2.074568   1.112851   2.202738   2.522472   2.246935
    40  H    5.419072   5.311257   4.170455   4.894704   6.241051
    41  H    9.252346   8.705563   7.256691   7.136004   8.309374
    42  H   14.054581  13.233292  11.770795  11.144565  11.936137
    43  H   14.236846  13.463099  12.002952  11.422690  12.262122
    44  H   10.214427   9.136107   7.829609   6.790679   7.191749
    45  H    8.468188   7.311800   6.135827   4.912315   5.115633
    46  H    3.786173   4.750738   4.945944   6.347984   7.247995
                   11         12         13         14         15
    11  S    0.000000
    12  N    1.657423   0.000000
    13  C    2.450822   1.351658   0.000000
    14  C    3.878338   2.526291   1.443908   0.000000
    15  C    4.844073   3.818197   2.501091   1.552749   0.000000
    16  C    6.133633   4.936205   3.709753   2.429444   1.391834
    17  N    6.661513   5.235045   4.224099   2.784211   2.462334
    18  C    6.059792   4.486323   3.762238   2.399193   2.881893
    19  C    7.230769   5.592941   5.086383   3.815489   4.356944
    20  C    7.292506   5.639571   5.448937   4.406931   5.282086
    21  C    8.594539   6.952825   6.846322   5.822768   6.656543
    22  N    9.284817   7.682237   7.682592   6.742145   7.611042
    23  C   10.406310   8.813722   8.875011   7.949427   8.831276
    24  C   10.630727   9.027084   9.053305   8.092768   8.946770
    25  S    9.491001   7.868265   7.758376   6.726011   7.506340
    26  C    6.175707   4.560696   4.653621   3.929280   5.136111
    27  C    6.562737   5.076233   5.463634   4.994384   6.299534
    28  Si   6.731292   5.390146   6.014362   5.762731   7.186450
    29  H    7.904992   6.447426   6.837830   6.301159   7.560669
    30  H    7.749621   6.491760   7.197944   6.977206   8.396504
    31  C    4.671929   3.230241   3.825850   3.738874   5.246471
    32  C    4.885606   3.251465   3.357418   2.805205   4.198771
    33  C    4.698710   3.089668   2.546731   1.461240   2.666257
    34  C    4.884277   4.340810   3.018658   2.732515   1.506912
    35  C    6.331416   5.969813   4.670209   4.352172   2.935134
    36  C    7.625306   7.291871   5.999308   5.605286   4.131077
    37  H    8.292382   8.375911   7.202935   7.169615   5.851971
    38  H    6.189647   6.731828   5.846326   6.366362   5.512862
    39  H    3.845270   4.606149   4.000976   4.929825   4.635142
    40  H    7.016361   5.928276   4.648960   3.464090   2.173860
    41  H    8.206321   6.587847   5.970231   4.615739   4.869619
    42  H   11.143891   9.584914   9.705386   8.826190   9.723302
    43  H   11.516778   9.932544   9.989121   9.045541   9.896644
    44  H    6.086422   4.757884   5.381753   5.196865   6.603822
    45  H    3.885995   2.660760   3.593603   3.912071   5.464134
    46  H    8.710217   8.465313   7.178561   6.806894   5.315209
                   16         17         18         19         20
    16  C    0.000000
    17  N    1.368004   0.000000
    18  C    2.372320   1.368004   0.000000
    19  C    3.660723   2.369362   1.490369   0.000000
    20  C    4.818379   3.619144   2.473670   1.342084   0.000000
    21  C    6.076453   4.789858   3.796113   2.422907   1.422440
    22  N    7.067907   5.802925   4.818927   3.494331   2.433062
    23  C    8.243126   6.939125   5.986401   4.595777   3.568783
    24  C    8.309187   6.989974   6.083147   4.683925   3.790610
    25  S    6.847708   5.554953   4.694369   3.370640   2.727738
    26  C    5.058029   4.125396   2.778852   2.371273   1.435954
    27  C    6.330652   5.437384   4.103750   3.608374   2.438683
    28  Si   7.327830   6.496590   5.144892   4.721345   3.614768
    29  H    7.431232   6.404673   5.134816   4.345615   3.201927
    30  H    8.505168   7.608981   6.253051   5.649436   4.380182
    31  C    5.657085   5.134476   3.840341   4.078353   3.464590
    32  C    4.424625   3.806516   2.490900   2.841270   2.504988
    33  C    2.880969   2.480930   1.425761   2.561003   2.974443
    34  C    2.540907   3.831562   4.385279   5.853245   6.774593
    35  C    3.432473   4.794672   5.658485   7.049921   8.106911
    36  C    4.329720   5.618256   6.637155   7.930821   9.053552
    37  H    6.318061   7.663790   8.585899   9.965818  11.054547
    38  H    6.521681   7.852837   8.380256   9.864876  10.703701
    39  H    5.940214   7.092774   7.241359   8.711126   9.316452
    40  H    1.087961   2.038496   3.294701   4.402365   5.652663
    41  H    3.903397   2.535561   2.217927   1.083549   2.107005
    42  H    9.153294   7.861086   6.914123   5.544639   4.499693
    43  H    9.240783   7.922006   7.049460   5.662805   4.817838
    44  H    6.844479   6.113831   4.782487   4.533583   3.467406
    45  H    6.106975   5.785550   4.563525   4.998874   4.440828
    46  H    5.424521   6.685341   7.777010   9.034761  10.203214
                   21         22         23         24         25
    21  C    0.000000
    22  N    1.319797   0.000000
    23  C    2.210666   1.371965   0.000000
    24  C    2.423628   2.322809   1.374967   0.000000
    25  S    1.736388   2.580289   2.535875   1.709643   0.000000
    26  C    2.477828   3.143274   4.264611   4.590717   3.696050
    27  C    2.901446   3.051702   4.024594   4.563017   4.133594
    28  Si   3.831237   4.198051   4.674332   4.725100   4.263194
    29  H    2.944294   3.391038   3.580262   3.348836   2.935446
    30  H    4.251280   4.141296   4.399960   4.707326   4.791332
    31  C    4.416874   5.102291   5.996874   6.102121   5.141797
    32  C    3.737492   4.570268   5.640957   5.789204   4.649793
    33  C    4.384195   5.324873   6.503911   6.642413   5.318565
    34  C    8.155616   9.081562  10.320741  10.453420   9.006669
    35  C    9.434735  10.362995  11.595127  11.710238  10.238304
    36  C   10.326040  11.200394  12.439177  12.598470  11.163642
    37  H   12.367500  13.346525  14.547787  14.576245  13.035328
    38  H   12.108697  13.016417  14.261896  14.383104  12.912927
    39  H   10.734024  11.586156  12.815660  12.977202  11.591487
    40  H    6.815933   7.801018   8.941033   8.974113   7.505143
    41  H    2.666452   3.692539   4.646130   4.638693   3.338792
    42  H    3.209483   2.114257   1.081521   2.192613   3.591949
    43  H    3.480557   3.360082   2.216094   1.077131   2.444891
    44  H    3.991459   4.029344   4.932003   5.516692   5.171903
    45  H    5.422442   6.003916   6.917454   7.100392   6.212201
    46  H   11.444318  12.344347  13.556511  13.668012  12.204023
                   26         27         28         29         30
    26  C    0.000000
    27  C    1.355492   0.000000
    28  Si   2.654585   2.063021   0.000000
    29  H    2.863943   2.571374   1.505216   0.000000
    30  H    3.522866   2.418255   1.521899   2.144160   0.000000
    31  C    2.192959   2.431638   2.202627   3.238633   3.485196
    32  C    1.458417   2.404388   3.001228   3.569237   4.216553
    33  C    2.531058   3.710541   4.556608   4.942877   5.751651
    34  C    6.550413   7.643911   8.492282   8.972733   9.702056
    35  C    8.047911   9.183138  10.094167  10.485363  11.301918
    36  C    9.115909  10.254184  11.304363  11.631437  12.461330
    37  H   10.984874  12.118569  12.867073  13.286543  14.140090
    38  H   10.270587  11.210271  11.828111  12.539603  13.044245
    39  H    8.635428   9.421226   9.905229  10.785415  11.072510
    40  H    6.043149   7.327967   8.347993   8.360615   9.517263
    41  H    3.371584   4.518581   5.594261   4.997345   6.450327
    42  H    5.077277   4.631239   5.327608   4.347412   4.763255
    43  H    5.579369   5.498409   5.389917   3.948646   5.289071
    44  H    2.198084   1.094106   2.174436   3.185968   2.305369
    45  H    3.089349   3.105004   2.852608   4.125528   3.919063
    46  H   10.324245  11.489038  12.498444  12.783950  13.684191
                   31         32         33         34         35
    31  C    0.000000
    32  C    1.367272   0.000000
    33  C    2.799734   1.572050   0.000000
    34  C    6.437763   5.529658   4.069134   0.000000
    35  C    8.078536   7.113887   5.598761   1.670083   0.000000
    36  C    9.343357   8.305814   6.760072   3.013182   1.425085
    37  H   10.789995   9.948414   8.482891   4.483778   3.029596
    38  H    9.638200   9.069974   7.822076   4.046426   3.480882
    39  H    7.704213   7.352866   6.355388   3.513051   4.000152
    40  H    6.728846   5.486047   3.958373   2.799431   3.121546
    41  H    5.123922   3.910662   3.508469   6.318250   7.323862
    42  H    6.776399   6.494316   7.395825  11.195637  12.468616
    43  H    6.927529   6.714447   7.602212  11.401999  12.646241
    44  H    2.369254   2.756312   4.107698   7.831632   9.422836
    45  H    1.085603   2.170826   3.322676   6.472602   8.141458
    46  H   10.541148   9.507957   7.955743   4.179694   2.515800
                   36         37         38         39         40
    36  C    0.000000
    37  H    2.640540   0.000000
    38  H    3.934938   2.815983   0.000000
    39  H    5.022050   4.852596   2.379994   0.000000
    40  H    3.741564   5.813360   6.477802   6.297242   0.000000
    41  H    8.069275  10.167422  10.352569   9.400482   4.411734
    42  H   13.279248  15.447962  15.122379  13.644525   9.845767
    43  H   13.540113  15.468415  15.311013  13.905114   9.877129
    44  H   10.532527  12.306531  11.157191   9.224645   7.883446
    45  H    9.437335  10.752524   9.335428   7.249142   7.191038
    46  H    1.280322   2.071087   4.204574   5.775332   4.709465
                   41         42         43         44         45
    41  H    0.000000
    42  H    5.587346   0.000000
    43  H    5.554831   2.687172   0.000000
    44  H    5.501569   5.411264   6.397245   0.000000
    45  H    6.067670   7.624816   7.916318   2.659720   0.000000
    46  H    9.093519  14.408739  14.583922  11.788847  10.642494
                   46
    46  H    0.000000
 Stoichiometry    C24H14N4S2Si2
 Framework group  C1[X(C24H14N4S2Si2)]
 Deg. of freedom   132
 Full point group                 C1      NOp   1
 Largest Abelian subgroup         C1      NOp   1
 Largest concise Abelian subgroup C1      NOp   1
                         Standard orientation:                         
 ---------------------------------------------------------------------
 Center     Atomic      Atomic             Coordinates (Angstroms)
 Number     Number       Type             X           Y           Z
 ---------------------------------------------------------------------
      1         14           0       -5.254728   -3.548086   -0.340349
      2          1           0       -5.059647   -4.047475   -1.684491
      3          1           0       -4.864780   -4.127272    1.059144
      4          6           0       -6.509616   -1.703617   -0.791192
      5          6           0       -5.770485   -0.717878   -0.310185
      6          6           0       -6.051667    0.693723   -0.056669
      7          6           0       -5.066083    1.475093    0.006751
      8          6           0       -3.674619    0.983991    0.077502
      9          6           0       -2.726767    2.032177    0.035836
     10          7           0       -3.073752    3.337606    0.027595
     11         16           0       -1.710296    4.220244    0.009111
     12          7           0       -0.600413    2.989522    0.032185
     13          6           0       -1.262087    1.810897    0.035302
     14          6           0       -0.734635    0.466873    0.051549
     15          6           0       -1.839770   -0.620358    0.138930
     16          6           0       -1.287717   -1.897851    0.117724
     17          7           0        0.045338   -2.204483    0.137154
     18          6           0        0.981741   -1.207196    0.139126
     19          6           0        2.368145   -1.746453    0.230171
     20          6           0        3.425146   -0.941177    0.418502
     21          6           0        4.764160   -1.419705    0.381248
     22          7           0        5.643878   -1.285226    1.355865
     23          6           0        6.910850   -1.540117    0.895320
     24          6           0        7.002602   -1.853954   -0.440203
     25         16           0        5.443564   -1.910164   -1.139575
     26          6           0        3.164174    0.465632    0.539938
     27          6           0        4.083548    1.319790    1.052308
     28         14           0        4.692659    2.261078   -0.679459
     29          1           0        5.431954    1.025174   -1.117246
     30          1           0        5.882255    2.676669    0.173960
     31          6           0        2.494999    2.258106   -0.531656
     32          6           0        2.003892    1.049073   -0.123630
     33          6           0        0.699392    0.186571    0.036719
     34          6           0       -3.324226   -0.383664    0.244529
     35          6           0       -4.670385   -1.365887    0.355303
     36          6           0       -5.503417   -2.318432    1.010729
     37          1           0       -7.571802   -1.625259   -0.477137
     38          1           0       -7.065776    1.118765   -0.097625
     39          1           0       -5.187528    2.579744   -0.051847
     40          1           0       -1.906019   -2.792823    0.098051
     41          1           0        2.505210   -2.818974    0.159528
     42          1           0        7.736353   -1.475761    1.591086
     43          1           0        7.880461   -2.071303   -1.025297
     44          1           0        3.926827    2.359955    1.353248
     45          1           0        2.029550    3.212198   -0.304502
     46          1           0       -6.568811   -2.972561    0.734549
 ---------------------------------------------------------------------
 Rotational constants (GHZ):      0.2124870      0.0596779      0.0479732
 Standard basis: 6-31++G(d,p) (6D, 7F)
 There are   708 symmetry adapted basis functions of A   symmetry.
 Integral buffers will be    131072 words long.
 Raffenetti 2 integral format.
 Two-electron integral symmetry is turned on.
   708 basis functions,  1232 primitive gaussians,   708 cartesian basis functions
   123 alpha electrons      123 beta electrons
       nuclear repulsion energy      3470.5099243338 Hartrees.
 NAtoms=   46 NActive=   46 NUniq=   46 SFac= 1.00D+00 NAtFMM=   60 NAOKFM=F Big=F
 One-electron integrals computed using PRISM.
 NBasis=   708 RedAO= T  NBF=   708
 NBsUse=   696 1.00D-06 NBFU=   696
 Harris functional with IExCor=  402 diagonalized for initial guess.
 ExpMin= 3.31D-02 ExpMax= 2.19D+04 ExpMxC= 3.30D+03 IAcc=3 IRadAn=         5 AccDes= 0.00D+00
 HarFok:  IExCor=  402 AccDes= 0.00D+00 IRadAn=         5 IDoV= 1
 ScaDFX=  1.000000  1.000000  1.000000  1.000000
 FoFCou: FMM=F IPFlag=           0 FMFlag=      100000 FMFlg1=           0
         NFxFlg=           0 DoJE=T BraDBF=F KetDBF=T FulRan=T
         Omega=  0.000000  0.000000  1.000000  0.000000  0.000000 ICntrl=     500 IOpCl=  0
         NMat0=    1 NMatS0=    1 NMatT0=    0 NMatD0=    1 NMtDS0=    0 NMtDT0=    0
         I1Cent=           4 NGrid=           0.
 Petite list used in FoFCou.
 Initial guess orbital symmetries:
       Occupied  (A) (A) (A) (A) (A) (A) (A) (A) (A) (A) (A) (A)
                 (A) (A) (A) (A) (A) (A) (A) (A) (A) (A) (A) (A)
                 (A) (A) (A) (A) (A) (A) (A) (A) (A) (A) (A) (A)
                 (A) (A) (A) (A) (A) (A) (A) (A) (A) (A) (A) (A)
                 (A) (A) (A) (A) (A) (A) (A) (A) (A) (A) (A) (A)
                 (A) (A) (A) (A) (A) (A) (A) (A) (A) (A) (A) (A)
                 (A) (A) (A) (A) (A) (A) (A) (A) (A) (A) (A) (A)
                 (A) (A) (A) (A) (A) (A) (A) (A) (A) (A) (A) (A)
                 (A) (A) (A) (A) (A) (A) (A) (A) (A) (A) (A) (A)
                 (A) (A) (A) (A) (A) (A) (A) (A) (A) (A) (A) (A)
                 (A) (A) (A)
       Virtual   (A) (A) (A) (A) (A) (A) (A) (A) (A) (A) (A) (A)
                 (A) (A) (A) (A) (A) (A) (A) (A) (A) (A) (A) (A)
                 (A) (A) (A) (A) (A) (A) (A) (A) (A) (A) (A) (A)
                 (A) (A) (A) (A) (A) (A) (A) (A) (A) (A) (A) (A)
                 (A) (A) (A) (A) (A) (A) (A) (A) (A) (A) (A) (A)
                 (A) (A) (A) (A) (A) (A) (A) (A) (A) (A) (A) (A)
                 (A) (A) (A) (A) (A) (A) (A) (A) (A) (A) (A) (A)
                 (A) (A) (A) (A) (A) (A) (A) (A) (A) (A) (A) (A)
                 (A) (A) (A) (A) (A) (A) (A) (A) (A) (A) (A) (A)
                 (A) (A) (A) (A) (A) (A) (A) (A) (A) (A) (A) (A)
                 (A) (A) (A) (A) (A) (A) (A) (A) (A) (A) (A) (A)
                 (A) (A) (A) (A) (A) (A) (A) (A) (A) (A) (A) (A)
                 (A) (A) (A) (A) (A) (A) (A) (A) (A) (A) (A) (A)
                 (A) (A) (A) (A) (A) (A) (A) (A) (A) (A) (A) (A)
                 (A) (A) (A) (A) (A) (A) (A) (A) (A) (A) (A) (A)
                 (A) (A) (A) (A) (A) (A) (A) (A) (A) (A) (A) (A)
                 (A) (A) (A) (A) (A) (A) (A) (A) (A) (A) (A) (A)
                 (A) (A) (A) (A) (A) (A) (A) (A) (A) (A) (A) (A)
                 (A) (A) (A) (A) (A) (A) (A) (A) (A) (A) (A) (A)
                 (A) (A) (A) (A) (A) (A) (A) (A) (A) (A) (A) (A)
                 (A) (A) (A) (A) (A) (A) (A) (A) (A) (A) (A) (A)
                 (A) (A) (A) (A) (A) (A) (A) (A) (A) (A) (A) (A)
                 (A) (A) (A) (A) (A) (A) (A) (A) (A) (A) (A) (A)
                 (A) (A) (A) (A) (A) (A) (A) (A) (A) (A) (A) (A)
                 (A) (A) (A) (A) (A) (A) (A) (A) (A) (A) (A) (A)
                 (A) (A) (A) (A) (A) (A) (A) (A) (A) (A) (A) (A)
                 (A) (A) (A) (A) (A) (A) (A) (A) (A) (A) (A) (A)
                 (A) (A) (A) (A) (A) (A) (A) (A) (A) (A) (A) (A)
                 (A) (A) (A) (A) (A) (A) (A) (A) (A) (A) (A) (A)
                 (A) (A) (A) (A) (A) (A) (A) (A) (A) (A) (A) (A)
                 (A) (A) (A) (A) (A) (A) (A) (A) (A) (A) (A) (A)
                 (A) (A) (A) (A) (A) (A) (A) (A) (A) (A) (A) (A)
                 (A) (A) (A) (A) (A) (A) (A) (A) (A) (A) (A) (A)
                 (A) (A) (A) (A) (A) (A) (A) (A) (A) (A) (A) (A)
                 (A) (A) (A) (A) (A) (A) (A) (A) (A) (A) (A) (A)
                 (A) (A) (A) (A) (A) (A) (A) (A) (A) (A) (A) (A)
                 (A) (A) (A) (A) (A) (A) (A) (A) (A) (A) (A) (A)
                 (A) (A) (A) (A) (A) (A) (A) (A) (A) (A) (A) (A)
                 (A) (A) (A) (A) (A) (A) (A) (A) (A) (A) (A) (A)
                 (A) (A) (A) (A) (A) (A) (A) (A) (A) (A) (A) (A)
                 (A) (A) (A) (A) (A) (A) (A) (A) (A) (A) (A) (A)
                 (A) (A) (A) (A) (A) (A) (A) (A) (A) (A) (A) (A)
                 (A) (A) (A) (A) (A) (A) (A) (A) (A) (A) (A) (A)
                 (A) (A) (A) (A) (A) (A) (A) (A) (A) (A) (A) (A)
                 (A) (A) (A) (A) (A) (A) (A) (A) (A) (A) (A) (A)
                 (A) (A) (A) (A) (A) (A) (A) (A) (A) (A) (A) (A)
                 (A) (A) (A) (A) (A) (A) (A) (A) (A) (A) (A) (A)
                 (A) (A) (A) (A) (A) (A) (A) (A) (A)
 The electronic state of the initial guess is 1-A.
 Requested convergence on RMS density matrix=1.00D-08 within 128 cycles.
 Requested convergence on MAX density matrix=1.00D-06.
 Requested convergence on             energy=1.00D-06.
 No special actions if energy rises.
 Rare condition: small coef for last iteration:  0.000D+00
 EnCoef did   100 forward-backward iterations
 EnCoef did   100 forward-backward iterations
 DSYEVD returned Info=      425822 IAlg= 4 N=   696 NDim=   696 NE2=     1503805 trying DSYEV.
 EnCoef did   100 forward-backward iterations
 EnCoef did     4 forward-backward iterations
 Restarting incremental Fock formation.
 SCF Done:  E(RB3LYP) =  -2516.59723398     A.U. after   30 cycles
             Convg  =    0.7114D-08             -V/T =  2.0063

 **********************************************************************

            Population analysis using the SCF density.

 **********************************************************************

 Orbital symmetries:
       Occupied  (A) (A) (A) (A) (A) (A) (A) (A) (A) (A) (A) (A)
                 (A) (A) (A) (A) (A) (A) (A) (A) (A) (A) (A) (A)
                 (A) (A) (A) (A) (A) (A) (A) (A) (A) (A) (A) (A)
                 (A) (A) (A) (A) (A) (A) (A) (A) (A) (A) (A) (A)
                 (A) (A) (A) (A) (A) (A) (A) (A) (A) (A) (A) (A)
                 (A) (A) (A) (A) (A) (A) (A) (A) (A) (A) (A) (A)
                 (A) (A) (A) (A) (A) (A) (A) (A) (A) (A) (A) (A)
                 (A) (A) (A) (A) (A) (A) (A) (A) (A) (A) (A) (A)
                 (A) (A) (A) (A) (A) (A) (A) (A) (A) (A) (A) (A)
                 (A) (A) (A) (A) (A) (A) (A) (A) (A) (A) (A) (A)
                 (A) (A) (A)
       Virtual   (A) (A) (A) (A) (A) (A) (A) (A) (A) (A) (A) (A)
                 (A) (A) (A) (A) (A) (A) (A) (A) (A) (A) (A) (A)
                 (A) (A) (A) (A) (A) (A) (A) (A) (A) (A) (A) (A)
                 (A) (A) (A) (A) (A) (A) (A) (A) (A) (A) (A) (A)
                 (A) (A) (A) (A) (A) (A) (A) (A) (A) (A) (A) (A)
                 (A) (A) (A) (A) (A) (A) (A) (A) (A) (A) (A) (A)
                 (A) (A) (A) (A) (A) (A) (A) (A) (A) (A) (A) (A)
                 (A) (A) (A) (A) (A) (A) (A) (A) (A) (A) (A) (A)
                 (A) (A) (A) (A) (A) (A) (A) (A) (A) (A) (A) (A)
                 (A) (A) (A) (A) (A) (A) (A) (A) (A) (A) (A) (A)
                 (A) (A) (A) (A) (A) (A) (A) (A) (A) (A) (A) (A)
                 (A) (A) (A) (A) (A) (A) (A) (A) (A) (A) (A) (A)
                 (A) (A) (A) (A) (A) (A) (A) (A) (A) (A) (A) (A)
                 (A) (A) (A) (A) (A) (A) (A) (A) (A) (A) (A) (A)
                 (A) (A) (A) (A) (A) (A) (A) (A) (A) (A) (A) (A)
                 (A) (A) (A) (A) (A) (A) (A) (A) (A) (A) (A) (A)
                 (A) (A) (A) (A) (A) (A) (A) (A) (A) (A) (A) (A)
                 (A) (A) (A) (A) (A) (A) (A) (A) (A) (A) (A) (A)
                 (A) (A) (A) (A) (A) (A) (A) (A) (A) (A) (A) (A)
                 (A) (A) (A) (A) (A) (A) (A) (A) (A) (A) (A) (A)
                 (A) (A) (A) (A) (A) (A) (A) (A) (A) (A) (A) (A)
                 (A) (A) (A) (A) (A) (A) (A) (A) (A) (A) (A) (A)
                 (A) (A) (A) (A) (A) (A) (A) (A) (A) (A) (A) (A)
                 (A) (A) (A) (A) (A) (A) (A) (A) (A) (A) (A) (A)
                 (A) (A) (A) (A) (A) (A) (A) (A) (A) (A) (A) (A)
                 (A) (A) (A) (A) (A) (A) (A) (A) (A) (A) (A) (A)
                 (A) (A) (A) (A) (A) (A) (A) (A) (A) (A) (A) (A)
                 (A) (A) (A) (A) (A) (A) (A) (A) (A) (A) (A) (A)
                 (A) (A) (A) (A) (A) (A) (A) (A) (A) (A) (A) (A)
                 (A) (A) (A) (A) (A) (A) (A) (A) (A) (A) (A) (A)
                 (A) (A) (A) (A) (A) (A) (A) (A) (A) (A) (A) (A)
                 (A) (A) (A) (A) (A) (A) (A) (A) (A) (A) (A) (A)
                 (A) (A) (A) (A) (A) (A) (A) (A) (A) (A) (A) (A)
                 (A) (A) (A) (A) (A) (A) (A) (A) (A) (A) (A) (A)
                 (A) (A) (A) (A) (A) (A) (A) (A) (A) (A) (A) (A)
                 (A) (A) (A) (A) (A) (A) (A) (A) (A) (A) (A) (A)
                 (A) (A) (A) (A) (A) (A) (A) (A) (A) (A) (A) (A)
                 (A) (A) (A) (A) (A) (A) (A) (A) (A) (A) (A) (A)
                 (A) (A) (A) (A) (A) (A) (A) (A) (A) (A) (A) (A)
                 (A) (A) (A) (A) (A) (A) (A) (A) (A) (A) (A) (A)
                 (A) (A) (A) (A) (A) (A) (A) (A) (A) (A) (A) (A)
                 (A) (A) (A) (A) (A) (A) (A) (A) (A) (A) (A) (A)
                 (A) (A) (A) (A) (A) (A) (A) (A) (A) (A) (A) (A)
                 (A) (A) (A) (A) (A) (A) (A) (A) (A) (A) (A) (A)
                 (A) (A) (A) (A) (A) (A) (A) (A) (A) (A) (A) (A)
                 (A) (A) (A) (A) (A) (A) (A) (A) (A) (A) (A) (A)
                 (A) (A) (A) (A) (A) (A) (A) (A) (A) (A) (A) (A)
                 (A) (A) (A) (A) (A) (A) (A) (A) (A)
 The electronic state is 1-A.
 Alpha  occ. eigenvalues --  -88.99787 -88.92872 -66.18446 -66.17773 -14.39439
 Alpha  occ. eigenvalues --  -14.39356 -14.35665 -14.34435 -10.28865 -10.28804
 Alpha  occ. eigenvalues --  -10.28209 -10.27400 -10.27167 -10.26606 -10.26051
 Alpha  occ. eigenvalues --  -10.25942 -10.25837 -10.25678 -10.25367 -10.24742
 Alpha  occ. eigenvalues --  -10.24636 -10.24469 -10.23069 -10.22787 -10.22781
 Alpha  occ. eigenvalues --  -10.22701 -10.21580 -10.21313 -10.20533 -10.20420
 Alpha  occ. eigenvalues --  -10.19934 -10.19543  -8.05064  -7.98864  -6.01644
 Alpha  occ. eigenvalues --   -6.01050  -6.00797  -5.95250  -5.94893  -5.94619
 Alpha  occ. eigenvalues --   -5.32647  -5.32322  -3.68767  -3.68425  -3.68358
 Alpha  occ. eigenvalues --   -3.68329  -3.68236  -3.67935  -1.03654  -0.97252
 Alpha  occ. eigenvalues --   -0.95091  -0.93322  -0.91195  -0.89235  -0.87782
 Alpha  occ. eigenvalues --   -0.83590  -0.82212  -0.81052  -0.80996  -0.78928
 Alpha  occ. eigenvalues --   -0.77423  -0.73926  -0.73068  -0.71947  -0.69926
 Alpha  occ. eigenvalues --   -0.68903  -0.67300  -0.64881  -0.63340  -0.62029
 Alpha  occ. eigenvalues --   -0.60874  -0.59439  -0.57646  -0.56422  -0.55740
 Alpha  occ. eigenvalues --   -0.54691  -0.53768  -0.53091  -0.51895  -0.51200
 Alpha  occ. eigenvalues --   -0.50905  -0.49597  -0.49453  -0.48236  -0.47405
 Alpha  occ. eigenvalues --   -0.47158  -0.46428  -0.45799  -0.45383  -0.44334
 Alpha  occ. eigenvalues --   -0.43958  -0.43442  -0.42665  -0.42193  -0.41723
 Alpha  occ. eigenvalues --   -0.40731  -0.40360  -0.39774  -0.38952  -0.38752
 Alpha  occ. eigenvalues --   -0.37716  -0.37404  -0.37160  -0.35990  -0.35515
 Alpha  occ. eigenvalues --   -0.34408  -0.34027  -0.33272  -0.31887  -0.31762
 Alpha  occ. eigenvalues --   -0.31317  -0.29215  -0.28822  -0.28786  -0.28113
 Alpha  occ. eigenvalues --   -0.27890  -0.27601  -0.26293  -0.25508  -0.24518
 Alpha  occ. eigenvalues --   -0.23393  -0.19261  -0.17258
 Alpha virt. eigenvalues --   -0.12634  -0.12231  -0.10825  -0.09984  -0.08436
 Alpha virt. eigenvalues --   -0.07216  -0.05987  -0.04200  -0.03869  -0.02829
 Alpha virt. eigenvalues --   -0.02536  -0.02451  -0.01342  -0.00699  -0.00492
 Alpha virt. eigenvalues --   -0.00270  -0.00063   0.00129   0.00884   0.00977
 Alpha virt. eigenvalues --    0.01450   0.01620   0.01837   0.02188   0.02348
 Alpha virt. eigenvalues --    0.02816   0.02910   0.03143   0.03385   0.03595
 Alpha virt. eigenvalues --    0.03842   0.04181   0.04353   0.04735   0.05012
 Alpha virt. eigenvalues --    0.05304   0.05452   0.05751   0.05859   0.06027
 Alpha virt. eigenvalues --    0.06377   0.06460   0.06810   0.07105   0.07418
 Alpha virt. eigenvalues --    0.07889   0.07981   0.08450   0.08820   0.08955
 Alpha virt. eigenvalues --    0.09116   0.09410   0.09681   0.09955   0.10126
 Alpha virt. eigenvalues --    0.10472   0.10554   0.10806   0.10990   0.11284
 Alpha virt. eigenvalues --    0.11325   0.11528   0.11574   0.11634   0.11973
 Alpha virt. eigenvalues --    0.12050   0.12248   0.12558   0.12676   0.13001
 Alpha virt. eigenvalues --    0.13113   0.13687   0.13829   0.13882   0.13935
 Alpha virt. eigenvalues --    0.14235   0.14446   0.14500   0.14933   0.15127
 Alpha virt. eigenvalues --    0.15279   0.15472   0.15624   0.15821   0.15991
 Alpha virt. eigenvalues --    0.16143   0.16366   0.16469   0.16922   0.17079
 Alpha virt. eigenvalues --    0.17162   0.17529   0.17812   0.18097   0.18399
 Alpha virt. eigenvalues --    0.18587   0.18717   0.19190   0.19624   0.19641
 Alpha virt. eigenvalues --    0.19708   0.20102   0.20167   0.20606   0.20758
 Alpha virt. eigenvalues --    0.21076   0.21276   0.21568   0.22026   0.22112
 Alpha virt. eigenvalues --    0.22398   0.22558   0.22732   0.22766   0.22987
 Alpha virt. eigenvalues --    0.23372   0.23467   0.23748   0.24164   0.24329
 Alpha virt. eigenvalues --    0.24734   0.24990   0.25288   0.25452   0.25620
 Alpha virt. eigenvalues --    0.25693   0.25922   0.26162   0.26276   0.26651
 Alpha virt. eigenvalues --    0.26808   0.27136   0.27404   0.27634   0.27785
 Alpha virt. eigenvalues --    0.27942   0.28207   0.28750   0.28818   0.29176
 Alpha virt. eigenvalues --    0.29386   0.29572   0.29780   0.30127   0.30243
 Alpha virt. eigenvalues --    0.30656   0.30757   0.30983   0.31021   0.31563
 Alpha virt. eigenvalues --    0.31780   0.31915   0.32175   0.32486   0.32763
 Alpha virt. eigenvalues --    0.33061   0.33154   0.33553   0.33936   0.34145
 Alpha virt. eigenvalues --    0.34312   0.34753   0.35330   0.35736   0.35982
 Alpha virt. eigenvalues --    0.36518   0.36577   0.36781   0.37217   0.37836
 Alpha virt. eigenvalues --    0.37959   0.38648   0.38916   0.39329   0.39405
 Alpha virt. eigenvalues --    0.39609   0.40027   0.40301   0.40687   0.41123
 Alpha virt. eigenvalues --    0.41244   0.41871   0.42107   0.42536   0.43403
 Alpha virt. eigenvalues --    0.43631   0.44214   0.44415   0.44672   0.45498
 Alpha virt. eigenvalues --    0.46951   0.47164   0.47220   0.47886   0.49061
 Alpha virt. eigenvalues --    0.49513   0.50143   0.51031   0.51099   0.51473
 Alpha virt. eigenvalues --    0.52265   0.52600   0.54318   0.54376   0.55861
 Alpha virt. eigenvalues --    0.56603   0.57722   0.58227   0.58693   0.59546
 Alpha virt. eigenvalues --    0.60819   0.60948   0.62638   0.63570   0.64626
 Alpha virt. eigenvalues --    0.64828   0.65914   0.66219   0.67040   0.67114
 Alpha virt. eigenvalues --    0.67553   0.67612   0.68188   0.68710   0.69238
 Alpha virt. eigenvalues --    0.69403   0.70347   0.70564   0.71487   0.71670
 Alpha virt. eigenvalues --    0.72450   0.72522   0.72635   0.73450   0.74139
 Alpha virt. eigenvalues --    0.74580   0.74939   0.75764   0.75842   0.76054
 Alpha virt. eigenvalues --    0.76481   0.77119   0.77199   0.77656   0.78079
 Alpha virt. eigenvalues --    0.78651   0.78826   0.79026   0.79377   0.80320
 Alpha virt. eigenvalues --    0.81284   0.81391   0.81723   0.82083   0.82442
 Alpha virt. eigenvalues --    0.82869   0.83648   0.84182   0.84562   0.84966
 Alpha virt. eigenvalues --    0.85247   0.85726   0.86641   0.87006   0.87626
 Alpha virt. eigenvalues --    0.88427   0.89104   0.89393   0.89649   0.91823
 Alpha virt. eigenvalues --    0.92375   0.92631   0.92901   0.93207   0.94197
 Alpha virt. eigenvalues --    0.95101   0.95707   0.96439   0.96772   0.96993
 Alpha virt. eigenvalues --    0.98041   0.98606   0.98867   0.99303   0.99741
 Alpha virt. eigenvalues --    1.00562   1.00981   1.01975   1.02109   1.03213
 Alpha virt. eigenvalues --    1.03725   1.04320   1.04563   1.05529   1.06501
 Alpha virt. eigenvalues --    1.07137   1.07453   1.08335   1.09230   1.09385
 Alpha virt. eigenvalues --    1.09680   1.10502   1.10730   1.11049   1.12138
 Alpha virt. eigenvalues --    1.12683   1.13548   1.14313   1.14702   1.14903
 Alpha virt. eigenvalues --    1.15286   1.15353   1.16592   1.16677   1.18381
 Alpha virt. eigenvalues --    1.18412   1.18560   1.19472   1.20159   1.20794
 Alpha virt. eigenvalues --    1.21204   1.22625   1.22879   1.23442   1.23764
 Alpha virt. eigenvalues --    1.23882   1.25113   1.25388   1.26011   1.26627
 Alpha virt. eigenvalues --    1.26785   1.28136   1.28568   1.29133   1.29746
 Alpha virt. eigenvalues --    1.30309   1.30882   1.31448   1.31954   1.33129
 Alpha virt. eigenvalues --    1.33729   1.34167   1.34795   1.34941   1.35379
 Alpha virt. eigenvalues --    1.36235   1.37345   1.38286   1.39104   1.39406
 Alpha virt. eigenvalues --    1.40222   1.40856   1.41929   1.42423   1.43419
 Alpha virt. eigenvalues --    1.44444   1.44900   1.46071   1.47704   1.49395
 Alpha virt. eigenvalues --    1.50479   1.51605   1.52642   1.53497   1.54124
 Alpha virt. eigenvalues --    1.54294   1.56501   1.58307   1.58909   1.61940
 Alpha virt. eigenvalues --    1.62293   1.64209   1.64822   1.66910   1.67005
 Alpha virt. eigenvalues --    1.68845   1.69829   1.70939   1.71366   1.72728
 Alpha virt. eigenvalues --    1.73293   1.73803   1.74383   1.75076   1.76045
 Alpha virt. eigenvalues --    1.77097   1.78164   1.78867   1.80187   1.80929
 Alpha virt. eigenvalues --    1.81801   1.82308   1.82792   1.84363   1.85626
 Alpha virt. eigenvalues --    1.86490   1.87294   1.87416   1.88017   1.88773
 Alpha virt. eigenvalues --    1.89852   1.90357   1.90709   1.91449   1.92160
 Alpha virt. eigenvalues --    1.92946   1.94073   1.95893   1.96744   1.97756
 Alpha virt. eigenvalues --    1.98783   2.00361   2.00477   2.01990   2.02626
 Alpha virt. eigenvalues --    2.03311   2.04456   2.04574   2.05118   2.05491
 Alpha virt. eigenvalues --    2.06909   2.07505   2.08399   2.09487   2.10055
 Alpha virt. eigenvalues --    2.10412   2.11281   2.12346   2.12396   2.13439
 Alpha virt. eigenvalues --    2.14717   2.15716   2.17084   2.17334   2.18267
 Alpha virt. eigenvalues --    2.19323   2.19645   2.20294   2.21594   2.21776
 Alpha virt. eigenvalues --    2.21959   2.23794   2.25004   2.25410   2.26163
 Alpha virt. eigenvalues --    2.26549   2.27038   2.28565   2.28809   2.30518
 Alpha virt. eigenvalues --    2.31616   2.32003   2.33045   2.33544   2.34839
 Alpha virt. eigenvalues --    2.35479   2.36405   2.37339   2.38149   2.38341
 Alpha virt. eigenvalues --    2.39046   2.40239   2.41344   2.41673   2.42358
 Alpha virt. eigenvalues --    2.43838   2.44779   2.45271   2.45558   2.46078
 Alpha virt. eigenvalues --    2.46613   2.47441   2.48517   2.48745   2.50174
 Alpha virt. eigenvalues --    2.51172   2.51816   2.53291   2.54115   2.55504
 Alpha virt. eigenvalues --    2.55751   2.56441   2.56556   2.57752   2.58103
 Alpha virt. eigenvalues --    2.58941   2.60453   2.60927   2.61868   2.63048
 Alpha virt. eigenvalues --    2.64192   2.64691   2.64877   2.65843   2.66113
 Alpha virt. eigenvalues --    2.67400   2.68388   2.68945   2.69787   2.71023
 Alpha virt. eigenvalues --    2.72228   2.72552   2.72998   2.73728   2.75050
 Alpha virt. eigenvalues --    2.76219   2.79134   2.79534   2.81116   2.82764
 Alpha virt. eigenvalues --    2.83557   2.85751   2.87065   2.88203   2.90166
 Alpha virt. eigenvalues --    2.91171   2.93754   2.94600   2.96609   3.00269
 Alpha virt. eigenvalues --    3.02696   3.04654   3.08767   3.10357   3.10744
 Alpha virt. eigenvalues --    3.11655   3.13412   3.17029   3.17651   3.19710
 Alpha virt. eigenvalues --    3.23751   3.26056   3.30206   3.30269   3.32167
 Alpha virt. eigenvalues --    3.37569   3.38664   3.41469   3.50665   3.53828
 Alpha virt. eigenvalues --    3.59722   3.65626   3.70699   3.95414   3.99349
 Alpha virt. eigenvalues --    4.13890   4.20662   4.24047   4.25037   4.30007
 Alpha virt. eigenvalues --    4.32498   4.35563   4.37242   4.38220   4.39887
 Alpha virt. eigenvalues --    4.41293   4.42125   4.42735   4.44174   4.45949
 Alpha virt. eigenvalues --    4.48942   4.50734   4.51965   4.53719   4.54470
 Alpha virt. eigenvalues --    4.55552   4.58886   4.60722   4.62875   4.64360
 Alpha virt. eigenvalues --    4.71734   4.80105   4.88483
          Condensed to atoms (all electrons):
              1          2          3          4          5          6
     1  Si  14.365403   0.329021   0.323550   0.982551   0.764041  -0.405494
     2  H    0.329021   0.682784  -0.042232  -0.107754  -0.055480  -0.046428
     3  H    0.323550  -0.042232   0.785524  -0.023687   0.158563   0.074506
     4  C    0.982551  -0.107754  -0.023687  21.631682  -9.544788  -1.546062
     5  C    0.764041  -0.055480   0.158563  -9.544788  26.907185  -3.236307
     6  C   -0.405494  -0.046428   0.074506  -1.546062  -3.236307  16.991293
     7  C    0.021377   0.006330  -0.006415  -0.903747  -0.158904  -1.241182
     8  C   -0.380225  -0.059637   0.121772  -2.690624  -3.900865   0.048753
     9  C   -0.071426   0.001058   0.001169   0.184299  -1.626739   0.418666
    10  N   -0.001054  -0.000121   0.000234  -0.021149  -0.034523   0.165703
    11  S    0.000473   0.000116  -0.000172   0.010528   0.024959  -0.061397
    12  N   -0.000059   0.000043  -0.000053   0.001543  -0.008346  -0.033147
    13  C   -0.025740  -0.003934   0.010303  -0.199236  -0.351250   0.433848
    14  C   -0.187202  -0.007455   0.017235  -0.359607  -2.124341   0.909901
    15  C   -0.230847  -0.042620   0.085533  -0.186019  -0.721320  -1.082730
    16  C    0.069701   0.050770  -0.094681   0.274370  -0.020400  -0.884141
    17  N   -0.005826  -0.000778   0.002783  -0.000390  -0.005658   0.002651
    18  C   -0.003121   0.001676   0.006878  -0.005460   0.179173  -0.131049
    19  C    0.017695   0.002197  -0.005860   0.003285   0.052916  -0.043809
    20  C   -0.001230  -0.000283   0.000618  -0.001712  -0.003146   0.000385
    21  C    0.000883  -0.000034  -0.000068   0.000032   0.001285  -0.000194
    22  N   -0.000000  -0.000000   0.000000   0.000000   0.000001   0.000001
    23  C    0.000008   0.000000  -0.000002  -0.000000   0.000003  -0.000000
    24  C    0.000001  -0.000000  -0.000000   0.000000   0.000002  -0.000002
    25  S   -0.000019  -0.000009   0.000013  -0.000002  -0.000007   0.000014
    26  C    0.001979  -0.000018  -0.000039   0.002268   0.017017  -0.012951
    27  C    0.000339  -0.000047   0.000037   0.000043   0.001046   0.001283
    28  Si  -0.000063   0.000010  -0.000002  -0.000039  -0.000043  -0.000865
    29  H    0.000018  -0.000000  -0.000002   0.000006   0.000068  -0.000065
    30  H    0.000002  -0.000000  -0.000000   0.000000   0.000003   0.000006
    31  C    0.000064   0.000141  -0.000122   0.000822   0.011990  -0.018373
    32  C   -0.016373  -0.000651   0.002145  -0.025529  -0.170305   0.117661
    33  C   -0.047017  -0.002272   0.007763   0.024538  -0.117441  -0.117127
    34  C   -0.224518   0.021821  -0.049434  -2.664958  -0.257120  -0.328582
    35  C   -0.013315   0.009788   0.210501   1.457599   2.579973  -3.867198
    36  C   -1.579348   0.191075  -0.486398   0.013664  -2.606855  -0.032628
    37  H   -0.013316   0.009931  -0.006770   0.314429   0.033220  -0.077326
    38  H   -0.010680  -0.000522   0.001261  -0.045484  -0.311583   0.359404
    39  H    0.004712   0.000326  -0.000728  -0.082776   0.191232  -0.085251
    40  H   -0.085682   0.011673  -0.004793   0.003805  -0.147857  -0.034424
    41  H    0.000212   0.000111  -0.000179  -0.000129  -0.000879   0.000564
    42  H    0.000000   0.000000  -0.000000  -0.000000  -0.000000  -0.000000
    43  H   -0.000000  -0.000000   0.000000   0.000000   0.000000   0.000000
    44  H    0.000017  -0.000002   0.000000  -0.000003   0.000014   0.000088
    45  H   -0.000038  -0.000004   0.000008  -0.000053  -0.000641   0.003245
    46  H    0.273559   0.021462  -0.122369   0.330804  -0.604024  -0.045629
              7          8          9         10         11         12
     1  Si   0.021377  -0.380225  -0.071426  -0.001054   0.000473  -0.000059
     2  H    0.006330  -0.059637   0.001058  -0.000121   0.000116   0.000043
     3  H   -0.006415   0.121772   0.001169   0.000234  -0.000172  -0.000053
     4  C   -0.903747  -2.690624   0.184299  -0.021149   0.010528   0.001543
     5  C   -0.158904  -3.900865  -1.626739  -0.034523   0.024959  -0.008346
     6  C   -1.241182   0.048753   0.418666   0.165703  -0.061397  -0.033147
     7  C   11.824867  -1.117865  -1.130070   0.348462  -0.097174  -0.002948
     8  C   -1.117865  18.904867   0.916254  -0.203596   0.045776  -0.009399
     9  C   -1.130070   0.916254   9.629460  -0.067362  -0.217269   0.236935
    10  N    0.348462  -0.203596  -0.067362   7.640614  -0.136913  -0.224460
    11  S   -0.097174   0.045776  -0.217269  -0.136913  15.755762  -0.047915
    12  N   -0.002948  -0.009399   0.236935  -0.224460  -0.047915   7.682695
    13  C    0.005280   1.575059   0.289899   0.296904  -0.242828   0.030903
    14  C   -1.857435   4.182751   0.306423   0.148138  -0.176632  -0.237066
    15  C   -0.627603   2.139892  -0.033742  -0.115782   0.089786  -0.098372
    16  C   -0.423518  -3.570114  -0.764927  -0.030388  -0.031222   0.045939
    17  N   -0.012932   0.015228   0.002722   0.000100  -0.000334   0.002750
    18  C   -0.034575  -0.558914   0.181243  -0.055980   0.016200  -0.166500
    19  C   -0.009366  -0.454095  -0.096861  -0.004156   0.010517  -0.014960
    20  C   -0.004250   0.035608   0.107466   0.000462   0.015811   0.066635
    21  C    0.000880  -0.013693   0.015223  -0.000728  -0.000949  -0.009236
    22  N   -0.000012  -0.000022  -0.000610   0.000001  -0.000024  -0.000463
    23  C    0.000001  -0.000069  -0.000262  -0.000001  -0.000005  -0.000274
    24  C    0.000000  -0.000122   0.000371  -0.000003   0.000004  -0.000034
    25  S    0.000002   0.000301   0.000086   0.000012  -0.000031  -0.000171
    26  C   -0.028650  -0.205049  -0.205298  -0.010066   0.049438  -0.126892
    27  C    0.008732   0.024862   0.135407  -0.001576  -0.007713   0.033754
    28  Si  -0.005146  -0.013978  -0.030130  -0.002071  -0.002618  -0.025794
[...]
 0.00010435,0.00245510,0.00135411,-0.00030046,0.00017964,0.00309451,0.0
 0025239,0.00269032,-0.28575128,-0.01789780,-0.13510708,-0.01123862,-0.
 00069501,-0.00905324,-0.00027729,0.00003814,0.00020778,0.00000326,0.00
 000123,-0.00000080,-0.00001249,0.00003627,0.00000479,0.00000226,-0.000
 00877,-0.00000024,0.00000467,-0.00000919,-0.00000607,-0.00003125,-0.00
 001014,-0.00002519,-0.00005488,-0.00002448,-0.00007567,0.00003458,-0.0
 0001049,-0.00007115,0.00000540,-0.00000067,-0.00000290,-0.00000616,-0.
 00000194,-0.00000408,-0.00000283,-0.00000136,0.00000431,-0.00000036,0.
 00000082,0.00000045,-0.00000100,-0.00000015,0.00000015,0.00000012,-0.0
 0000015,-0.00000042,-0.00000279,-0.00000003,0.00000043,0.00008527,-0.0
 0002784,-0.00005883,0.00001584,0.00015161,-0.00053925,0.29490816,0.000
 00130,0.00001067,-0.00000458,-0.00000012,-0.00000342,0.00000099,-0.000
 00037,-0.00000275,0.00000243,0.00000057,-0.00000088,0.00000129,0.00000
 286,0.00000224,-0.00000427,-0.00000334,-0.00000251,-0.00000070,-0.0000
 0150,0.00000307,0.00000144,-0.00000073,-0.00000076,0.00000476,-0.00000
 236,-0.00000046,0.00000093,-0.00000246,-0.00000206,0.00000078,-0.00000
 295,0.00000165,-0.00000635,0.00000264,-0.00000241,0.00000172,0.0000004
 4,-0.00000016,0.00000034,0.00003221,0.00004237,-0.00000850,-0.00000569
 ,0.00000029,0.00001851,-0.00001381,-0.00001050,-0.00002001,0.00000700,
 -0.00000826,-0.00000238,0.00001510,0.00006300,-0.00002831,-0.00005608,
 -0.00020426,-0.00001044,-0.00003242,0.00217132,0.00011528,0.00004069,0
 .00058861,-0.00016130,-0.00038896,0.00737280,-0.00039612,-0.00067873,-
 0.00039874,0.00007826,-0.01802254,-0.02302096,-0.01022984,0.00016082,-
 0.00270960,-0.00017416,0.00004906,0.00008610,-0.00017442,-0.00002989,0
 .00003384,0.00002183,-0.00003040,0.00003400,-0.00001240,0.00000502,-0.
 00001174,0.00000670,0.00000227,-0.00000592,-0.00000071,-0.00001133,0.0
 0002912,0.00004853,0.00003396,-0.00037044,0.00008350,-0.00004716,0.000
 00314,0.00001585,0.00000237,-0.00000572,0.00000095,-0.00000556,-0.0000
 0550,-0.00000580,-0.00000054,-0.00000115,0.00000359,0.00000032,0.00000
 017,0.00000052,-0.00000044,0.00000033,-0.00000001,-0.00000062,0.000000
 86,-0.00000041,0.00000003,0.00000105,0.00000100,-0.00000678,0.00003635
 ,-0.00000796,0.00019326,-0.00331833,0.00009915,0.01874711,0.01958043,-
 0.00000323,-0.00000604,0.00001158,0.00000045,0.00000215,-0.00000248,0.
 00000048,0.00000149,-0.00000503,0.00000035,-0.00000032,-0.00000513,-0.
 00000426,-0.00000069,0.00000516,0.00000372,0.00000128,0.00000086,0.000
 00163,-0.00000147,-0.00000297,0.00000130,-0.00000131,-0.00000574,-0.00
 000028,0.00000134,0.00000574,0.00000659,0.00000027,-0.00000192,0.00000
 243,0.00000259,0.00000760,-0.00000430,-0.00000241,-0.00000156,-0.00000
 383,-0.00000189,-0.00000931,-0.00000691,-0.00000558,-0.00000245,0.0000
 0047,0.00000105,-0.00000136,0.00000329,0.00000117,0.00000146,0.0000220
 8,0.00000151,-0.00000706,-0.00007177,-0.00000619,0.00002921,-0.0000401
 1,0.00000364,0.00009901,-0.00005935,0.00000711,0.00151338,0.00541554,0
 .00003986,-0.00579342,-0.00333577,-0.00056315,-0.00472033,-0.02468759,
 -0.00124522,0.00013393,-0.13335114,-0.01024447,-0.12633758,0.01468233,
 0.00107044,0.00838995,0.00045758,-0.00005889,-0.00029545,-0.00003491,0
 .00003109,0.00005518,0.00003942,0.00000609,0.00001678,-0.00000770,-0.0
 0000206,-0.00000158,-0.00000807,0.00000425,0.00000392,-0.00000038,0.00
 001664,0.00004768,0.00000949,0.00003262,0.00006524,0.00000789,0.000013
 11,0.00005232,-0.00000569,0.00000179,0.00000276,0.00000881,0.00000287,
 0.00000884,0.00000292,0.00000175,-0.00000650,0.00000048,-0.00000102,-0
 .00000060,0.00000082,0.00000011,-0.00000002,0.00000031,0.00000015,0.00
 000043,0.00000300,-0.00000067,-0.00000086,-0.00009430,0.00002642,0.000
 05886,0.00062705,0.00015433,0.00046561,0.14041940,0.01073902,0.1261479
 1,-0.00001146,-0.00000344,0.00000864,0.00000206,0.00000057,-0.00000114
 ,0.00000087,-0.00000040,0.00000074,0.00000860,-0.00000448,0.00000582,0
 .00000888,0.00000565,-0.00001199,-0.00000993,-0.00000140,0.00000253,0.
 00000004,0.00000418,0.00001252,-0.00001548,0.00000071,0.00001883,0.000
 05026,-0.00001353,0.00002446,-0.00017060,-0.00005034,-0.00000483,0.000
 15143,0.00005694,0.00028733,-0.00052677,0.00028170,-0.00017124,-0.0002
 0191,-0.00013228,-0.00045012,0.00087831,0.00019712,0.00006785,-0.00020
 186,-0.00002153,0.00021701,0.00019396,-0.00009095,-0.00033252,-0.00018
 736,0.00000766,0.00046404,-0.00056535,-0.00013992,-0.00106790,0.000574
 49,-0.00019581,0.00003007,-0.00015616,-0.00038952,-0.00047878,0.000844
 28,-0.00007497,-0.00015329,-0.00054446,0.00038965,0.00027540,-0.000243
 47,-0.00015276,-0.00025873,-0.00008087,-0.00002820,0.00017334,0.000084
 14,-0.00005761,0.00001560,-0.00228375,0.00331688,0.00200674,-0.1558482
 5,-0.10962186,0.10032458,-0.00086776,0.00338914,-0.00238811,0.00142087
 ,0.00098208,0.00019722,-0.00002834,-0.00065242,-0.00006595,-0.00470100
 ,-0.01179939,0.01444309,0.00019787,-0.00259108,-0.00148523,-0.00155081
 ,0.00133821,0.00255737,-0.00002394,-0.00002043,0.00004069,-0.00003057,
 -0.00000156,-0.00002345,0.00000908,-0.00000115,0.00000446,0.00000242,0
 .00000071,0.00000249,-0.00000016,-0.00000028,0.00000082,0.00000387,-0.
 00000156,-0.00000045,-0.00001284,0.00004190,0.00001392,0.00001834,-0.0
 0000766,-0.00001762,-0.00002696,0.00000585,-0.00001485,0.00000998,0.00
 003144,0.00001185,0.16273763,0.00001436,0.00001172,-0.00002834,-0.0000
 0241,-0.00000377,0.00000594,-0.00000100,-0.00000238,0.00001019,-0.0000
 0691,0.00000019,0.00001261,0.00000612,0.00000285,-0.00000351,0.0000051
 7,-0.00000118,0.00000111,-0.00000157,-0.00000168,0.00000201,0.00000767
 ,-0.00000127,-0.00000014,-0.00004523,-0.00002445,-0.00006885,0.0000061
 7,0.00002731,0.00008132,-0.00000106,-0.00003005,-0.00010192,0.00027636
 ,0.00006660,0.00003611,0.00014964,0.00005352,0.00020908,-0.00041422,-0
 .00010082,-0.00018797,0.00019953,0.00003248,0.00004506,-0.00025877,0.0
 0002440,0.00014624,0.00023485,-0.00002807,-0.00033468,0.00006312,0.000
 10193,0.00067286,-0.00012568,-0.00019513,-0.00015384,-0.00000310,0.000
 32579,0.00066648,-0.00047324,0.00004835,0.00023708,-0.00026755,-0.0003
 6808,-0.00058496,0.00024914,-0.00002821,0.00008352,0.00007515,0.000002
 54,-0.00017661,-0.00019590,0.00000233,-0.00030184,0.00822237,0.0034765
 4,-0.00665088,-0.11674234,-0.12347458,0.10273683,-0.00912001,-0.009654
 76,0.00980316,-0.00177711,-0.00076662,-0.00059029,0.00090998,0.0013859
 8,-0.00046643,0.00279906,0.00176935,-0.00763353,-0.00038057,-0.0000450
 4,-0.00045989,0.00138910,-0.00052013,-0.00172862,0.00002313,-0.0000018
 0,-0.00003907,-0.00000220,-0.00000311,0.00000539,-0.00001400,-0.000000
 76,0.00000711,-0.00000107,0.00000367,0.,-0.00000332,-0.00000011,0.0000
 0075,0.00000235,-0.00000085,-0.00000194,0.00000773,-0.00000380,-0.0000
 1208,0.00001500,-0.00000871,-0.00003015,0.00001631,0.00002241,0.000021
 87,-0.00000542,0.00001937,-0.00002535,0.11561375,0.12722672,-0.0000218
 1,-0.00001552,0.00001943,0.00000317,0.00000423,-0.00000346,0.00000310,
 0.00000258,-0.00000538,0.00001014,-0.00000676,0.00000103,0.00000532,0.
 00000112,-0.00000535,0.00000567,-0.00000081,0.00000303,0.00000205,-0.0
 0000018,0.00000709,0.00000061,-0.00000389,-0.00000091,0.00001625,-0.00
 001592,0.00001975,-0.00007687,-0.00002317,0.00003973,0.00014633,0.0000
 4444,0.00019174,-0.00023814,0.00022084,-0.00011661,-0.00012264,-0.0001
 0494,-0.00024557,0.00044557,-0.00005026,-0.00049778,0.00003990,0.00011
 166,0.00028957,-0.00012774,-0.00009083,-0.00027038,0.00019830,0.000019
 45,-0.00000278,-0.00066443,0.00017296,-0.00024931,0.00059710,-0.000849
 60,-0.00042470,0.00065622,-0.00034799,0.00075778,0.00063538,0.00035926
 ,-0.00091857,0.00028919,-0.00023418,0.00070230,-0.00060307,-0.00009584
 ,-0.00007414,-0.00006342,0.00001722,0.00028406,0.00013391,0.00006432,0
 .00024556,0.01515697,0.01665555,-0.00665690,0.10130503,0.09142720,-0.1
 3545459,-0.00409972,-0.00323177,0.00158293,-0.00026459,0.00003911,-0.0
 0007726,0.00067229,0.00018875,0.00004560,-0.00279207,-0.00708380,0.005
 12349,0.00128287,-0.00169223,-0.00585421,0.00060802,-0.00050093,0.0017
 0313,-0.00002836,-0.00000771,-0.00002029,0.00000660,0.00000952,0.00001
 146,0.00001289,0.00000315,-0.00000926,0.00000427,-0.00000010,-0.000000
 11,0.00000189,0.00000044,0.00000034,0.00000672,-0.00000038,0.00000002,
 -0.00000195,0.00002491,0.00000077,0.00008065,-0.00003000,-0.00014393,0
 .00000909,0.00000183,-0.00000875,0.00000142,0.00000364,0.00006065,-0.1
 1380952,-0.09554543,0.13959831,0.00003262,-0.00000726,0.00001174,-0.00
 000481,0.00000285,-0.00000293,-0.00000881,0.00000235,-0.00000834,-0.00
 000444,0.00001183,-0.00003912,-0.00000541,-0.00000569,0.00000126,-0.00
 004558,0.00000514,-0.00001932,0.00000523,0.00002172,-0.00002356,-0.000
 01310,0.00000142,0.00003985,-0.00002868,-0.00013635,0.00012904,0.00014
 199,0.00004155,-0.00018911,-0.00071973,-0.00028496,-0.00020207,-0.0029
 1254,-0.00063856,0.00064252,0.00005687,0.00008717,0.00053013,-0.000020
 56,0.00010427,0.00011991,-0.00024283,-0.00007488,-0.00027263,0.0004032
 2,-0.00001219,0.00007411,-0.00043095,0.00010440,0.00026405,0.00103185,
 0.00034917,0.00018578,-0.00114884,-0.00001260,0.00102905,-0.00015264,-
 0.00142413,-0.00265141,0.00028476,-0.00000206,0.00021589,-0.00011821,-
 0.00018380,0.00000004,0.00011683,-0.00002136,-0.00000374,-0.00002333,-
 0.00000299,-0.00004292,-0.00011004,0.00003331,-0.00018692,-0.00122850,
 0.00271807,0.00291115,-0.00455548,0.01225715,-0.01558798,-0.00284532,-
 0.00187124,-0.00035216,0.00116046,-0.00076095,0.00021177,0.00018696,0.
 00038656,0.00015647,-0.11810537,0.08159110,-0.10904558,0.00301766,-0.0
 0695458,0.00280741,0.00091243,0.00043431,0.00009200,0.00009521,-0.0000
 1996,-0.00000394,0.00001320,-0.00001259,-0.00002242,0.00000358,-0.0000
 0035,0.00000578,-0.00000684,-0.00000752,-0.00000306,0.00000590,-0.0000
 0522,-0.00000334,-0.00002274,-0.00000028,0.00000770,-0.00001189,0.0000
 0354,0.00000127,0.00002166,0.00015507,-0.00012682,-0.00000431,0.000004
 90,-0.00000002,0.,0.00001661,-0.00001023,0.00109481,-0.00044585,0.0005
 7896,0.12418745,0.00003747,-0.00001391,0.00001386,-0.00000582,0.000005
 33,-0.00000390,-0.00000889,0.00000447,-0.00001264,-0.00000912,0.000015
 01,-0.00004482,-0.00001267,-0.00000435,0.00000871,-0.00003523,-0.00000
 360,-0.00002012,0.00001505,-0.00000923,-0.00003445,0.00001344,0.000020
 54,0.00002125,0.00004084,-0.00003444,-0.00005445,0.00037749,-0.0000653
 0,-0.00022792,-0.00087888,-0.00013642,-0.00040112,0.00050387,0.0002577
 3,-0.00069358,0.00060099,0.00021012,0.00059053,0.00037959,0.00005430,-
 0.00004275,-0.00016774,-0.00006455,-0.00007040,0.00013442,0.00004305,0
 .00003634,-0.00027407,-0.00004929,-0.00005183,0.00081432,-0.00001849,0
 .00009882,-0.00059041,0.00007878,0.00077484,-0.00095227,-0.00109307,-0
 .00229814,0.00028075,-0.00002438,-0.00003589,-0.00009015,-0.00002217,0
 .00007014,-0.00000235,-0.00000826,-0.00001675,-0.00003701,0.00000225,-
 0.00000943,-0.00010778,0.00001218,-0.00012468,0.00062195,0.00050997,0.
 00028585,-0.00241842,0.00356000,-0.01032458,0.00672026,-0.00913240,0.0
 1231366,0.00220204,-0.00067407,-0.00007261,-0.00083705,0.00126964,-0.0
 0072029,0.08491770,-0.10280649,0.11924510,-0.00605916,0.00201161,-0.00
 839204,-0.00021630,0.00027963,0.00038698,0.00010077,-0.00002013,-0.000
 00500,0.00002539,-0.00000574,-0.00001167,0.00000470,-0.00000586,-0.000
 00532,-0.00000714,-0.00000771,-0.00000533,0.00000688,0.00000022,-0.000
 00523,-0.00002609,0.00000272,0.00000764,-0.00000534,-0.00000215,-0.000
 00524,0.00001459,0.00004501,-0.00009790,-0.00000419,-0.00000329,-0.000
 00055,-0.00000386,0.00000569,0.00000276,0.00038209,0.00066693,0.000551
 92,-0.08544450,0.10515590,-0.00002929,-0.00000125,0.00000130,0.0000043
 5,-0.00000019,0.00000044,0.00000623,-0.00000089,0.00000271,0.00000921,
 -0.00000978,0.00002094,0.00000009,0.00000047,-0.00001190,0.00002031,0.
 00000236,0.00002563,0.00001461,0.00001821,0.00000440,-0.00002617,-0.00
 000361,-0.00000199,-0.00003593,0.00000218,-0.00016391,-0.00047282,0.00
 018905,0.00020364,0.00028454,0.00001656,0.00057910,-0.00049140,-0.0010
 1210,0.00036961,0.00001355,-0.00004744,-0.00068447,0.00030726,0.000175
 86,-0.00032074,0.00017924,0.00010472,0.00028252,-0.00019469,0.00004738
 ,-0.00013488,0.00011508,-0.00013591,-0.00022956,-0.00021996,-0.0007062
 7,-0.00013394,0.00040112,0.00025286,-0.00017085,-0.00122055,-0.0009323
 6,0.00058466,0.00019678,-0.00006294,-0.00035281,-0.00004579,0.00005383
 ,0.00010957,-0.00007185,-0.00000213,-0.00003189,-0.00005679,0.00000153
 ,-0.00000745,-0.00007956,0.00001200,-0.00001210,0.00056341,-0.00126540
 ,-0.00535156,0.00152993,-0.00306112,0.00197945,0.00318784,-0.00359103,
 0.00295315,0.00069444,-0.00014968,0.00005286,-0.00064923,0.00028115,-0
 .00010422,-0.10749452,0.10756925,-0.19544281,-0.01337232,0.01269441,-0
 .01067573,-0.00135311,-0.00014427,0.00049302,-0.00003999,-0.00004170,-
 0.00002201,0.00000258,0.00001640,0.00001357,0.00000787,-0.00000024,-0.
 00000507,0.00000582,0.00000377,0.00000104,-0.00000222,-0.00000222,0.00
 000377,0.00001837,0.00000211,-0.00000337,0.00001627,-0.00000943,0.0000
 0220,-0.00000551,0.00000551,-0.00003040,-0.00001025,-0.00000300,0.0000
 0320,-0.00001147,-0.00000259,0.00001708,-0.00047710,0.00034447,0.00035
 034,0.11878346,-0.11061549,0.20583555,-0.00229904,0.00355628,0.0004527
 7,0.00145561,0.00094236,-0.00051588,0.00008657,-0.00051696,0.00029859,
 -0.00590878,-0.01989507,-0.00841623,-0.00051314,-0.00156127,0.00259571
 ,-0.00034317,0.00038015,-0.00336565,-0.00140707,0.00040297,0.00130638,
 0.00129924,-0.00013255,0.00030417,0.00001225,-0.00001495,0.00019787,-0
 .00006589,-0.00000971,-0.00006069,0.00002200,0.00002538,0.00005397,-0.
 00003600,-0.00002014,-0.00006395,0.00007576,-0.00003550,0.00005417,-0.
 00028329,-0.00001227,0.00005625,0.00076364,-0.00004325,-0.00021821,-0.
 00001712,0.00025835,-0.00013976,-0.00021823,-0.00010302,0.00008403,0.0
 0005555,-0.00006850,-0.00017601,-0.00009893,0.00001455,0.00002588,-0.0
 0001062,-0.00001259,-0.00010672,0.00000404,-0.00000616,0.00000611,0.00
 000960,-0.00000030,-0.00000721,-0.00000319,0.00000127,-0.00000569,-0.0
 0000802,-0.00000143,0.00000620,-0.00000137,0.00000164,-0.00000322,0.00
 007684,0.00000705,0.00005671,0.00000842,-0.00002015,-0.00001993,0.0000
 2326,0.00000896,0.00000919,-0.00000355,-0.00000129,-0.00000135,-0.0000
 0600,-0.00000088,-0.00000321,-0.00000457,0.00001288,-0.00000202,-0.000
 07819,0.00000784,0.00002465,0.00021853,0.00004878,-0.00000772,0.000206
 83,-0.00020786,0.00022181,-0.00060605,0.00452473,-0.00250351,-0.117046
 11,-0.12314128,-0.04417505,0.00170395,0.00080248,0.00030291,-0.0000661
 1,0.00005777,-0.00002175,0.00004535,-0.00020358,-0.00005365,-0.0010372
 9,0.00087550,0.00099251,-0.00001148,0.00000159,0.00000361,0.00000016,0
 .00000022,-0.00000097,0.00000012,-0.00000027,0.00000015,-0.00000213,0.
 00000249,-0.00000153,-0.00000176,-0.00000017,-0.00000186,0.12400938,-0
 .00463698,-0.00977943,-0.00522655,-0.00157739,-0.00049846,0.00065391,0
 .00040016,0.00114316,0.00004455,0.00324270,0.00759635,0.00559119,-0.00
 026901,-0.00038670,-0.00172812,0.00032403,0.00047250,0.00184693,0.0006
 3659,-0.00028374,-0.00072191,-0.00071191,0.00013219,-0.00021449,-0.000
 08481,0.00001472,0.00003441,0.00006627,0.00000623,-0.00000317,-0.00000
 250,-0.00000693,-0.00004164,0.00008844,0.00001720,0.00005549,-0.000085
 65,-0.00002432,-0.00004030,0.00016253,-0.00002600,0.00016018,-0.000468
 34,-0.00000400,0.00038238,0.00051730,0.00000765,-0.00114456,-0.0004169
 0,0.00012758,0.00041403,0.00004873,-0.00004877,-0.00000289,-0.00000682
 ,0.00000261,0.00004141,0.00002687,0.00001299,0.00002259,-0.00000093,0.
 00000176,-0.00001125,-0.00001986,0.,0.00001438,0.00000555,0.00000043,0
 .00001284,0.00001711,0.00000200,-0.00001246,0.00000049,-0.00000184,0.0
 0000558,0.00002390,-0.00000842,-0.00000759,0.00000447,0.00004258,0.000
 04394,-0.00004759,-0.00002067,-0.00001176,0.00000667,0.00000674,0.0000
 0203,0.00000857,0.00001125,0.00001098,-0.00001043,-0.00000652,0.000003
 99,-0.00004072,0.00000293,0.00003410,-0.00004646,0.00000423,0.00001670
 ,-0.00058135,0.00023045,-0.00010456,0.00090314,-0.00161945,0.00346739,
 -0.13154646,-0.22288379,-0.08958164,-0.00073040,0.00028439,-0.00039461
 ,0.00002002,-0.00001280,-0.00005496,-0.00000769,0.00003752,0.00004736,
 0.00068367,-0.00029077,-0.00015736,0.00002465,-0.00000277,-0.00000732,
 -0.00000052,-0.00000034,0.00000173,-0.00000077,0.00000004,-0.00000012,
 0.00000830,-0.00000560,0.00000813,-0.00000262,-0.00000581,0.00000694,0
 .13407594,0.22575964,0.00617478,0.00983986,0.00327338,0.00144736,0.000
 37678,-0.00045417,-0.00092467,-0.00089622,0.00010835,0.00100795,0.0026
 6319,-0.00177595,-0.00025598,-0.00098959,-0.00554130,-0.00143402,0.000
 88432,0.00004395,0.00031561,-0.00025204,0.00005511,-0.00014633,0.00081
 656,-0.00067024,-0.00020386,0.00002424,-0.00005007,0.00004392,0.000004
 15,-0.00007092,0.00000583,-0.00003434,-0.00007825,0.00006763,0.0000102
 7,0.00003758,-0.00003972,-0.00002133,-0.00006314,0.00012759,0.00001223
 ,0.00011066,0.00010919,-0.00050316,-0.00019979,0.00009893,0.00005461,-
 0.00036143,0.00007347,0.00012195,0.00004764,-0.00004770,-0.00002138,0.
 00004375,0.00005019,0.00000022,0.00000221,0.00000428,0.00000800,0.0000
 3100,0.00000202,-0.00000085,0.00000054,-0.00000633,0.00000068,-0.00000
 182,0.00000571,0.00000067,0.00000946,0.00000683,0.00000123,-0.00000759
 ,-0.00000266,-0.00000202,0.00000344,0.00000073,-0.00000720,-0.00000865
 ,0.00000395,0.00001718,0.00001325,-0.00002899,0.00000683,-0.00000115,0
 .00000413,-0.00000132,0.00000026,0.00000634,0.00000012,0.00000102,0.00
 000134,-0.00000898,-0.00000910,-0.00000402,0.00000059,0.00002974,-0.00
 000140,0.00001506,-0.00004426,-0.00127370,0.00019094,0.00071855,-0.014
 68619,-0.01891116,-0.00304361,-0.04316775,-0.07889955,-0.06929057,-0.0
 0027974,-0.00043395,0.00093393,-0.00026745,-0.00006564,-0.00035143,-0.
 00000380,-0.00007054,-0.00000796,0.00039014,-0.00046601,0.00021652,0.0
 0000433,-0.00000118,0.00000243,0.00000043,-0.00000041,-0.00000033,-0.0
 0000015,0.00000024,0.00000021,0.00000538,-0.00000285,0.00000213,-0.000
 00174,-0.00000425,0.00000191,0.05281813,0.08654407,0.07634471\\0.00000
 215,-0.00000797,0.00000626,-0.00000874,0.00000693,0.00000290,0.0000012
 4,0.00000785,-0.00000328,0.00002501,-0.00000626,-0.00000101,-0.0000268
 0,0.00000856,-0.00003297,-0.00000184,-0.00000928,0.00002966,0.00000324
 ,-0.00000443,-0.00002575,0.00000011,0.00000894,0.00002270,-0.00000231,
 0.00001073,-0.00001215,-0.00000957,-0.00002105,0.00000851,-0.00000039,
 0.00001867,-0.00000638,0.00000846,-0.00002360,0.00001136,0.00000237,0.
 00000941,-0.00001287,-0.00001657,-0.00000689,0.00001854,0.00000474,-0.
 00000252,-0.00001275,0.00000128,-0.00000557,0.00000690,0.00000167,0.00
 000035,-0.00000535,-0.00000363,-0.00000002,0.00000431,0.00000204,0.000
 00064,0.00000143,-0.00000260,0.00000264,-0.00001104,-0.00000661,0.0000
 0857,0.00001229,0.00001109,-0.00000322,-0.00001634,-0.00000672,-0.0000
 1280,-0.00001845,0.00000070,0.00001226,0.00000570,-0.00000412,-0.00001
 743,0.00000963,0.00002906,-0.00000457,0.00000983,0.00000522,0.00001216
 ,-0.00000445,-0.00000278,-0.00002963,0.00001445,-0.00000262,-0.0000010
 8,0.00000143,-0.00000326,0.00000880,-0.00000952,0.00000188,0.00001988,
 -0.00000072,-0.00002261,-0.00002650,-0.00000158,0.00000367,0.00001766,
 -0.00000048,0.00001583,0.00002812,-0.00000930,-0.00003824,-0.00003016,
 0.00001681,0.00004919,0.00005551,0.00002024,-0.00000101,0.00000198,-0.
 00000145,-0.00000028,0.00000274,0.00000190,0.00000359,0.00000186,-0.00
 000061,0.00000039,0.00000443,-0.00000273,0.00000006,0.00000012,-0.0000
 0090,0.00000539,-0.00000285,-0.00000748,0.00000016,-0.00000040,-0.0000
 0047,0.00000246,-0.00000329,-0.00000465,-0.00001163,-0.00000202,-0.000
 01190,-0.00000866,-0.00002726,0.00000973\\\@


 IT'S WHAT YOU LEARN AFTER YOU KNOW IT ALL
 THAT COUNTS.
 Job cpu time:  1 days  7 hours 14 minutes 45.4 seconds.
 File lengths (MBytes):  RWF=   2377 Int=      0 D2E=      0 Chk=     35 Scr=      1
 Normal termination of Gaussian 09 at Mon Dec 30 14:11:13 2013.
