 Entering Gaussian System, Link 0=g09
 Initial command:
 /opt/gaussian/g09/l1.exe /panfs/panfs.cluster/home/shuo/Gau-32174.inp -scrdir=/panfs/panfs.cluster/home/shuo/
 Default is to use a total of  12 processors:
                               12 via shared-memory
                                1 via Linda
 Entering Link 1 = /opt/gaussian/g09/l1.exe PID=     32175.
  
 Copyright (c) 1988,1990,1992,1993,1995,1998,2003,2009,2011,
            Gaussian, Inc.  All Rights Reserved.
  
 This is part of the Gaussian(R) 09 program.  It is based on
 the Gaussian(R) 03 system (copyright 2003, Gaussian, Inc.),
 the Gaussian(R) 98 system (copyright 1998, Gaussian, Inc.),
 the Gaussian(R) 94 system (copyright 1995, Gaussian, Inc.),
 the Gaussian 92(TM) system (copyright 1992, Gaussian, Inc.),
 the Gaussian 90(TM) system (copyright 1990, Gaussian, Inc.),
 the Gaussian 88(TM) system (copyright 1988, Gaussian, Inc.),
 the Gaussian 86(TM) system (copyright 1986, Carnegie Mellon
 University), and the Gaussian 82(TM) system (copyright 1983,
 Carnegie Mellon University). Gaussian is a federally registered
 trademark of Gaussian, Inc.
  
 This software contains proprietary and confidential information,
 including trade secrets, belonging to Gaussian, Inc.
  
 This software is provided under written license and may be
 used, copied, transmitted, or stored only in accord with that
 written license.
  
 The following legend is applicable only to US Government
 contracts under FAR:
  
                    RESTRICTED RIGHTS LEGEND
  
 Use, reproduction and disclosure by the US Government is
 subject to restrictions as set forth in subparagraphs (a)
 and (c) of the Commercial Computer Software - Restricted
 Rights clause in FAR 52.227-19.
  
 Gaussian, Inc.
 340 Quinnipiac St., Bldg. 40, Wallingford CT 06492
  
  
 ---------------------------------------------------------------
 Warning -- This program may not be used in any manner that
 competes with the business of Gaussian, Inc. or will provide
 assistance to any competitor of Gaussian, Inc.  The licensee
 of this program is prohibited from giving any competitor of
 Gaussian, Inc. access to this program.  By using this program,
 the user acknowledges that Gaussian, Inc. is engaged in the
 business of creating and licensing software in the field of
 computational chemistry and represents and warrants to the
 licensee that it is not a competitor of Gaussian, Inc. and that
 it will not use this program in any manner prohibited above.
 ---------------------------------------------------------------
  

 Cite this work as:
 Gaussian 09, Revision C.01,
 M. J. Frisch, G. W. Trucks, H. B. Schlegel, G. E. Scuseria, 
 M. A. Robb, J. R. Cheeseman, G. Scalmani, V. Barone, B. Mennucci, 
 G. A. Petersson, H. Nakatsuji, M. Caricato, X. Li, H. P. Hratchian, 
 A. F. Izmaylov, J. Bloino, G. Zheng, J. L. Sonnenberg, M. Hada, 
 M. Ehara, K. Toyota, R. Fukuda, J. Hasegawa, M. Ishida, T. Nakajima, 
 Y. Honda, O. Kitao, H. Nakai, T. Vreven, J. A. Montgomery, Jr., 
 J. E. Peralta, F. Ogliaro, M. Bearpark, J. J. Heyd, E. Brothers, 
 K. N. Kudin, V. N. Staroverov, T. Keith, R. Kobayashi, J. Normand, 
 K. Raghavachari, A. Rendell, J. C. Burant, S. S. Iyengar, J. Tomasi, 
 M. Cossi, N. Rega, J. M. Millam, M. Klene, J. E. Knox, J. B. Cross, 
 V. Bakken, C. Adamo, J. Jaramillo, R. Gomperts, R. E. Stratmann, 
 O. Yazyev, A. J. Austin, R. Cammi, C. Pomelli, J. W. Ochterski, 
 R. L. Martin, K. Morokuma, V. G. Zakrzewski, G. A. Voth, 
 P. Salvador, J. J. Dannenberg, S. Dapprich, A. D. Daniels, 
 O. Farkas, J. B. Foresman, J. V. Ortiz, J. Cioslowski, 
 and D. J. Fox, Gaussian, Inc., Wallingford CT, 2010.
 
 ******************************************
 Gaussian 09:  EM64L-G09RevC.01 23-Sep-2011
                30-Dec-2013 
 ******************************************
 %chk=98_C25H11N3OSSe2.chk
 %NProcShared=12
 Will use up to   12 processors via shared memory.
 %Mem=8000MB
 Default route:  MaxDisk=100GB
 --------------------------------------------
 #B3LYP/6-31++G(d,p) opt scf=direct freq test
 --------------------------------------------
 1/14=-1,18=20,19=15,26=3,38=1/1,3;
 2/9=110,12=2,17=6,18=5,40=1/2;
 3/5=1,6=6,7=1111,11=2,16=1,25=1,30=1,71=1,74=-5/1,2,3;
 4//1;
 5/5=2,38=5/2;
 6/7=2,8=2,9=2,10=2,28=1/1;
 7//1,2,3,16;
 1/14=-1,18=20,19=15/3(2);
 2/9=110/2;
 99//99;
 2/9=110/2;
 3/5=1,6=6,7=1111,11=2,16=1,25=1,30=1,71=1,74=-5/1,2,3;
 4/5=5,16=3/1;
 5/5=2,38=5/2;
 7//1,2,3,16;
 1/14=-1,18=20,19=15/3(-5);
 2/9=110/2;
 6/7=2,8=2,9=2,10=2,19=2,28=1/1;
 99/9=1/99;
 ----------------------------------------------------------------------
 Geom opt of No.98 candidate from the CEPDB database with SMILE code of
  [SiH2]1C=c2c(cc3c4nsnc4c4c5[SiH2]C=Cc5c5cscc5c4c3c2=C1)-c1cncs1, HPC,
  20131227, Shuo Dai, Gaussian09
 ----------------------------------------------------------------------
 Charge =  0 Multiplicity = 1
 Symbolic Z-Matrix:
 Si                    1.79433   0.37789   9.48383 
 H                     2.37544   0.47721   10.83432 
 H                     1.78034  -0.93091   8.73004 
 C                    -0.14978   0.58179   9.56829 
 C                    -0.46025   1.86233   9.8916 
 C                    -1.91133   2.19091   10.0433 
 C                    -2.43014   3.04119   9.14144 
 C                    -1.55746   3.42256   8.05152 
 C                    -1.46663   2.41617   7.02493 
 N                    -2.2038    1.30064   6.90004 
 S                    -1.30963   0.27177   5.95226 
 N                    -0.12699   1.31242   5.40741 
 C                    -0.36519   2.49516   6.01149 
 C                     0.26101   3.73618   5.87528 
 C                     0.84263   4.28904   4.69436 
 Si                    1.99771   2.92504   3.31182 
 H                     1.61412   3.36784   1.93312 
 H                     3.65467   2.86954   3.24121 
 C                     2.99859   3.28278   4.96791 
 C                     3.0894    4.6576    4.97948 
 C                     1.74668   5.36593   4.88536 
 C                     1.28682   6.43697   5.77391 
 C                     1.53599   7.70565   5.69351 
 S                     0.6102    8.52847   6.91248 
 C                     0.02912   7.00645   7.55364 
 C                     0.51898   5.89629   6.8596 
 C                     0.22122   4.53135   7.09532 
 C                    -0.28818   3.96088   8.28601 
 C                     0.46685   2.79313   9.07237 
 C                     1.65014   2.18043   8.75225 
 C                    -2.89666   1.58123   10.87894 
 C                    -3.8001    2.21269   11.71844 
 N                    -4.70888   1.41207   12.37286 
 C                    -4.52272   0.16872   11.99289 
 S                    -3.31357  -0.09147   10.80406 
 H                    -0.22333   0.4062    8.48492 
 H                    -3.48205   3.2752    9.0227 
 H                     2.44821   2.31458   5.0784 
 H                     3.49737   5.06541   4.02793 
 H                     2.14944   8.30972   4.98149 
 H                    -0.69269   7.08911   8.36626 
 H                     2.38493   2.38112   7.98786 
 H                    -3.82543   3.28462   11.87002 
 H                    -5.10634  -0.64517   12.40317 
 

 GradGradGradGradGradGradGradGradGradGradGradGradGradGradGradGradGradGrad
 Berny optimization.
 Initialization pass.
                           ----------------------------
                           !    Initial Parameters    !
                           ! (Angstroms and Degrees)  !
 --------------------------                            --------------------------
 ! Name  Definition              Value          Derivative Info.                !
 --------------------------------------------------------------------------------
 ! R1    R(1,2)                  1.4736         estimate D2E/DX2                !
 ! R2    R(1,3)                  1.5104         estimate D2E/DX2                !
 ! R3    R(1,4)                  1.9566         estimate D2E/DX2                !
 ! R4    R(1,30)                 1.9507         estimate D2E/DX2                !
 ! R5    R(4,5)                  1.3567         estimate D2E/DX2                !
 ! R6    R(4,36)                 1.1            estimate D2E/DX2                !
 ! R7    R(5,6)                  1.4955         estimate D2E/DX2                !
 ! R8    R(5,29)                 1.5482         estimate D2E/DX2                !
 ! R9    R(6,7)                  1.3437         estimate D2E/DX2                !
 ! R10   R(6,31)                 1.4286         estimate D2E/DX2                !
 ! R11   R(7,8)                  1.4474         estimate D2E/DX2                !
 ! R12   R(7,37)                 1.0841         estimate D2E/DX2                !
 ! R13   R(8,9)                  1.4405         estimate D2E/DX2                !
 ! R14   R(8,28)                 1.3985         estimate D2E/DX2                !
 ! R15   R(9,10)                 1.3429         estimate D2E/DX2                !
 ! R16   R(9,13)                 1.4988         estimate D2E/DX2                !
 ! R17   R(10,11)                1.6602         estimate D2E/DX2                !
 ! R18   R(11,12)                1.6669         estimate D2E/DX2                !
 ! R19   R(12,13)                1.3493         estimate D2E/DX2                !
 ! R20   R(13,14)                1.3967         estimate D2E/DX2                !
 ! R21   R(14,15)                1.4278         estimate D2E/DX2                !
 ! R22   R(14,27)                1.4568         estimate D2E/DX2                !
 ! R23   R(15,16)                2.2597         estimate D2E/DX2                !
 ! R24   R(15,21)                1.419          estimate D2E/DX2                !
 ! R25   R(16,17)                1.498          estimate D2E/DX2                !
 ! R26   R(16,18)                1.6594         estimate D2E/DX2                !
 ! R27   R(16,19)                1.9678         estimate D2E/DX2                !
 ! R28   R(19,20)                1.3779         estimate D2E/DX2                !
 ! R29   R(19,38)                1.1192         estimate D2E/DX2                !
 ! R30   R(20,21)                1.521          estimate D2E/DX2                !
 ! R31   R(20,39)                1.1127         estimate D2E/DX2                !
 ! R32   R(21,22)                1.4656         estimate D2E/DX2                !
 ! R33   R(22,23)                1.2954         estimate D2E/DX2                !
 ! R34   R(22,26)                1.4355         estimate D2E/DX2                !
 ! R35   R(23,24)                1.7378         estimate D2E/DX2                !
 ! R36   R(23,40)                1.1172         estimate D2E/DX2                !
 ! R37   R(24,25)                1.7508         estimate D2E/DX2                !
 ! R38   R(25,26)                1.3979         estimate D2E/DX2                !
 ! R39   R(25,41)                1.09           estimate D2E/DX2                !
 ! R40   R(26,27)                1.4168         estimate D2E/DX2                !
 ! R41   R(27,28)                1.4152         estimate D2E/DX2                !
 ! R42   R(28,29)                1.5975         estimate D2E/DX2                !
 ! R43   R(29,30)                1.3704         estimate D2E/DX2                !
 ! R44   R(30,42)                1.0791         estimate D2E/DX2                !
 ! R45   R(31,32)                1.3855         estimate D2E/DX2                !
 ! R46   R(31,35)                1.7255         estimate D2E/DX2                !
 ! R47   R(32,33)                1.3766         estimate D2E/DX2                !
 ! R48   R(32,43)                1.0829         estimate D2E/DX2                !
 ! R49   R(33,34)                1.3134         estimate D2E/DX2                !
 ! R50   R(34,35)                1.7155         estimate D2E/DX2                !
 ! R51   R(34,44)                1.0823         estimate D2E/DX2                !
 ! A1    A(2,1,3)              121.2946         estimate D2E/DX2                !
 ! A2    A(2,1,4)              110.1974         estimate D2E/DX2                !
 ! A3    A(2,1,30)             108.0944         estimate D2E/DX2                !
 ! A4    A(3,1,4)               95.8913         estimate D2E/DX2                !
 ! A5    A(3,1,30)             127.7966         estimate D2E/DX2                !
 ! A6    A(4,1,30)              81.167          estimate D2E/DX2                !
 ! A7    A(1,4,5)              109.6348         estimate D2E/DX2                !
 ! A8    A(1,4,36)              90.4176         estimate D2E/DX2                !
 ! A9    A(5,4,36)             111.7201         estimate D2E/DX2                !
 ! A10   A(4,5,6)              116.9735         estimate D2E/DX2                !
 ! A11   A(4,5,29)             107.717          estimate D2E/DX2                !
 ! A12   A(6,5,29)             120.172          estimate D2E/DX2                !
 ! A13   A(5,6,7)              116.4606         estimate D2E/DX2                !
 ! A14   A(5,6,31)             129.4044         estimate D2E/DX2                !
 ! A15   A(7,6,31)             113.3503         estimate D2E/DX2                !
 ! A16   A(6,7,8)              116.0626         estimate D2E/DX2                !
 ! A17   A(6,7,37)             125.7837         estimate D2E/DX2                !
 ! A18   A(8,7,37)             116.4654         estimate D2E/DX2                !
 ! A19   A(7,8,9)              112.9915         estimate D2E/DX2                !
 ! A20   A(7,8,28)             121.492          estimate D2E/DX2                !
 ! A21   A(9,8,28)             109.3412         estimate D2E/DX2                !
 ! A22   A(8,9,10)             127.7357         estimate D2E/DX2                !
 ! A23   A(8,9,13)             119.4326         estimate D2E/DX2                !
 ! A24   A(10,9,13)            112.5996         estimate D2E/DX2                !
 ! A25   A(9,10,11)            105.7968         estimate D2E/DX2                !
 ! A26   A(10,11,12)           100.4761         estimate D2E/DX2                !
 ! A27   A(11,12,13)           106.0015         estimate D2E/DX2                !
 ! A28   A(9,13,12)            112.7219         estimate D2E/DX2                !
 ! A29   A(9,13,14)            116.2467         estimate D2E/DX2                !
 ! A30   A(12,13,14)           130.9996         estimate D2E/DX2                !
 ! A31   A(13,14,15)           127.3985         estimate D2E/DX2                !
 ! A32   A(13,14,27)           113.0205         estimate D2E/DX2                !
 ! A33   A(15,14,27)           119.5014         estimate D2E/DX2                !
 ! A34   A(14,15,16)           118.7213         estimate D2E/DX2                !
 ! A35   A(14,15,21)           116.2364         estimate D2E/DX2                !
 ! A36   A(16,15,21)           102.403          estimate D2E/DX2                !
 ! A37   A(15,16,17)           104.7014         estimate D2E/DX2                !
 ! A38   A(15,16,18)           123.8241         estimate D2E/DX2                !
 ! A39   A(15,16,19)            68.614          estimate D2E/DX2                !
 ! A40   A(17,16,18)           103.0861         estimate D2E/DX2                !
 ! A41   A(17,16,19)           148.3268         estimate D2E/DX2                !
 ! A42   A(18,16,19)            62.2261         estimate D2E/DX2                !
 ! A43   A(16,19,20)           102.8254         estimate D2E/DX2                !
 ! A44   A(16,19,38)            71.076          estimate D2E/DX2                !
 ! A45   A(20,19,38)           153.4799         estimate D2E/DX2                !
 ! A46   A(19,20,21)           113.9517         estimate D2E/DX2                !
 ! A47   A(19,20,39)           112.4988         estimate D2E/DX2                !
 ! A48   A(21,20,39)            95.7431         estimate D2E/DX2                !
 ! A49   A(15,21,20)           102.5526         estimate D2E/DX2                !
 ! A50   A(15,21,22)           115.8678         estimate D2E/DX2                !
 ! A51   A(20,21,22)           125.435          estimate D2E/DX2                !
 ! A52   A(21,22,23)           128.1486         estimate D2E/DX2                !
 ! A53   A(21,22,26)           110.5549         estimate D2E/DX2                !
 ! A54   A(23,22,26)           121.2455         estimate D2E/DX2                !
 ! A55   A(22,23,24)           108.5241         estimate D2E/DX2                !
 ! A56   A(22,23,40)           132.4307         estimate D2E/DX2                !
 ! A57   A(24,23,40)           118.9171         estimate D2E/DX2                !
 ! A58   A(23,24,25)            91.2649         estimate D2E/DX2                !
 ! A59   A(24,25,26)           113.0957         estimate D2E/DX2                !
 ! A60   A(24,25,41)           115.2685         estimate D2E/DX2                !
 ! A61   A(26,25,41)           131.4832         estimate D2E/DX2                !
 ! A62   A(22,26,25)           105.297          estimate D2E/DX2                !
 ! A63   A(22,26,27)           126.9501         estimate D2E/DX2                !
 ! A64   A(25,26,27)           127.5065         estimate D2E/DX2                !
 ! A65   A(14,27,26)           112.3815         estimate D2E/DX2                !
 ! A66   A(14,27,28)           119.632          estimate D2E/DX2                !
 ! A67   A(26,27,28)           127.1569         estimate D2E/DX2                !
 ! A68   A(8,28,27)            109.925          estimate D2E/DX2                !
 ! A69   A(8,28,29)            103.3039         estimate D2E/DX2                !
 ! A70   A(27,28,29)           122.5953         estimate D2E/DX2                !
 ! A71   A(5,29,28)            114.6397         estimate D2E/DX2                !
 ! A72   A(5,29,30)            111.8301         estimate D2E/DX2                !
 ! A73   A(28,29,30)           128.3101         estimate D2E/DX2                !
 ! A74   A(1,30,29)            112.9143         estimate D2E/DX2                !
 ! A75   A(1,30,42)            112.7791         estimate D2E/DX2                !
 ! A76   A(29,30,42)           132.087          estimate D2E/DX2                !
 ! A77   A(6,31,32)            127.5641         estimate D2E/DX2                !
 ! A78   A(6,31,35)            123.709          estimate D2E/DX2                !
 ! A79   A(32,31,35)           108.0926         estimate D2E/DX2                !
 ! A80   A(31,32,33)           116.9636         estimate D2E/DX2                !
 ! A81   A(31,32,43)           123.4496         estimate D2E/DX2                !
 ! A82   A(33,32,43)           119.5844         estimate D2E/DX2                !
 ! A83   A(32,33,34)           108.6308         estimate D2E/DX2                !
 ! A84   A(33,34,35)           116.3573         estimate D2E/DX2                !
 ! A85   A(33,34,44)           121.7225         estimate D2E/DX2                !
 ! A86   A(35,34,44)           121.9187         estimate D2E/DX2                !
 ! A87   A(31,35,34)            89.6103         estimate D2E/DX2                !
 ! D1    D(2,1,4,5)             69.6228         estimate D2E/DX2                !
 ! D2    D(2,1,4,36)          -177.0782         estimate D2E/DX2                !
 ! D3    D(3,1,4,5)           -163.9094         estimate D2E/DX2                !
 ! D4    D(3,1,4,36)           -50.6104         estimate D2E/DX2                !
 ! D5    D(30,1,4,5)           -36.5024         estimate D2E/DX2                !
 ! D6    D(30,1,4,36)           76.7966         estimate D2E/DX2                !
 ! D7    D(2,1,30,29)          -88.3876         estimate D2E/DX2                !
 ! D8    D(2,1,30,42)          106.4294         estimate D2E/DX2                !
 ! D9    D(3,1,30,29)          110.7083         estimate D2E/DX2                !
 ! D10   D(3,1,30,42)          -54.4748         estimate D2E/DX2                !
 ! D11   D(4,1,30,29)           20.0821         estimate D2E/DX2                !
 ! D12   D(4,1,30,42)         -145.101          estimate D2E/DX2                !
 ! D13   D(1,4,5,6)           -178.1279         estimate D2E/DX2                !
 ! D14   D(1,4,5,29)            42.8803         estimate D2E/DX2                !
 ! D15   D(36,4,5,6)            83.2191         estimate D2E/DX2                !
 ! D16   D(36,4,5,29)          -55.7726         estimate D2E/DX2                !
 ! D17   D(4,5,6,7)           -113.9255         estimate D2E/DX2                !
 ! D18   D(4,5,6,31)            55.1498         estimate D2E/DX2                !
 ! D19   D(29,5,6,7)            19.7719         estimate D2E/DX2                !
 ! D20   D(29,5,6,31)         -171.1528         estimate D2E/DX2                !
 ! D21   D(4,5,29,28)          129.7724         estimate D2E/DX2                !
 ! D22   D(4,5,29,30)          -26.9263         estimate D2E/DX2                !
 ! D23   D(6,5,29,28)           -7.6623         estimate D2E/DX2                !
 ! D24   D(6,5,29,30)         -164.3611         estimate D2E/DX2                !
 ! D25   D(5,6,7,8)              6.3498         estimate D2E/DX2                !
 ! D26   D(5,6,7,37)           170.9454         estimate D2E/DX2                !
 ! D27   D(31,6,7,8)          -164.4722         estimate D2E/DX2                !
 ! D28   D(31,6,7,37)            0.1234         estimate D2E/DX2                !
 ! D29   D(5,6,31,32)          131.6776         estimate D2E/DX2                !
 ! D30   D(5,6,31,35)          -58.5631         estimate D2E/DX2                !
 ! D31   D(7,6,31,32)          -58.9719         estimate D2E/DX2                !
 ! D32   D(7,6,31,35)          110.7874         estimate D2E/DX2                !
 ! D33   D(6,7,8,9)             78.8635         estimate D2E/DX2                !
 ! D34   D(6,7,8,28)           -54.1245         estimate D2E/DX2                !
 ! D35   D(37,7,8,9)           -87.2079         estimate D2E/DX2                !
 ! D36   D(37,7,8,28)          139.8042         estimate D2E/DX2                !
 ! D37   D(7,8,9,10)             9.0965         estimate D2E/DX2                !
 ! D38   D(7,8,9,13)          -164.9333         estimate D2E/DX2                !
 ! D39   D(28,8,9,10)          147.7153         estimate D2E/DX2                !
 ! D40   D(28,8,9,13)          -26.3145         estimate D2E/DX2                !
 ! D41   D(7,8,28,27)         -166.2843         estimate D2E/DX2                !
 ! D42   D(7,8,28,29)           61.299          estimate D2E/DX2                !
 ! D43   D(9,8,28,27)           59.2497         estimate D2E/DX2                !
 ! D44   D(9,8,28,29)          -73.167          estimate D2E/DX2                !
 ! D45   D(8,9,10,11)         -158.3232         estimate D2E/DX2                !
 ! D46   D(13,9,10,11)          16.0458         estimate D2E/DX2                !
 ! D47   D(8,9,13,12)          159.572          estimate D2E/DX2                !
 ! D48   D(8,9,13,14)          -18.6054         estimate D2E/DX2                !
 ! D49   D(10,9,13,12)         -15.3162         estimate D2E/DX2                !
 ! D50   D(10,9,13,14)         166.5064         estimate D2E/DX2                !
 ! D51   D(9,10,11,12)         -11.5088         estimate D2E/DX2                !
 ! D52   D(10,11,12,13)          2.9099         estimate D2E/DX2                !
 ! D53   D(11,12,13,9)           6.0065         estimate D2E/DX2                !
 ! D54   D(11,12,13,14)       -176.1596         estimate D2E/DX2                !
 ! D55   D(9,13,14,15)        -148.9498         estimate D2E/DX2                !
 ! D56   D(9,13,14,27)          27.7551         estimate D2E/DX2                !
 ! D57   D(12,13,14,15)         33.2779         estimate D2E/DX2                !
 ! D58   D(12,13,14,27)       -150.0172         estimate D2E/DX2                !
 ! D59   D(13,14,15,16)        -39.2698         estimate D2E/DX2                !
 ! D60   D(13,14,15,21)       -162.1657         estimate D2E/DX2                !
 ! D61   D(27,14,15,16)        144.215          estimate D2E/DX2                !
 ! D62   D(27,14,15,21)         21.319          estimate D2E/DX2                !
 ! D63   D(13,14,27,26)       -163.8766         estimate D2E/DX2                !
 ! D64   D(13,14,27,28)          6.4297         estimate D2E/DX2                !
 ! D65   D(15,14,27,26)         13.1159         estimate D2E/DX2                !
 ! D66   D(15,14,27,28)       -176.5777         estimate D2E/DX2                !
 ! D67   D(14,15,16,17)        139.9608         estimate D2E/DX2                !
 ! D68   D(14,15,16,18)       -102.8088         estimate D2E/DX2                !
 ! D69   D(14,15,16,19)        -72.6685         estimate D2E/DX2                !
 ! D70   D(21,15,16,17)        -90.4966         estimate D2E/DX2                !
 ! D71   D(21,15,16,18)         26.7338         estimate D2E/DX2                !
 ! D72   D(21,15,16,19)         56.8741         estimate D2E/DX2                !
 ! D73   D(14,15,21,20)         92.0962         estimate D2E/DX2                !
 ! D74   D(14,15,21,22)        -48.0855         estimate D2E/DX2                !
 ! D75   D(16,15,21,20)        -38.9701         estimate D2E/DX2                !
 ! D76   D(16,15,21,22)       -179.1519         estimate D2E/DX2                !
 ! D77   D(15,16,19,20)        -57.127          estimate D2E/DX2                !
 ! D78   D(15,16,19,38)         96.0056         estimate D2E/DX2                !
 ! D79   D(17,16,19,20)         26.2305         estimate D2E/DX2                !
 ! D80   D(17,16,19,38)        179.3631         estimate D2E/DX2                !
 ! D81   D(18,16,19,20)         94.7446         estimate D2E/DX2                !
 ! D82   D(18,16,19,38)       -112.1228         estimate D2E/DX2                !
 ! D83   D(16,19,20,21)         55.3583         estimate D2E/DX2                !
 ! D84   D(16,19,20,39)        -52.25           estimate D2E/DX2                !
 ! D85   D(38,19,20,21)        -17.8618         estimate D2E/DX2                !
 ! D86   D(38,19,20,39)       -125.4701         estimate D2E/DX2                !
 ! D87   D(19,20,21,15)         -5.038          estimate D2E/DX2                !
 ! D88   D(19,20,21,22)        129.956          estimate D2E/DX2                !
 ! D89   D(39,20,21,15)        112.7053         estimate D2E/DX2                !
 ! D90   D(39,20,21,22)       -112.3007         estimate D2E/DX2                !
 ! D91   D(15,21,22,23)       -146.1906         estimate D2E/DX2                !
 ! D92   D(15,21,22,26)         36.4131         estimate D2E/DX2                !
 ! D93   D(20,21,22,23)         83.9074         estimate D2E/DX2                !
 ! D94   D(20,21,22,26)        -93.4889         estimate D2E/DX2                !
 ! D95   D(21,22,23,24)        174.434          estimate D2E/DX2                !
 ! D96   D(21,22,23,40)         -1.2813         estimate D2E/DX2                !
 ! D97   D(26,22,23,24)         -8.4177         estimate D2E/DX2                !
 ! D98   D(26,22,23,40)        175.867          estimate D2E/DX2                !
 ! D99   D(21,22,26,25)       -174.2791         estimate D2E/DX2                !
 ! D100  D(21,22,26,27)          0.3327         estimate D2E/DX2                !
 ! D101  D(23,22,26,25)          8.1157         estimate D2E/DX2                !
 ! D102  D(23,22,26,27)       -177.2724         estimate D2E/DX2                !
 ! D103  D(22,23,24,25)          4.5507         estimate D2E/DX2                !
 ! D104  D(40,23,24,25)       -179.0613         estimate D2E/DX2                !
 ! D105  D(23,24,25,26)         -0.2218         estimate D2E/DX2                !
 ! D106  D(23,24,25,41)       -176.2544         estimate D2E/DX2                !
 ! D107  D(24,25,26,22)         -3.6865         estimate D2E/DX2                !
 ! D108  D(24,25,26,27)       -178.2584         estimate D2E/DX2                !
 ! D109  D(41,25,26,22)        171.5225         estimate D2E/DX2                !
 ! D110  D(41,25,26,27)         -3.0494         estimate D2E/DX2                !
 ! D111  D(22,26,27,14)        -24.7092         estimate D2E/DX2                !
 ! D112  D(22,26,27,28)        165.8727         estimate D2E/DX2                !
 ! D113  D(25,26,27,14)        148.7346         estimate D2E/DX2                !
 ! D114  D(25,26,27,28)        -20.6835         estimate D2E/DX2                !
 ! D115  D(14,27,28,8)         -52.7867         estimate D2E/DX2                !
 ! D116  D(14,27,28,29)         68.7003         estimate D2E/DX2                !
 ! D117  D(26,27,28,8)         115.9478         estimate D2E/DX2                !
 ! D118  D(26,27,28,29)       -122.5652         estimate D2E/DX2                !
 ! D119  D(8,28,29,5)          -27.849          estimate D2E/DX2                !
 ! D120  D(8,28,29,30)         124.2484         estimate D2E/DX2                !
 ! D121  D(27,28,29,5)        -152.3799         estimate D2E/DX2                !
 ! D122  D(27,28,29,30)         -0.2824         estimate D2E/DX2                !
 ! D123  D(5,29,30,1)           -2.0125         estimate D2E/DX2                !
 ! D124  D(5,29,30,42)         159.4627         estimate D2E/DX2                !
 ! D125  D(28,29,30,1)        -154.7403         estimate D2E/DX2                !
 ! D126  D(28,29,30,42)          6.7349         estimate D2E/DX2                !
 ! D127  D(6,31,32,33)         176.4499         estimate D2E/DX2                !
 ! D128  D(6,31,32,43)          -2.994          estimate D2E/DX2                !
 ! D129  D(35,31,32,33)          5.4007         estimate D2E/DX2                !
 ! D130  D(35,31,32,43)       -174.0432         estimate D2E/DX2                !
 ! D131  D(6,31,35,34)        -176.774          estimate D2E/DX2                !
 ! D132  D(32,31,35,34)         -5.2998         estimate D2E/DX2                !
 ! D133  D(31,32,33,34)         -2.0955         estimate D2E/DX2                !
 ! D134  D(43,32,33,34)        177.371          estimate D2E/DX2                !
 ! D135  D(32,33,34,35)         -2.4078         estimate D2E/DX2                !
 ! D136  D(32,33,34,44)        178.0305         estimate D2E/DX2                !
 ! D137  D(33,34,35,31)          4.7037         estimate D2E/DX2                !
 ! D138  D(44,34,35,31)       -175.7355         estimate D2E/DX2                !
 --------------------------------------------------------------------------------
 Trust Radius=3.00D-01 FncErr=1.00D-07 GrdErr=1.00D-06
 Number of steps in this run=    264 maximum allowed number of steps=    264.
 GradGradGradGradGradGradGradGradGradGradGradGradGradGradGradGradGradGrad

                          Input orientation:                          
 ---------------------------------------------------------------------
 Center     Atomic      Atomic             Coordinates (Angstroms)
 Number     Number       Type             X           Y           Z
 ---------------------------------------------------------------------
      1         14           0        1.794330    0.377890    9.483830
      2          1           0        2.375440    0.477210   10.834320
      3          1           0        1.780340   -0.930910    8.730040
      4          6           0       -0.149780    0.581790    9.568290
      5          6           0       -0.460250    1.862330    9.891600
      6          6           0       -1.911330    2.190910   10.043300
      7          6           0       -2.430140    3.041190    9.141440
      8          6           0       -1.557460    3.422560    8.051520
      9          6           0       -1.466630    2.416170    7.024930
     10          7           0       -2.203800    1.300640    6.900040
     11         16           0       -1.309630    0.271770    5.952260
     12          7           0       -0.126990    1.312420    5.407410
     13          6           0       -0.365190    2.495160    6.011490
     14          6           0        0.261010    3.736180    5.875280
     15          6           0        0.842630    4.289040    4.694360
     16         14           0        1.997710    2.925040    3.311820
     17          1           0        1.614120    3.367840    1.933120
     18          1           0        3.654670    2.869540    3.241210
     19          6           0        2.998590    3.282780    4.967910
     20          6           0        3.089400    4.657600    4.979480
     21          6           0        1.746680    5.365930    4.885360
     22          6           0        1.286820    6.436970    5.773910
     23          6           0        1.535990    7.705650    5.693510
     24         16           0        0.610200    8.528470    6.912480
     25          6           0        0.029120    7.006450    7.553640
     26          6           0        0.518980    5.896290    6.859600
     27          6           0        0.221220    4.531350    7.095320
     28          6           0       -0.288180    3.960880    8.286010
     29          6           0        0.466850    2.793130    9.072370
     30          6           0        1.650140    2.180430    8.752250
     31          6           0       -2.896660    1.581230   10.878940
     32          6           0       -3.800100    2.212690   11.718440
     33          7           0       -4.708880    1.412070   12.372860
     34          6           0       -4.522720    0.168720   11.992890
     35         16           0       -3.313570   -0.091470   10.804060
     36          1           0       -0.223330    0.406200    8.484920
     37          1           0       -3.482050    3.275200    9.022700
     38          1           0        2.448210    2.314580    5.078400
     39          1           0        3.497370    5.065410    4.027930
     40          1           0        2.149440    8.309720    4.981490
     41          1           0       -0.692690    7.089110    8.366260
     42          1           0        2.384930    2.381120    7.987860
     43          1           0       -3.825430    3.284620   11.870020
     44          1           0       -5.106340   -0.645170   12.403170
 ---------------------------------------------------------------------
                    Distance matrix (angstroms):
                    1          2          3          4          5
     1  Si   0.000000
     2  H    1.473559   0.000000
     3  H    1.510415   2.600950   0.000000
     4  C    1.956597   2.826748   2.591580   0.000000
     5  C    2.730013   3.293693   3.764526   1.356725   0.000000
     6  C    4.163168   4.683896   5.009874   2.432686   1.495530
     7  C    5.005651   5.703809   5.803014   3.380960   2.415143
     8  C    4.749318   5.646837   5.527567   3.514559   2.650298
     9  C    4.564497   5.747392   4.965195   3.401136   3.088258
    10  N    4.848967   6.093114   4.919562   3.443153   3.507833
    11  S    4.702958   6.120168   4.325554   3.810123   4.332404
    12  N    4.602393   6.034160   4.439629   4.224602   4.530058
    13  C    4.604726   5.902784   4.871526   4.044529   3.932526
    14  C    5.162443   6.299506   5.678006   4.874141   4.490251
    15  C    6.256345   7.387737   6.664375   6.203529   5.881983
    16  Si   6.680048   7.919757   6.653774   7.017546   7.103832
    17  H    8.123146   9.389713   8.043942   8.316805   8.361039
    18  H    6.974202   8.063187   6.934247   7.729138   7.885095
    19  C    5.502923   6.532557   5.778662   6.194439   6.182554
    20  C    6.346833   7.229423   6.856514   6.939862   6.674015
    21  C    6.784448   7.725610   7.377865   6.958045   6.496783
    22  C    7.122747   7.893769   7.954114   7.123501   6.398043
    23  C    8.254049   8.909711   9.158078   8.282821   7.466815
    24  S    8.628207   9.127962   9.703227   8.413122   7.379596
    25  C    7.125967   7.674572   8.212939   6.735509   5.671641
    26  C    6.242262   6.972178   7.190288   6.002346   5.140501
    27  C    5.042904   5.920881   5.910960   4.674639   3.925207
    28  C    4.313866   5.071953   5.329685   3.616856   2.647912
    29  C    2.786555   3.480039   3.963700   2.348658   1.548238
    30  C    1.950679   2.786043   3.114142   2.541905   2.419308
    31  C    5.039816   5.386640   5.727386   3.203441   2.643852
    32  C    6.297430   6.475404   7.067819   4.539583   3.822917
    33  N    7.190811   7.309491   7.801902   5.416675   4.940672
    34  C    6.800313   7.001576   7.182196   5.017162   4.877233
    35  S    5.296598   5.717442   5.563644   3.462654   3.576500
    36  H    2.251572   3.504045   2.421289   1.099969   2.038429
    37  H    6.037154   6.739503   6.743127   4.319276   3.447095
    38  H    4.856556   6.042503   4.930895   5.469116   5.641858
    39  H    7.391890   8.284760   7.811138   8.006256   7.765636
    40  H    9.127491   9.780333   9.978833   9.276101   8.514018
    41  H    7.243943   7.695581   8.400532   6.639642   5.449763
    42  H    2.568981   3.424514   3.447594   3.487134   3.462430
    43  H    6.762003   6.885130   7.684714   5.110152   4.154695
    44  H    7.562304   7.726452   7.810243   5.840331   5.846511
                    6          7          8          9         10
     6  C    0.000000
     7  C    1.343686   0.000000
     8  C    2.368412   1.447390   0.000000
     9  C    3.059258   2.408032   1.440471   0.000000
    10  N    3.279970   2.846861   2.499241   1.342916   0.000000
    11  S    4.558700   4.369908   3.794178   2.402857   1.660241
    12  N    5.044511   4.715520   3.672908   2.372608   2.557581
    13  C    4.328811   3.789295   2.538366   1.498823   2.365774
    14  C    4.947657   4.288718   2.853281   2.459443   3.613485
    15  C    6.371625   5.660801   4.216840   3.777814   4.803779
    16  Si   7.818719   7.321463   5.945714   5.103703   5.759052
    17  H    8.921266   8.271796   6.891787   6.026875   6.596978
    18  H    8.815289   8.477446   7.114156   6.383557   7.083089
    19  C    7.145564   6.851848   5.503252   4.992047   5.892951
    20  C    7.532206   7.099297   5.705792   5.474055   6.555585
    21  C    7.075743   6.400348   4.971780   4.858416   6.015963
    22  C    6.817982   6.057010   4.729070   5.031239   6.311456
    23  C    7.824132   7.026777   5.785716   6.226316   7.514379
    24  S    7.504986   6.657490   5.662727   6.456476   7.756306
    25  C    5.757880   4.928728   3.950872   4.856694   6.161931
    26  C    5.456390   4.696349   3.442618   4.010139   5.341832
    27  C    4.326201   3.665637   2.303787   2.706987   4.044298
    28  C    2.975815   2.483059   1.398516   2.316289   3.559128
    29  C    2.638392   2.908411   2.352902   2.841206   3.752188
    30  C    3.788270   4.188205   3.510357   3.571199   4.365497
    31  C    1.428593   2.316901   3.630187   4.194699   4.048510
    32  C    2.524682   3.033831   4.465369   5.245524   5.157227
    33  N    3.722866   4.276536   5.713799   6.334095   6.019934
    34  C    3.835298   4.556396   5.908861   6.250707   5.709269
    35  S    2.784653   3.654903   4.796749   4.897067   4.290796
    36  H    2.909138   3.499172   3.326585   2.778011   2.689634
    37  H    2.164364   1.084147   2.160776   2.964951   3.168359
    38  H    6.608412   6.390192   5.110035   4.373245   5.097808
    39  H    8.584956   8.085841   6.666299   6.375090   7.411197
    40  H    8.919171   8.126201   6.859339   7.210100   8.471053
    41  H    5.318826   4.472728   3.780275   4.922857   6.159516
    42  H    4.766431   4.995131   4.078123   3.970262   4.838102
    43  H    2.863020   3.074287   4.443384   5.458300   5.591651
    44  H    4.880617   5.602694   6.933818   7.179468   6.518846
                   11         12         13         14         15
    11  S    0.000000
    12  N    1.666869   0.000000
    13  C    2.416389   1.349269   0.000000
    14  C    3.804599   2.498811   1.396714   0.000000
    15  C    4.727895   3.210743   2.532127   1.427763   0.000000
    16  Si   4.995024   3.392107   3.613352   3.200844   2.259673
    17  H    5.855549   4.396238   4.616529   4.184161   3.011354
    18  H    6.224345   4.627958   4.896314   4.382501   3.469034
    19  C    5.347512   3.720851   3.608936   2.919458   2.394901
    20  C    6.287549   4.660313   4.204210   3.106648   2.294582
    21  C    6.035708   4.496011   3.737577   2.417280   1.418971
    22  C    6.692014   5.328620   4.280590   2.890818   2.444655
    23  C    7.964112   6.612166   5.555610   4.173165   3.626606
    24  S    8.531170   7.408108   6.177702   4.915665   4.790287
    25  C    7.050715   6.087089   4.783873   3.683114   4.027604
    26  C    5.983503   4.851597   3.615070   2.387783   2.715928
    27  C    4.668416   3.651274   2.380049   1.456838   2.491882
    28  C    4.483222   3.914928   2.706974   2.482684   3.779731
    29  C    4.387280   3.997134   3.185916   3.339625   4.641759
    30  C    4.499241   3.885819   3.416486   3.553449   4.643789
    31  C    5.339057   6.138483   5.561985   6.296928   7.717743
    32  C    6.574074   7.357399   6.666909   7.277098   8.672017
    33  N    7.353862   8.337934   7.778673   8.504107   9.902302
    34  C    6.842790   7.999940   7.646864   8.546110   9.951510
    35  S    5.261909   6.422541   6.192926   7.191759   8.590186
    36  H    2.759073   3.209608   3.240638   4.258353   5.530015
    37  H    4.813274   5.308414   4.403483   4.912154   6.202036
    38  H    4.365554   2.782845   2.969594   2.727601   2.573687
    39  H    7.056152   5.396655   5.045797   3.956461   2.845088
    40  H    8.804328   7.370600   6.418206   5.028150   4.237460
    41  H    7.258384   6.514979   5.172676   4.284468   4.866256
    42  H    4.716227   3.756406   3.388540   3.287890   4.106822
    43  H    7.101155   7.702815   6.849736   7.269099   8.619150
    44  H    7.541222   8.807198   8.555335   9.519350  10.916154
                   16         17         18         19         20
    16  Si   0.000000
    17  H    1.498008   0.000000
    18  H    1.659392   2.474519   0.000000
    19  C    1.967835   3.336756   1.892802   0.000000
    20  C    2.640955   3.622187   2.557004   1.377864   0.000000
    21  C    2.914959   3.567304   3.546212   2.431791   1.521015
    22  C    4.347517   4.927307   4.974720   3.678139   2.654538
    23  C    5.360957   5.741362   5.821558   4.714602   3.494786
    24  S    6.803555   7.241131   7.400710   6.083011   4.986638
    25  C    6.206955   6.880549   6.989685   5.419361   4.637748
    26  C    4.858159   5.644696   5.664496   4.069077   3.417055
    27  C    4.477837   5.471950   5.422578   3.714645   3.566395
    28  C    5.571429   6.658052   6.495159   4.719371   4.777720
    29  C    5.961952   7.253648   6.646086   4.847273   5.206320
    30  C    5.502138   6.921833   5.904623   4.165900   4.737260
    31  C    9.111640  10.176778  10.144683   8.519948   8.949894
    32  C   10.236860  11.242804  11.307894   9.640380   9.942654
    33  N   11.374088  12.360968  12.468369  10.850711  11.225360
    34  C   11.201530  12.210411  12.278275  10.752573  11.281947
    35  S    9.666576  10.721125  10.701432   9.235235   9.873066
    36  H    6.167539   7.421160   6.971615   5.569995   6.429362
    37  H    7.922407   8.731648   9.193637   7.644611   7.838534
    38  H    1.922607   3.420212   2.266891   1.119168   2.431183
    39  H    2.709793   3.288861   2.337844   2.076081   1.112743
    40  H    5.639645   5.831064   5.906763   5.098173   3.771142
    41  H    7.079908   7.781678   7.935392   6.297815   5.629096
    42  H    4.723467   6.182851   4.937761   3.210867   3.837837
    43  H   10.357656  11.328619  11.427185   9.705997   9.857966
    44  H   12.077523  13.072520  13.154847  11.679117  12.263796
                   21         22         23         24         25
    21  C    0.000000
    22  C    1.465646   0.000000
    23  C    2.484308   1.295415   0.000000
    24  S    3.924597   2.475587   1.737817   0.000000
    25  C    3.572259   2.252455   2.493917   1.750796   0.000000
    26  C    2.384565   1.435492   2.380727   2.634291   1.397895
    27  C    2.812023   2.552061   3.710778   4.020162   2.524496
    28  C    4.204669   3.862938   4.906318   4.853509   3.148419
    29  C    5.078220   4.982947   6.057442   6.130236   4.500024
    30  C    5.010945   5.207748   6.316405   6.690579   5.230186
    31  C    8.473934   8.193964   9.167638   8.734702   7.003629
    32  C    9.348833   8.891498   9.744037   9.079486   7.415431
    33  N   10.647531  10.234460  11.100508  10.428399   8.773290
    34  C   10.808948  10.569646  11.541034  11.047301   9.337063
    35  S    9.508962   9.438566  10.508617  10.239323   8.492307
    36  H    6.437134   6.782353   8.010565   8.314963   6.670406
    37  H    6.987729   6.579783   7.476170   6.985441   5.329979
    38  H    3.136901   4.338970   5.502194   6.734579   5.830305
    39  H    1.972413   3.133074   3.686738   5.352491   5.312911
    40  H    2.972769   2.208899   1.117226   2.479079   3.579137
    41  H    4.586561   3.326263   3.534222   2.425439   1.090043
    42  H    4.352236   4.749457   5.859638   6.488145   5.208845
    43  H    9.174189   8.557743   9.297290   8.470536   6.880459
    44  H   11.815865  11.617930  12.604613  12.123621  10.413365
                   26         27         28         29         30
    26  C    0.000000
    27  C    1.416787   0.000000
    28  C    2.536132   1.415156   0.000000
    29  C    3.811649   2.643950   1.597521   0.000000
    30  C    4.320794   3.211550   2.672913   1.370421   0.000000
    31  C    6.814795   5.721902   4.380661   4.005695   5.055219
    32  C    7.472060   6.551369   5.212612   5.054252   6.205195
    33  N    8.822402   7.866907   6.537688   6.291959   7.357739
    34  C    9.196438   8.094671   6.786219   6.349234   7.256234
    35  S    8.130220   6.900722   5.649345   5.060755   5.831798
    36  H    5.773541   4.375554   3.560831   2.553210   2.594079
    37  H    5.249510   4.359692   3.348683   3.978526   5.254621
    38  H    4.441086   3.733834   4.526245   4.484038   3.761926
    39  H    4.192794   4.519653   5.803587   6.308223   5.835629
    40  H    3.465594   4.739450   5.981158   7.071009   7.213607
    41  H    2.271781   2.998776   3.155296   4.505393   5.452796
    42  H    4.136564   3.178326   3.119303   2.241639   1.079113
    43  H    7.127344   6.381808   5.080806   5.147045   6.396999
    44  H   10.255052   9.129760   7.834626   7.346876   8.183108
                   31         32         33         34         35
    31  C    0.000000
    32  C    1.385534   0.000000
    33  N    2.354688   1.376640   0.000000
    34  C    2.424900   2.185250   1.313374   0.000000
    35  S    1.725499   2.526253   2.582374   1.715535   0.000000
    36  H    3.776072   5.149014   6.020632   5.554008   3.895596
    37  H    2.580280   2.914978   4.024915   4.422131   3.812623
    38  H    7.921597   9.118218  10.259026  10.050311   8.471739
    39  H    9.997973  10.978844  12.260803  12.318279  10.904048
    40  H   10.272080  10.860815  12.216648  12.647266  11.589944
    41  H    6.442654   6.683755   8.025672   8.701343   8.023254
    42  H    6.073990   7.224970   8.395798   8.285566   6.820380
    43  H    2.178621   1.082891   2.130675   3.195331   3.577185
    44  H    3.487523   3.215973   2.095502   1.082293   2.465311
                   36         37         38         39         40
    36  H    0.000000
    37  H    4.374886   0.000000
    38  H    4.731112   7.186674   0.000000
    39  H    7.444233   8.767262   3.125906   0.000000
    40  H    8.964914   8.566881   6.003362   3.640294   0.000000
    41  H    6.700423   4.770467   6.593285   6.361845   4.585222
    42  H    3.309139   6.024262   2.910909   4.911617   6.651467
    43  H    5.720081   2.867966   9.296539  10.876258  10.411654
    44  H    6.348374   5.425421  10.930855  13.295834  13.708309
                   41         42         43         44
    41  H    0.000000
    42  H    5.637384   0.000000
    43  H    6.046862   7.379434   0.000000
    44  H    9.777323   9.207199   4.167521   0.000000
 Stoichiometry    C23H13N3S3Si2
 Framework group  C1[X(C23H13N3S3Si2)]
 Deg. of freedom   126
 Full point group                 C1      NOp   1
 Largest Abelian subgroup         C1      NOp   1
 Largest concise Abelian subgroup C1      NOp   1
                         Standard orientation:                         
 ---------------------------------------------------------------------
 Center     Atomic      Atomic             Coordinates (Angstroms)
 Number     Number       Type             X           Y           Z
 ---------------------------------------------------------------------
      1         14           0       -1.516223   -1.958927    2.928811
      2          1           0       -2.022638   -1.418833    4.202867
      3          1           0       -1.774463   -3.391568    2.526065
      4          6           0       -2.473179   -1.151961    1.425045
      5          6           0       -2.124454    0.154201    1.310876
      6          6           0       -2.796614    0.944080    0.233424
      7          6           0       -2.012509    1.381024   -0.766452
      8          6           0       -0.642845    0.913340   -0.751313
      9          6           0       -0.501580   -0.430376   -1.250742
     10          7           0       -1.433125   -1.184008   -1.857114
     11         16           0       -0.934700   -2.756501   -1.669398
     12          7           0        0.617474   -2.517804   -1.110621
     13          6           0        0.769051   -1.182277   -0.992648
     14          6           0        1.880418   -0.413936   -0.638632
     15          6           0        3.252387   -0.693218   -0.918290
     16         14           0        3.978130   -2.828019   -0.769812
     17          1           0        4.910180   -2.994306   -1.930698
     18          1           0        4.859231   -3.417412    0.506848
     19          6           0        3.640342   -2.059523    1.009988
     20          6           0        4.451875   -0.946063    1.021402
     21          6           0        4.207164    0.008280   -0.137405
     22          6           0        3.997630    1.453942   -0.017929
     23          6           0        4.891451    2.387560    0.068900
     24         16           0        4.086923    3.927448    0.030310
     25          6           0        2.517618    3.151197    0.031542
     26          6           0        2.596140    1.755716    0.055531
     27          6           0        1.523261    0.830782    0.028820
     28          6           0        0.172930    1.077883    0.372645
     29          6           0       -0.591637    0.251408    1.505980
     30          6           0       -0.110993   -0.770206    2.282729
     31          6           0       -4.190235    1.137874   -0.013845
     32          6           0       -4.847057    2.333785   -0.254865
     33          7           0       -6.191533    2.260766   -0.541554
     34          6           0       -6.548090    0.996887   -0.562282
     35         16           0       -5.298930   -0.151158   -0.308015
     36          1           0       -1.915324   -1.785379    0.719700
     37          1           0       -2.355422    1.842291   -1.685701
     38          1           0        2.738227   -2.637920    0.687213
     39          1           0        5.504480   -1.183538    0.749699
     40          1           0        6.008061    2.361951    0.095745
     41          1           0        1.665126    3.825045   -0.054374
     42          1           0        0.876349   -1.191180    2.394181
     43          1           0       -4.356050    3.298778   -0.236091
     44          1           0       -7.573293    0.697625   -0.737669
 ---------------------------------------------------------------------
 Rotational constants (GHZ):      0.1993722      0.0817767      0.0687725
 Standard basis: 6-31++G(d,p) (6D, 7F)
 There are   687 symmetry adapted basis functions of A   symmetry.
 Integral buffers will be    131072 words long.
 Raffenetti 2 integral format.
 Two-electron integral symmetry is turned on.
   687 basis functions,  1216 primitive gaussians,   687 cartesian basis functions
   124 alpha electrons      124 beta electrons
       nuclear repulsion energy      3744.5912563639 Hartrees.
 NAtoms=   44 NActive=   44 NUniq=   44 SFac= 1.00D+00 NAtFMM=   60 NAOKFM=F Big=F
 One-electron integrals computed using PRISM.
 NBasis=   687 RedAO= T  NBF=   687
 NBsUse=   678 1.00D-06 NBFU=   678
 Harris functional with IExCor=  402 diagonalized for initial guess.
 ExpMin= 3.31D-02 ExpMax= 2.19D+04 ExpMxC= 3.30D+03 IAcc=3 IRadAn=         5 AccDes= 0.00D+00
 HarFok:  IExCor=  402 AccDes= 0.00D+00 IRadAn=         5 IDoV= 1
 ScaDFX=  1.000000  1.000000  1.000000  1.000000
 FoFCou: FMM=F IPFlag=           0 FMFlag=      100000 FMFlg1=           0
         NFxFlg=           0 DoJE=T BraDBF=F KetDBF=T FulRan=T
         Omega=  0.000000  0.000000  1.000000  0.000000  0.000000 ICntrl=     500 IOpCl=  0
         NMat0=    1 NMatS0=    1 NMatT0=    0 NMatD0=    1 NMtDS0=    0 NMtDT0=    0
         I1Cent=           4 NGrid=           0.
 Petite list used in FoFCou.
 Initial guess orbital symmetries:
       Occupied  (A) (A) (A) (A) (A) (A) (A) (A) (A) (A) (A) (A)
                 (A) (A) (A) (A) (A) (A) (A) (A) (A) (A) (A) (A)
                 (A) (A) (A) (A) (A) (A) (A) (A) (A) (A) (A) (A)
                 (A) (A) (A) (A) (A) (A) (A) (A) (A) (A) (A) (A)
                 (A) (A) (A) (A) (A) (A) (A) (A) (A) (A) (A) (A)
                 (A) (A) (A) (A) (A) (A) (A) (A) (A) (A) (A) (A)
                 (A) (A) (A) (A) (A) (A) (A) (A) (A) (A) (A) (A)
                 (A) (A) (A) (A) (A) (A) (A) (A) (A) (A) (A) (A)
                 (A) (A) (A) (A) (A) (A) (A) (A) (A) (A) (A) (A)
                 (A) (A) (A) (A) (A) (A) (A) (A) (A) (A) (A) (A)
                 (A) (A) (A) (A)
       Virtual   (A) (A) (A) (A) (A) (A) (A) (A) (A) (A) (A) (A)
                 (A) (A) (A) (A) (A) (A) (A) (A) (A) (A) (A) (A)
                 (A) (A) (A) (A) (A) (A) (A) (A) (A) (A) (A) (A)
                 (A) (A) (A) (A) (A) (A) (A) (A) (A) (A) (A) (A)
                 (A) (A) (A) (A) (A) (A) (A) (A) (A) (A) (A) (A)
                 (A) (A) (A) (A) (A) (A) (A) (A) (A) (A) (A) (A)
                 (A) (A) (A) (A) (A) (A) (A) (A) (A) (A) (A) (A)
                 (A) (A) (A) (A) (A) (A) (A) (A) (A) (A) (A) (A)
                 (A) (A) (A) (A) (A) (A) (A) (A) (A) (A) (A) (A)
                 (A) (A) (A) (A) (A) (A) (A) (A) (A) (A) (A) (A)
                 (A) (A) (A) (A) (A) (A) (A) (A) (A) (A) (A) (A)
                 (A) (A) (A) (A) (A) (A) (A) (A) (A) (A) (A) (A)
                 (A) (A) (A) (A) (A) (A) (A) (A) (A) (A) (A) (A)
                 (A) (A) (A) (A) (A) (A) (A) (A) (A) (A) (A) (A)
                 (A) (A) (A) (A) (A) (A) (A) (A) (A) (A) (A) (A)
                 (A) (A) (A) (A) (A) (A) (A) (A) (A) (A) (A) (A)
                 (A) (A) (A) (A) (A) (A) (A) (A) (A) (A) (A) (A)
                 (A) (A) (A) (A) (A) (A) (A) (A) (A) (A) (A) (A)
                 (A) (A) (A) (A) (A) (A) (A) (A) (A) (A) (A) (A)
                 (A) (A) (A) (A) (A) (A) (A) (A) (A) (A) (A) (A)
                 (A) (A) (A) (A) (A) (A) (A) (A) (A) (A) (A) (A)
                 (A) (A) (A) (A) (A) (A) (A) (A) (A) (A) (A) (A)
                 (A) (A) (A) (A) (A) (A) (A) (A) (A) (A) (A) (A)
                 (A) (A) (A) (A) (A) (A) (A) (A) (A) (A) (A) (A)
                 (A) (A) (A) (A) (A) (A) (A) (A) (A) (A) (A) (A)
                 (A) (A) (A) (A) (A) (A) (A) (A) (A) (A) (A) (A)
                 (A) (A) (A) (A) (A) (A) (A) (A) (A) (A) (A) (A)
                 (A) (A) (A) (A) (A) (A) (A) (A) (A) (A) (A) (A)
                 (A) (A) (A) (A) (A) (A) (A) (A) (A) (A) (A) (A)
                 (A) (A) (A) (A) (A) (A) (A) (A) (A) (A) (A) (A)
                 (A) (A) (A) (A) (A) (A) (A) (A) (A) (A) (A) (A)
                 (A) (A) (A) (A) (A) (A) (A) (A) (A) (A) (A) (A)
                 (A) (A) (A) (A) (A) (A) (A) (A) (A) (A) (A) (A)
                 (A) (A) (A) (A) (A) (A) (A) (A) (A) (A) (A) (A)
                 (A) (A) (A) (A) (A) (A) (A) (A) (A) (A) (A) (A)
                 (A) (A) (A) (A) (A) (A) (A) (A) (A) (A) (A) (A)
                 (A) (A) (A) (A) (A) (A) (A) (A) (A) (A) (A) (A)
                 (A) (A) (A) (A) (A) (A) (A) (A) (A) (A) (A) (A)
                 (A) (A) (A) (A) (A) (A) (A) (A) (A) (A) (A) (A)
                 (A) (A) (A) (A) (A) (A) (A) (A) (A) (A) (A) (A)
                 (A) (A) (A) (A) (A) (A) (A) (A) (A) (A) (A) (A)
                 (A) (A) (A) (A) (A) (A) (A) (A) (A) (A) (A) (A)
                 (A) (A) (A) (A) (A) (A) (A) (A) (A) (A) (A) (A)
                 (A) (A) (A) (A) (A) (A) (A) (A) (A) (A) (A) (A)
                 (A) (A) (A) (A) (A) (A) (A) (A) (A) (A) (A) (A)
                 (A) (A) (A) (A) (A) (A) (A) (A) (A) (A) (A) (A)
                 (A) (A)
 The electronic state of the initial guess is 1-A.
 Requested convergence on RMS density matrix=1.00D-08 within 128 cycles.
 Requested convergence on MAX density matrix=1.00D-06.
 Requested convergence on             energy=1.00D-06.
 No special actions if energy rises.
 Rare condition: small coef for last iteration:  0.000D+00
 EnCoef did   100 forward-backward iterations
 EnCoef did   100 forward-backward iterations
 EnCoef did   100 forward-backward iterations
 EnCoef did     3 forward-backward iterations
 EnCoef did    13 forward-backward iterations
 EnCoef did     5 forward-backward iterations
 Restarting incremental Fock formation.
 SCF Done:  E(RB3LYP) =  -2821.28925966     A.U. after   35 cycles
             Convg  =    0.2729D-08             -V/T =  2.0055

 **********************************************************************

            Population analysis using the SCF density.

 **********************************************************************

 Orbital symmetries:
       Occupied  (A) (A) (A) (A) (A) (A) (A) (A) (A) (A) (A) (A)
                 (A) (A) (A) (A) (A) (A) (A) (A) (A) (A) (A) (A)
                 (A) (A) (A) (A) (A) (A) (A) (A) (A) (A) (A) (A)
                 (A) (A) (A) (A) (A) (A) (A) (A) (A) (A) (A) (A)
                 (A) (A) (A) (A) (A) (A) (A) (A) (A) (A) (A) (A)
                 (A) (A) (A) (A) (A) (A) (A) (A) (A) (A) (A) (A)
                 (A) (A) (A) (A) (A) (A) (A) (A) (A) (A) (A) (A)
                 (A) (A) (A) (A) (A) (A) (A) (A) (A) (A) (A) (A)
                 (A) (A) (A) (A) (A) (A) (A) (A) (A) (A) (A) (A)
                 (A) (A) (A) (A) (A) (A) (A) (A) (A) (A) (A) (A)
                 (A) (A) (A) (A)
       Virtual   (A) (A) (A) (A) (A) (A) (A) (A) (A) (A) (A) (A)
                 (A) (A) (A) (A) (A) (A) (A) (A) (A) (A) (A) (A)
                 (A) (A) (A) (A) (A) (A) (A) (A) (A) (A) (A) (A)
                 (A) (A) (A) (A) (A) (A) (A) (A) (A) (A) (A) (A)
                 (A) (A) (A) (A) (A) (A) (A) (A) (A) (A) (A) (A)
                 (A) (A) (A) (A) (A) (A) (A) (A) (A) (A) (A) (A)
                 (A) (A) (A) (A) (A) (A) (A) (A) (A) (A) (A) (A)
                 (A) (A) (A) (A) (A) (A) (A) (A) (A) (A) (A) (A)
                 (A) (A) (A) (A) (A) (A) (A) (A) (A) (A) (A) (A)
                 (A) (A) (A) (A) (A) (A) (A) (A) (A) (A) (A) (A)
                 (A) (A) (A) (A) (A) (A) (A) (A) (A) (A) (A) (A)
                 (A) (A) (A) (A) (A) (A) (A) (A) (A) (A) (A) (A)
                 (A) (A) (A) (A) (A) (A) (A) (A) (A) (A) (A) (A)
                 (A) (A) (A) (A) (A) (A) (A) (A) (A) (A) (A) (A)
                 (A) (A) (A) (A) (A) (A) (A) (A) (A) (A) (A) (A)
                 (A) (A) (A) (A) (A) (A) (A) (A) (A) (A) (A) (A)
                 (A) (A) (A) (A) (A) (A) (A) (A) (A) (A) (A) (A)
                 (A) (A) (A) (A) (A) (A) (A) (A) (A) (A) (A) (A)
                 (A) (A) (A) (A) (A) (A) (A) (A) (A) (A) (A) (A)
                 (A) (A) (A) (A) (A) (A) (A) (A) (A) (A) (A) (A)
                 (A) (A) (A) (A) (A) (A) (A) (A) (A) (A) (A) (A)
                 (A) (A) (A) (A) (A) (A) (A) (A) (A) (A) (A) (A)
                 (A) (A) (A) (A) (A) (A) (A) (A) (A) (A) (A) (A)
                 (A) (A) (A) (A) (A) (A) (A) (A) (A) (A) (A) (A)
                 (A) (A) (A) (A) (A) (A) (A) (A) (A) (A) (A) (A)
                 (A) (A) (A) (A) (A) (A) (A) (A) (A) (A) (A) (A)
                 (A) (A) (A) (A) (A) (A) (A) (A) (A) (A) (A) (A)
                 (A) (A) (A) (A) (A) (A) (A) (A) (A) (A) (A) (A)
                 (A) (A) (A) (A) (A) (A) (A) (A) (A) (A) (A) (A)
                 (A) (A) (A) (A) (A) (A) (A) (A) (A) (A) (A) (A)
                 (A) (A) (A) (A) (A) (A) (A) (A) (A) (A) (A) (A)
                 (A) (A) (A) (A) (A) (A) (A) (A) (A) (A) (A) (A)
                 (A) (A) (A) (A) (A) (A) (A) (A) (A) (A) (A) (A)
                 (A) (A) (A) (A) (A) (A) (A) (A) (A) (A) (A) (A)
                 (A) (A) (A) (A) (A) (A) (A) (A) (A) (A) (A) (A)
                 (A) (A) (A) (A) (A) (A) (A) (A) (A) (A) (A) (A)
                 (A) (A) (A) (A) (A) (A) (A) (A) (A) (A) (A) (A)
                 (A) (A) (A) (A) (A) (A) (A) (A) (A) (A) (A) (A)
                 (A) (A) (A) (A) (A) (A) (A) (A) (A) (A) (A) (A)
                 (A) (A) (A) (A) (A) (A) (A) (A) (A) (A) (A) (A)
                 (A) (A) (A) (A) (A) (A) (A) (A) (A) (A) (A) (A)
                 (A) (A) (A) (A) (A) (A) (A) (A) (A) (A) (A) (A)
                 (A) (A) (A) (A) (A) (A) (A) (A) (A) (A) (A) (A)
                 (A) (A) (A) (A) (A) (A) (A) (A) (A) (A) (A) (A)
                 (A) (A) (A) (A) (A) (A) (A) (A) (A) (A) (A) (A)
                 (A) (A) (A) (A) (A) (A) (A) (A) (A) (A) (A) (A)
                 (A) (A)
 The electronic state is 1-A.
 Alpha  occ. eigenvalues --  -88.98113 -88.93498 -88.92701 -66.17871 -66.15052
 Alpha  occ. eigenvalues --  -14.39337 -14.38932 -14.34700 -10.28373 -10.27580
 Alpha  occ. eigenvalues --  -10.27392 -10.26803 -10.25792 -10.25742 -10.25282
 Alpha  occ. eigenvalues --  -10.25154 -10.24560 -10.24295 -10.24078 -10.23733
 Alpha  occ. eigenvalues --  -10.23663 -10.23618 -10.23152 -10.23090 -10.22995
 Alpha  occ. eigenvalues --  -10.22655 -10.22619 -10.22238 -10.21972 -10.21031
 Alpha  occ. eigenvalues --  -10.18035  -8.03417  -7.99401  -7.98670  -6.00027
 Alpha  occ. eigenvalues --   -5.99438  -5.99069  -5.95795  -5.95429  -5.95169
 Alpha  occ. eigenvalues --   -5.95060  -5.94696  -5.94424  -5.32098  -5.29774
 Alpha  occ. eigenvalues --   -3.68211  -3.67834  -3.67766  -3.65729  -3.65593
 Alpha  occ. eigenvalues --   -3.65533  -1.02739  -0.96993  -0.93614  -0.92301
 Alpha  occ. eigenvalues --   -0.90537  -0.88088  -0.86846  -0.83714  -0.82159
 Alpha  occ. eigenvalues --   -0.79606  -0.79473  -0.77662  -0.75143  -0.74257
 Alpha  occ. eigenvalues --   -0.72748  -0.71303  -0.68573  -0.66694  -0.65812
 Alpha  occ. eigenvalues --   -0.63706  -0.62436  -0.59938  -0.58964  -0.58502
 Alpha  occ. eigenvalues --   -0.57060  -0.56740  -0.55871  -0.54231  -0.53220
 Alpha  occ. eigenvalues --   -0.52571  -0.51774  -0.51281  -0.50274  -0.49288
 Alpha  occ. eigenvalues --   -0.48928  -0.48204  -0.46965  -0.45647  -0.45255
 Alpha  occ. eigenvalues --   -0.44842  -0.44312  -0.43341  -0.42949  -0.41979
 Alpha  occ. eigenvalues --   -0.41407  -0.41088  -0.40638  -0.40102  -0.39338
 Alpha  occ. eigenvalues --   -0.38437  -0.37882  -0.37452  -0.37017  -0.36752
 Alpha  occ. eigenvalues --   -0.35651  -0.34811  -0.33949  -0.33779  -0.33039
 Alpha  occ. eigenvalues --   -0.31668  -0.31561  -0.29812  -0.28930  -0.28572
 Alpha  occ. eigenvalues --   -0.28310  -0.27414  -0.26776  -0.25459  -0.24698
 Alpha  occ. eigenvalues --   -0.23073  -0.22541  -0.18950  -0.18168
 Alpha virt. eigenvalues --   -0.14124  -0.13447  -0.12759  -0.12431  -0.08868
 Alpha virt. eigenvalues --   -0.07157  -0.04897  -0.03912  -0.03320  -0.02983
 Alpha virt. eigenvalues --   -0.02101  -0.01566  -0.01194  -0.00805  -0.00292
 Alpha virt. eigenvalues --   -0.00071   0.00240   0.00602   0.00772   0.01006
 Alpha virt. eigenvalues --    0.01586   0.01711   0.01980   0.02097   0.02454
 Alpha virt. eigenvalues --    0.02952   0.03097   0.03159   0.03613   0.03861
 Alpha virt. eigenvalues --    0.04041   0.04130   0.04199   0.04707   0.04824
 Alpha virt. eigenvalues --    0.05233   0.05410   0.05689   0.05759   0.06282
 Alpha virt. eigenvalues --    0.06393   0.06733   0.07264   0.07478   0.07727
 Alpha virt. eigenvalues --    0.08128   0.08358   0.08770   0.09002   0.09167
 Alpha virt. eigenvalues --    0.09305   0.09534   0.09998   0.10071   0.10294
 Alpha virt. eigenvalues --    0.10613   0.10765   0.10961   0.11058   0.11127
 Alpha virt. eigenvalues --    0.11333   0.11650   0.11827   0.11953   0.12386
 Alpha virt. eigenvalues --    0.12410   0.12588   0.12620   0.12843   0.12979
 Alpha virt. eigenvalues --    0.13268   0.13617   0.13669   0.13945   0.14449
 Alpha virt. eigenvalues --    0.14542   0.14888   0.15084   0.15380   0.15539
 Alpha virt. eigenvalues --    0.15789   0.15910   0.16005   0.16518   0.16588
 Alpha virt. eigenvalues --    0.16835   0.17027   0.17342   0.17381   0.17886
 Alpha virt. eigenvalues --    0.17931   0.18311   0.18682   0.19018   0.19224
 Alpha virt. eigenvalues --    0.19420   0.19583   0.19752   0.19851   0.20230
 Alpha virt. eigenvalues --    0.20384   0.20653   0.20866   0.20951   0.21168
 Alpha virt. eigenvalues --    0.21441   0.21537   0.21810   0.22026   0.22203
 Alpha virt. eigenvalues --    0.22658   0.22840   0.22969   0.23386   0.23438
 Alpha virt. eigenvalues --    0.23775   0.24019   0.24240   0.24719   0.24726
 Alpha virt. eigenvalues --    0.24948   0.25309   0.25420   0.25913   0.26042
 Alpha virt. eigenvalues --    0.26342   0.26386   0.26675   0.26929   0.27218
 Alpha virt. eigenvalues --    0.27390   0.27529   0.28109   0.28287   0.28455
 Alpha virt. eigenvalues --    0.28516   0.28790   0.29174   0.29328   0.29627
 Alpha virt. eigenvalues --    0.29809   0.30036   0.30211   0.30480   0.30875
 Alpha virt. eigenvalues --    0.31154   0.31459   0.31572   0.31890   0.32287
 Alpha virt. eigenvalues --    0.32425   0.32619   0.32936   0.33085   0.33515
 Alpha virt. eigenvalues --    0.33619   0.33924   0.34309   0.34641   0.34936
 Alpha virt. eigenvalues --    0.35280   0.35519   0.35823   0.36226   0.36578
 Alpha virt. eigenvalues --    0.36678   0.37577   0.37866   0.38716   0.38749
 Alpha virt. eigenvalues --    0.39364   0.39773   0.39876   0.40166   0.40488
 Alpha virt. eigenvalues --    0.40787   0.40857   0.41718   0.42419   0.42654
 Alpha virt. eigenvalues --    0.43355   0.43719   0.44107   0.44450   0.45193
 Alpha virt. eigenvalues --    0.45524   0.45996   0.46312   0.47447   0.47735
 Alpha virt. eigenvalues --    0.48107   0.48742   0.49412   0.50014   0.50736
 Alpha virt. eigenvalues --    0.51260   0.52037   0.52373   0.53899   0.55120
 Alpha virt. eigenvalues --    0.55327   0.55877   0.56021   0.57330   0.57834
 Alpha virt. eigenvalues --    0.58384   0.58972   0.60299   0.61660   0.61871
 Alpha virt. eigenvalues --    0.62686   0.63396   0.64065   0.65125   0.65393
 Alpha virt. eigenvalues --    0.65880   0.66063   0.66431   0.67019   0.67548
 Alpha virt. eigenvalues --    0.68410   0.68705   0.69097   0.69456   0.70505
 Alpha virt. eigenvalues --    0.71060   0.71831   0.72714   0.73104   0.73401
 Alpha virt. eigenvalues --    0.74074   0.74688   0.74926   0.75534   0.75960
 Alpha virt. eigenvalues --    0.76680   0.77506   0.77871   0.78029   0.78300
 Alpha virt. eigenvalues --    0.79004   0.79596   0.79784   0.80588   0.81038
 Alpha virt. eigenvalues --    0.81581   0.81951   0.82196   0.82374   0.82927
 Alpha virt. eigenvalues --    0.83083   0.83558   0.84081   0.84465   0.84999
 Alpha virt. eigenvalues --    0.85210   0.85873   0.86200   0.86485   0.87201
 Alpha virt. eigenvalues --    0.87741   0.88583   0.88975   0.89601   0.90065
 Alpha virt. eigenvalues --    0.90450   0.91189   0.91415   0.92025   0.92612
 Alpha virt. eigenvalues --    0.92912   0.93721   0.94569   0.94760   0.95637
 Alpha virt. eigenvalues --    0.96027   0.96230   0.96387   0.97035   0.97477
 Alpha virt. eigenvalues --    0.98205   0.98467   0.99331   0.99485   0.99997
 Alpha virt. eigenvalues --    1.00319   1.01148   1.01455   1.02336   1.02902
 Alpha virt. eigenvalues --    1.03463   1.03876   1.04441   1.04794   1.05006
 Alpha virt. eigenvalues --    1.05808   1.06205   1.07103   1.07881   1.08531
 Alpha virt. eigenvalues --    1.08811   1.09449   1.09675   1.10929   1.11791
 Alpha virt. eigenvalues --    1.11965   1.12979   1.13009   1.13953   1.14586
 Alpha virt. eigenvalues --    1.15773   1.16305   1.17067   1.17296   1.18466
 Alpha virt. eigenvalues --    1.18643   1.18848   1.20295   1.20842   1.21951
 Alpha virt. eigenvalues --    1.22282   1.22363   1.23748   1.24247   1.24409
 Alpha virt. eigenvalues --    1.25217   1.26980   1.27995   1.28245   1.30071
 Alpha virt. eigenvalues --    1.30947   1.31713   1.32091   1.32912   1.33055
 Alpha virt. eigenvalues --    1.34396   1.35232   1.36452   1.38283   1.38813
 Alpha virt. eigenvalues --    1.39069   1.39545   1.40015   1.40323   1.42018
 Alpha virt. eigenvalues --    1.42432   1.44225   1.44925   1.45284   1.47338
 Alpha virt. eigenvalues --    1.48339   1.49950   1.50290   1.50899   1.51806
 Alpha virt. eigenvalues --    1.54581   1.55171   1.57350   1.57774   1.60080
 Alpha virt. eigenvalues --    1.61121   1.61375   1.62075   1.62543   1.63500
 Alpha virt. eigenvalues --    1.64450   1.64791   1.67087   1.68827   1.69602
 Alpha virt. eigenvalues --    1.70114   1.71701   1.72527   1.73165   1.73968
 Alpha virt. eigenvalues --    1.74486   1.75233   1.77157   1.77343   1.78452
 Alpha virt. eigenvalues --    1.79053   1.80499   1.81001   1.81838   1.82481
 Alpha virt. eigenvalues --    1.84019   1.84773   1.86634   1.87282   1.87970
 Alpha virt. eigenvalues --    1.89210   1.89788   1.90551   1.91028   1.93243
 Alpha virt. eigenvalues --    1.93673   1.94252   1.95912   1.96491   1.97569
 Alpha virt. eigenvalues --    1.99234   1.99950   2.00620   2.00916   2.01481
 Alpha virt. eigenvalues --    2.02714   2.03178   2.05985   2.06629   2.07290
 Alpha virt. eigenvalues --    2.08642   2.09385   2.09655   2.11004   2.12039
 Alpha virt. eigenvalues --    2.12341   2.12857   2.13578   2.13896   2.14876
 Alpha virt. eigenvalues --    2.15280   2.15539   2.16518   2.16644   2.17453
 Alpha virt. eigenvalues --    2.18777   2.20095   2.21172   2.21518   2.22394
 Alpha virt. eigenvalues --    2.22932   2.24494   2.25868   2.26441   2.26657
 Alpha virt. eigenvalues --    2.27327   2.27996   2.29144   2.30774   2.31174
 Alpha virt. eigenvalues --    2.31638   2.32576   2.33513   2.34850   2.34999
 Alpha virt. eigenvalues --    2.36413   2.37417   2.38671   2.39622   2.40432
 Alpha virt. eigenvalues --    2.41484   2.41691   2.43067   2.44109   2.45012
 Alpha virt. eigenvalues --    2.45222   2.47235   2.48364   2.48780   2.50123
 Alpha virt. eigenvalues --    2.51619   2.51941   2.52694   2.52951   2.53881
 Alpha virt. eigenvalues --    2.54257   2.55107   2.56344   2.56753   2.57738
 Alpha virt. eigenvalues --    2.58135   2.58729   2.59659   2.60220   2.61576
 Alpha virt. eigenvalues --    2.62172   2.63206   2.63355   2.64547   2.65229
 Alpha virt. eigenvalues --    2.66045   2.67024   2.67272   2.70002   2.70980
 Alpha virt. eigenvalues --    2.71344   2.73271   2.74452   2.76739   2.78530
 Alpha virt. eigenvalues --    2.79364   2.80034   2.80878   2.81465   2.82923
 Alpha virt. eigenvalues --    2.84888   2.85556   2.86721   2.87890   2.89781
 Alpha virt. eigenvalues --    2.92009   2.93437   2.94803   2.95218   2.99693
 Alpha virt. eigenvalues --    3.01162   3.02557   3.04513   3.06375   3.08218
 Alpha virt. eigenvalues --    3.11288   3.12794   3.13844   3.16820   3.25976
 Alpha virt. eigenvalues --    3.30962   3.34087   3.41457   3.41733   3.43630
 Alpha virt. eigenvalues --    3.50418   3.51201   3.53883   3.55408   3.56249
 Alpha virt. eigenvalues --    3.97583   3.99460   4.02137   4.20838   4.21916
 Alpha virt. eigenvalues --    4.28720   4.32126   4.34571   4.36848   4.40898
 Alpha virt. eigenvalues --    4.41792   4.44102   4.46172   4.47444   4.48914
 Alpha virt. eigenvalues --    4.49839   4.53724   4.54384   4.55496   4.57274
 Alpha virt. eigenvalues --    4.59523   4.60595   4.66005   4.66971   4.69972
 Alpha virt. eigenvalues --    4.73333   4.80119   4.81751   4.87915
          Condensed to atoms (all electrons):
              1          2          3          4          5          6
     1  Si  13.938405   0.218774   0.473626  -1.135709  -0.098810  -0.674101
     2  H    0.218774   0.713083  -0.023100   0.067823  -0.072422   0.053690
     3  H    0.473626  -0.023100   0.703099   0.013654   0.059012  -0.035054
     4  C   -1.135709   0.067823   0.013654  15.236694  -2.151096  -2.988772
     5  C   -0.098810  -0.072422   0.059012  -2.151096  50.606806 -18.340595
     6  C   -0.674101   0.053690  -0.035054  -2.988772 -18.340595  29.873597
     7  C    0.159917  -0.016608   0.003432   0.950902  -8.278943   0.018214
     8  C    0.278812  -0.031074   0.018908   0.700657   2.340398  -6.939657
     9  C    0.125642   0.016013  -0.022594  -1.293225 -10.248340   6.886500
    10  N    0.041846  -0.000349  -0.006202   0.068374   1.211217  -0.609405
    11  S    0.071725  -0.000951   0.006240  -0.254023   0.655417   0.018867
    12  N    0.004490  -0.001487  -0.006774   0.113985  -0.074937  -0.072320
    13  C   -0.100849   0.006924   0.011553  -0.805673   0.720087   0.155885
    14  C   -0.148705  -0.003451   0.002903   0.696161   5.232240  -3.247571
    15  C   -0.056857  -0.003937   0.005361   0.259776   2.207032  -1.352865
    16  Si   0.063613   0.001791  -0.007944  -0.048917  -0.000498   0.015139
    17  H    0.000968   0.000060  -0.000154  -0.001076   0.003076  -0.000422
    18  H   -0.002120  -0.000017   0.000130   0.001987   0.001294  -0.000559
    19  C   -0.060798   0.004315  -0.000898   0.053871   0.010636   0.021116
    20  C    0.113037  -0.003642  -0.004538  -0.084558   0.019647  -0.048882
    21  C    0.012440   0.005565  -0.005493  -0.123057  -0.611307   0.493634
    22  C   -0.026694  -0.001606   0.002731   0.095786   0.506727  -0.392474
    23  C   -0.003800  -0.000294   0.000264   0.025971   0.349305  -0.178776
    24  S    0.000023   0.000044  -0.000062  -0.002401  -0.032938   0.001699
    25  C   -0.032379   0.001634   0.000239   0.108515  -0.451588   0.155702
    26  C   -0.078485  -0.000972   0.003979   0.393512   0.742181  -0.873469
    27  C    0.026473   0.019035  -0.027216  -0.222300  -4.174302   1.071186
    28  C   -0.034001   0.000376  -0.017354   0.778302  -6.655665   1.436329
    29  C    1.515291  -0.066681   0.001034   0.556044 -10.248277   0.575637
    30  C   -0.404643   0.121419  -0.064128  -5.935173   6.138024   0.544022
    31  C   -0.165484   0.021309  -0.010576  -0.134288  -3.081172   2.802234
    32  C   -0.011511   0.002494  -0.004349   0.122086  -1.108332  -0.271078
    33  N    0.001189  -0.000020  -0.000009   0.008524  -0.114393   0.038550
    34  C   -0.015008  -0.001282   0.001137   0.089385  -0.223498  -0.091930
    35  S    0.031791   0.000217  -0.003102  -0.250170   0.764816  -0.723247
    36  H   -0.603355   0.037028  -0.059534   1.657378  -0.698983  -0.170197
    37  H    0.009105  -0.001189   0.000638  -0.001945  -0.018346  -0.152187
    38  H   -0.172193  -0.005649   0.017200   0.129296  -0.032178  -0.019510
    39  H   -0.000981   0.000048   0.000035  -0.001144   0.000275   0.001538
    40  H    0.000022  -0.000003   0.000005   0.000194   0.002182  -0.001309
    41  H   -0.001316   0.000053   0.000047   0.007731   0.036506  -0.011741
    42  H   -0.195353   0.007580   0.003428  -0.091070   0.461301   0.001040
    43  H   -0.001285   0.000336  -0.000205  -0.014702  -0.003996  -0.137811
    44  H   -0.000335  -0.000077   0.000019   0.002121  -0.017365  -0.010757
              7          8          9         10         11         12
     1  Si   0.159917   0.278812   0.125642   0.041846   0.071725   0.004490
     2  H   -0.016608  -0.031074   0.016013  -0.000349  -0.000951  -0.001487
     3  H    0.003432   0.018908  -0.022594  -0.006202   0.006240  -0.006774
     4  C    0.950902   0.700657  -1.293225   0.068374  -0.254023   0.113985
     5  C   -8.278943   2.340398 -10.248340   1.211217   0.655417  -0.074937
     6  C    0.018214  -6.939657   6.886500  -0.609405   0.018867  -0.072320
     7  C   20.113211   2.160581  -3.567883   0.191872  -0.106359   0.022609
     8  C    2.160581  26.478856  -7.404093   0.064812  -0.280998   0.371276
     9  C   -3.567883  -7.404093  30.860074  -1.984001  -1.119619  -0.156699
    10  N    0.191872   0.064812  -1.984001   7.735798   0.005855  -0.095633
    11  S   -0.106359  -0.280998  -1.119619   0.005855  17.016463  -0.430150
    12  N    0.022609   0.371276  -0.156699  -0.095633  -0.430150   7.583490
    13  C   -2.894667  -1.685479  -2.761723   0.444642   0.085637   0.221333
    14  C   -1.457400   0.738502  -4.895822   0.575654  -0.353823  -0.086072
    15  C    1.381504   3.020691 -12.252022   0.807136   0.621683   0.282415
    16  Si   0.033457   0.030176  -0.049789   0.010108   0.041371   0.000715
    17  H   -0.001414  -0.004256  -0.034505   0.003187   0.005543  -0.001382
    18  H    0.000355  -0.000389  -0.003404  -0.000230  -0.002254  -0.008599
    19  C    0.024245  -0.016684  -0.093419   0.005884  -0.054793  -0.056549
    20  C   -0.091084  -0.268781  -0.091051  -0.000354   0.062850   0.093780
    21  C   -0.267793  -1.418519   3.447228  -0.076642  -0.001047  -0.209038
    22  C   -0.213427   0.293227  -2.132313   0.108480   0.019326   0.028026
    23  C   -0.132594   0.700141  -1.270883   0.036031   0.019581   0.009745
    24  S    0.011438  -0.108166   0.006997  -0.001215  -0.001018  -0.001000
    25  C    0.966389  -0.585389   0.163884  -0.017265  -0.037942  -0.032973
    26  C    0.991996   0.246954  -3.136538   0.128242  -0.086823  -0.057148
    27  C    1.594626  -7.734991   6.352411  -0.359853  -0.314537  -0.339412
    28  C   -5.849808  -2.541594   5.078008  -0.277354  -0.336677  -0.098494
    29  C    1.447462  -0.236393   6.405364  -0.717345  -0.254756  -0.032169
    30  C   -2.055069  -1.197776  -0.781734   0.024407   0.593980  -0.072091
    31  C   -0.567766  -0.718327   0.366370  -0.025500   0.011097   0.012947
    32  C    0.484686  -0.728615   0.393559  -0.093476  -0.016221   0.006841
    33  N    0.033561   0.033016   0.004204  -0.000180  -0.000721  -0.000035
    34  C    0.250566  -0.022120   0.008629  -0.008751  -0.004131   0.000207
    35  S   -0.240800   0.067463  -0.140125   0.006630  -0.001307   0.006995
    36  H    0.063046   0.128130   0.130317   0.047440  -0.486285   0.123515
    37  H    0.418426   0.097778   0.079224  -0.019660  -0.000348  -0.004955
    38  H    0.014847  -0.088572   0.040551  -0.022605  -0.049308   0.109942
    39  H   -0.001295  -0.014165   0.005410   0.000124   0.001807   0.000612
    40  H    0.000341   0.009788  -0.009164   0.000140  -0.000018   0.000098
    41  H    0.009236   0.061022  -0.026367   0.000825  -0.000688  -0.000641
    42  H   -0.071709  -0.005839  -0.260480   0.007790   0.052004   0.002341
    43  H    0.062899  -0.022604  -0.013432   0.000758   0.000560   0.000314
    44  H    0.011627  -0.000662  -0.000054  -0.000575  -0.000344   0.000014
             13         14         15         16         17         18
     1  Si  -0.100849  -0.148705  -0.056857   0.063613   0.000968  -0.002120
     2  H    0.006924  -0.003451  -0.003937   0.001791   0.000060  -0.000017
     3  H    0.011553   0.002903   0.005361  -0.007944  -0.000154   0.000130
     4  C   -0.805673   0.696161   0.259776  -0.048917  -0.001076   0.001987
     5  C    0.720087   5.232240   2.207032  -0.000498   0.003076   0.001294
     6  C    0.155885  -3.247571  -1.352865   0.015139  -0.000422  -0.000559
[...]
 ,0.00564839,0.00273704,-0.00676913,-0.00137961,0.00211454,-0.00015955,
 -0.00014125,0.00000832,-0.00007837,0.00017114,-0.00125600,0.00061480,-
 0.00012151,-0.00107055,-0.00035042,-0.00000695,-0.00001349,0.00000355,
 0.00000717,-0.00001965,0.00001316,-0.00003147,0.00003030,0.00000153,0.
 00002630,-0.00001204,-0.00001455,-0.00000008,0.00001455,-0.00000521,-0
 .00001114,-0.00003122,-0.00001518,0.00000027,-0.00000442,-0.00001130,-
 0.00000899,-0.00000456,0.00000746,-0.00002340,-0.00002004,-0.00004214,
 0.00185236,-0.00093937,0.00127425,0.09016756,0.00021888,-0.00035671,0.
 00052934,-0.00004070,-0.00001720,-0.00007593,-0.00003045,0.00004343,-0
 .00010181,0.00014473,0.00000988,-0.00028864,-0.00028116,-0.00023868,0.
 00003876,-0.00002221,-0.00001380,0.00001040,0.00000325,0.00008491,-0.0
 0013822,-0.00034937,-0.00015932,0.00035079,0.00008106,-0.00005995,-0.0
 0005074,-0.00007303,-0.00006033,-0.00005294,0.00005441,0.00004545,0.00
 018106,-0.00011117,-0.00008344,-0.00002286,0.00009053,0.00023136,0.000
 13488,-0.00005167,-0.00005537,0.00025029,0.00025539,-0.00015889,-0.000
 06627,-0.00002124,-0.00006293,-0.00005232,0.00001576,0.00002690,-0.000
 01622,0.00001774,-0.00001785,-0.00000420,0.00000281,0.00001242,-0.0000
 5557,-0.00025832,-0.00007416,-0.00001198,0.00037881,0.00102585,-0.0006
 0679,-0.00257675,0.00016640,-0.00332481,-0.00350080,-0.00409538,-0.000
 45267,-0.00578406,-0.00390611,0.01694429,-0.03438469,-0.04469237,0.039
 73561,0.00937688,0.00781483,-0.01107998,0.00113773,-0.00126015,0.00103
 974,-0.00005918,0.00000971,-0.00053813,-0.00119509,-0.00167072,-0.0005
 2608,0.00053198,-0.00152238,0.00104594,0.00003635,0.00002300,0.0000549
 4,-0.00002342,0.00002333,-0.00002259,0.00007032,-0.00002891,-0.0000232
 3,-0.00004099,0.00003191,0.00001450,0.00000912,-0.00003487,0.00000111,
 -0.00000444,0.00009739,0.00001746,0.00001243,-0.00000858,0.00000895,-0
 .00000830,-0.00000068,-0.00000054,0.00001949,0.00004685,-0.00000287,-0
 .00112911,0.00174002,0.00068724,0.03737936,0.04777455,0.00012965,0.000
 76470,0.00010085,0.00000249,-0.00014829,0.00000202,-0.00004897,-0.0000
 9863,-0.00002902,-0.00000746,-0.00015337,-0.00027518,-0.00010691,-0.00
 001811,0.00032193,-0.00000558,0.00002353,-0.00005378,-0.00006782,-0.00
 008290,0.00006118,0.00013552,-0.00000736,0.00013615,-0.00002271,0.0000
 0811,-0.00010530,0.00004048,0.00003034,0.00006764,-0.00000769,-0.00001
 996,-0.00004972,-0.00000365,0.00002711,0.00003394,-0.00004556,-0.00007
 409,-0.00006883,0.00010352,0.00009634,-0.00020573,-0.00017933,0.000010
 73,0.00010557,0.00003073,0.00002534,0.00004119,-0.00001168,0.00000288,
 -0.00000474,0.00002978,-0.00001968,-0.00001809,0.00001615,0.00009306,-
 0.00011528,-0.00003195,-0.00033304,-0.00019963,0.00105905,0.00074001,-
 0.00033390,-0.00107870,-0.00336972,-0.00260787,-0.00163967,-0.00177145
 ,0.00085415,-0.00220150,-0.00045553,0.00324001,0.12264259,0.03702330,-
 0.30407047,0.01017218,0.00786015,-0.01109287,0.00025239,0.00107098,0.0
 0055874,-0.00055111,-0.00015186,-0.00038342,0.00018652,0.00120419,0.00
 042366,0.00026377,0.00128848,0.00001356,-0.00001035,-0.00001959,0.0000
 0661,0.00001549,-0.00000327,-0.00000672,-0.00000606,0.00000771,-0.0000
 0085,0.00000675,-0.00000279,-0.00000171,0.00000420,0.00001416,-0.00000
 744,-0.00001915,-0.00002523,-0.00001997,0.00000098,0.00000689,-0.00000
 085,-0.00001672,-0.00000852,0.00000415,-0.00000255,-0.00000325,-0.0000
 3906,0.00047532,-0.00018950,0.00082022,-0.12968426,-0.04333409,0.31304
 664,0.00386275,0.00180271,-0.00371902,-0.00021997,-0.00018834,0.000046
 46,-0.00025907,0.00012270,0.00009535,0.00083133,0.00073037,-0.00231228
 ,-0.00350870,-0.00070566,-0.00386104,-0.00037815,-0.00036598,0.0015500
 8,0.00000959,0.00001489,0.00011725,0.00006495,-0.00004246,0.00026971,0
 .00011937,0.00002969,0.00002275,0.00001794,-0.00000287,-0.00002978,0.0
 0004964,0.00002782,0.00003083,0.00001559,0.00001467,0.00000073,-0.0000
 8713,-0.00003064,0.00000279,0.00017048,0.00009049,-0.00021565,-0.00008
 028,-0.00002357,0.00007303,0.00002911,0.00003177,-0.00000826,-0.000008
 70,-0.00001693,0.00001126,-0.00000426,0.00000360,0.00000715,-0.0000134
 2,-0.00002356,0.00000977,0.00001531,0.00001620,-0.00001167,0.00000287,
 0.00004625,0.00003574,0.00033508,0.00002121,-0.00026666,-0.00040355,-0
 .00007649,0.00021733,0.00019867,-0.00009989,-0.00004956,0.00058537,-0.
 00020171,0.00048589,0.00040144,-0.00029593,0.00002359,-0.00038268,-0.0
 0028746,-0.00052257,0.00128627,0.00085441,0.00116091,-0.01696976,-0.00
 934727,0.02144301,-0.20607657,-0.05947161,0.13258935,-0.00039117,-0.00
 003996,-0.00030406,0.00002268,-0.00010135,0.00002881,-0.00004005,-0.00
 000670,0.00009061,-0.00007607,0.00001929,0.00003924,0.00002962,0.00005
 283,-0.00003985,0.00064219,-0.00022676,0.00021440,0.00000070,0.0000024
 1,-0.00002680,0.00000672,0.00000091,-0.00000072,-0.00000377,-0.0000133
 4,0.00000604,-0.00001901,0.00000933,-0.00000938,-0.00023969,0.00010191
 ,0.00018780,0.22047149,-0.00222360,0.00057858,0.00084694,0.00000406,-0
 .00029100,0.00071756,0.00025799,-0.00011056,-0.00056813,0.00028753,-0.
 00192966,0.00024921,-0.00081180,0.00711404,0.00278960,0.00004873,0.000
 34315,-0.00027324,0.00019247,-0.00031119,-0.00024893,-0.00066220,-0.00
 021197,-0.00028717,-0.00040946,0.00039312,0.00001122,-0.00003414,0.000
 00384,0.00000969,-0.00009567,-0.00012647,-0.00003693,0.00006202,0.0000
 3319,0.00005522,0.00005159,-0.00002319,-0.00005807,-0.00026274,-0.0000
 4379,0.00004490,0.00005134,-0.00000434,-0.00012526,-0.00002890,-0.0000
 1135,0.00005075,0.00000698,0.00000697,-0.00003151,0.00000815,-0.000004
 82,-0.00000490,-0.00000607,0.00002756,-0.00002074,-0.00004179,-0.00004
 377,0.00003437,-0.00000866,0.00004527,0.00005936,0.00009467,-0.0000463
 8,0.00011987,0.00013293,0.00009933,-0.00012107,-0.00006324,-0.00032225
 ,-0.00001264,0.00013256,-0.00197450,0.00069026,0.00116365,-0.00042415,
 0.00158762,0.00064984,-0.00013541,0.00033029,0.00126857,-0.00591681,-0
 .00011913,-0.00113765,0.00388174,-0.00111989,-0.06649890,-0.05077717,0
 .05777601,0.00004855,0.00027701,0.00006871,-0.00006076,-0.00002126,0.0
 0004419,0.00003098,0.00005397,-0.00007662,0.00006498,-0.00003762,0.000
 02713,0.00002565,0.00000475,-0.00002749,-0.00031158,0.00163688,0.00036
 331,0.00000157,0.00000888,-0.00000963,-0.00000172,0.00000787,-0.000006
 18,0.00000925,0.00000270,0.00000940,-0.00004106,0.00001879,-0.00003580
 ,0.00052575,-0.00063128,-0.00000689,0.06758092,0.04886587,0.00940387,0
 .00284591,-0.00227536,-0.00041559,-0.00038492,-0.00037678,-0.00033816,
 0.00037517,-0.00081925,0.00144727,0.00032324,-0.00275881,-0.00178886,0
 .00222895,0.00017776,-0.00029442,-0.00021447,0.00027700,0.00028659,-0.
 00009040,0.00008651,0.00002422,0.00011466,-0.00028158,-0.00006648,0.00
 022274,0.00016388,0.00000059,0.00002582,0.00004109,0.00002446,-0.00004
 292,-0.00010292,0.00002679,0.00003328,0.00000960,-0.00008782,-0.000002
 04,-0.00003975,0.00007701,-0.00012429,-0.00021733,-0.00010698,-0.00006
 127,0.00003287,-0.00000366,0.00003521,-0.00000117,-0.00000339,-0.00002
 087,0.00000576,0.00000400,-0.00000045,0.00000449,-0.00000973,-0.000025
 36,0.00000276,0.00000212,-0.00000871,-0.00002985,0.00002739,0.00008469
 ,0.00006528,-0.00018216,-0.00001356,-0.00002620,0.00023126,0.00019213,
 -0.00003210,-0.00045091,-0.00038070,-0.00009445,-0.00040530,0.00216738
 ,-0.00048321,-0.00046066,0.00192594,-0.00120008,-0.00028844,0.00001084
 ,0.00012074,0.00075515,-0.00221971,0.00002808,-0.01090989,-0.00239992,
 0.00881650,0.14949973,0.05791733,-0.17202496,-0.00001683,0.00013950,-0
 .00003738,-0.00004524,0.00000714,0.00007123,0.00002580,-0.00001735,-0.
 00003247,-0.00002669,0.00001340,0.00004218,0.00004897,-0.00002737,0.00
 000702,0.00080812,0.00031116,0.00056160,-0.00001276,0.00000551,-0.0000
 0236,0.00000813,-0.00000073,-0.00000720,0.00000102,-0.00000652,0.00001
 689,0.00003566,-0.00004709,-0.00000059,0.00054240,-0.00019954,-0.00014
 823,-0.14737187,-0.06269323,0.17046149,-0.00010452,0.00004024,-0.00002
 772,0.00001773,-0.00001290,0.00000497,0.00002598,-0.00001877,0.0000118
 2,0.00008721,-0.00007422,0.00015492,-0.00050305,-0.00016983,-0.0001916
 7,0.00126448,-0.00021335,-0.00207260,0.00043107,-0.00034939,0.00034950
 ,-0.00005214,-0.00011842,0.00026625,-0.00000105,0.00001517,0.00001469,
 -0.00001667,-0.00000806,-0.00000391,-0.00000762,-0.00000051,-0.0000158
 6,0.00002673,0.00001232,-0.00003246,0.00000269,-0.00000482,-0.00000341
 ,0.,-0.00000823,0.00001019,0.00002660,0.00002567,-0.00001930,-0.000018
 36,-0.00002755,-0.00000419,0.00000569,0.00000663,-0.00000050,-0.000000
 43,-0.00000024,-0.00000581,0.00000824,0.00000998,0.00001218,0.00000714
 ,-0.00003857,0.00001084,-0.00000876,0.00002485,-0.00000802,-0.00000586
 ,-0.00000445,-0.00000583,0.00001797,0.00002098,-0.00001245,-0.00000953
 ,0.00000119,0.00001311,-0.00001227,0.00000590,0.00003724,0.00002004,-0
 .00001355,-0.00004862,-0.00002389,-0.00000937,0.00002356,0.00002966,0.
 00003899,-0.00002160,-0.00006996,0.00005255,-0.00005939,0.00003246,-0.
 00003812,0.00004652,-0.00616316,0.01928872,-0.01366973,-0.09442745,0.0
 8860178,-0.05938522,0.00894660,-0.01858497,0.01321416,-0.00194733,-0.0
 0238587,0.00440675,-0.00247351,0.00330309,0.00005691,0.00002319,0.0000
 6577,0.00003931,-0.00004853,0.00036250,0.00024224,-0.00000168,0.000004
 86,-0.00000109,0.00000138,0.00001437,-0.00000797,-0.00000160,0.0000000
 2,0.00000119,-0.00001244,0.00000009,-0.00000453,-0.00000181,-0.0000006
 8,0.00000199,0.09418378,0.00011413,0.00000409,-0.00002476,-0.00003270,
 -0.00000551,-0.00000112,-0.00002092,0.00000163,-0.00000169,-0.00016418
 ,-0.00009908,0.00001746,-0.00004793,0.00021961,-0.00005304,-0.00055363
 ,-0.00081938,-0.00185474,0.00074666,0.00004033,0.00024902,-0.00024894,
 0.00004478,-0.00020636,0.00005780,0.00003948,0.00002582,-0.00002418,0.
 00000391,0.00006702,-0.00001372,-0.00000506,-0.00009198,-0.00004297,-0
 .00002404,0.00002795,0.00002141,0.00001180,0.00001608,0.00000871,0.000
 00022,-0.00001380,-0.00003141,-0.00000030,-0.00000217,0.00000394,-0.00
 000058,-0.00002067,-0.00000012,0.00000209,0.00000381,0.00000121,-0.000
 00057,0.00000117,0.00000143,0.00000246,-0.00000209,-0.00001177,0.00001
 903,-0.00001009,0.00002864,-0.00002391,0.00000433,0.00001724,0.0000310
 7,0.00000554,-0.00000589,-0.00003124,-0.00000797,-0.00000699,-0.000009
 82,-0.00000239,0.00000897,-0.00001177,-0.00002693,-0.00001413,0.000011
 34,0.00004178,-0.00002584,-0.00001391,-0.00000013,-0.00002349,-0.00004
 128,0.00004628,-0.00000405,0.00003106,0.00000932,-0.00002269,-0.000010
 44,0.00000557,0.00006327,-0.00208298,0.00633364,0.08675284,-0.20771800
 ,0.13017295,0.00173452,-0.00910078,0.00599917,-0.00076539,0.00094118,0
 .00260462,0.00139013,0.00313770,0.00229759,-0.00000119,0.00000048,0.00
 002315,-0.00004806,-0.00017135,-0.00042522,0.00000156,-0.00000287,0.00
 000369,0.00000435,0.00000204,0.00000298,-0.00000032,-0.00000103,0.0000
 0015,-0.00000446,0.00000478,0.00000125,-0.00000014,-0.00000606,-0.0000
 0095,-0.08931497,0.21550978,0.00000176,0.00003056,0.00001756,-0.000012
 22,-0.00001077,-0.00001126,-0.00000247,-0.00000718,-0.00000484,-0.0000
 3556,-0.00005722,0.00004642,-0.00035158,0.00020813,0.00011842,-0.00007
 337,-0.00151699,-0.00197545,0.00066612,-0.00037561,0.00041500,-0.00010
 595,0.00004790,-0.00012440,0.00008519,0.00002932,0.00004700,-0.0000675
 8,0.00001372,0.00006008,0.00000166,0.00000300,-0.00008610,-0.00004209,
 -0.00002396,0.00003384,0.00003363,0.00000777,-0.00001933,0.00001930,-0
 .00000115,-0.00000064,0.00000684,-0.00000930,-0.00000818,0.00001814,0.
 00001246,0.00000940,-0.00000068,-0.00000580,-0.00000307,-0.00000097,0.
 00000132,-0.00000068,-0.00000348,-0.00000137,0.00000258,0.00000179,-0.
 00002803,0.00000502,-0.00002155,0.00003043,0.00001150,-0.00002051,-0.0
 0003109,-0.00002312,0.00000511,0.00002673,0.00001453,-0.00001580,-0.00
 001396,-0.00000662,0.00000461,0.00001864,0.00004082,0.00001149,-0.0000
 2820,-0.00003682,-0.00000705,0.00002153,-0.00002338,-0.00005702,-0.000
 04066,0.00001259,-0.00005630,0.00003431,-0.00002132,0.00001823,-0.0000
 1248,0.00000704,0.00143333,-0.00169391,0.00519142,-0.05580095,0.128615
 33,-0.13135203,-0.00628746,0.01415820,-0.01331359,0.00283590,0.0031147
 1,-0.00079931,0.00193831,0.00243883,0.00287582,0.00003426,-0.00000346,
 0.00002293,0.00019576,-0.00014092,-0.00033492,-0.00000199,0.00000222,-
 0.00000298,-0.00000237,-0.00000173,-0.00000058,-0.00000007,0.00000073,
 -0.00000045,-0.00000572,0.00000438,0.00000089,-0.00000696,-0.00000382,
 -0.00000188,0.05607536,-0.14574285,0.13904349,0.00007531,0.00002383,0.
 00004501,-0.00001823,-0.00001550,-0.00001217,-0.00001890,-0.00000393,-
 0.00000683,-0.00006633,-0.00008001,-0.00006092,0.00010629,0.00004344,-
 0.00009752,0.00135550,-0.00065689,0.00099091,-0.00027239,-0.00030589,-
 0.00001026,-0.00007559,0.00017205,0.00017365,-0.00004082,-0.00002501,-
 0.00000060,-0.00000078,0.00000606,0.00000214,0.00000205,0.00000672,0.0
 0000584,-0.00001593,-0.00000882,0.00000916,0.00002181,-0.00000527,0.00
 001802,-0.00000406,-0.00000016,-0.00000912,0.00000573,-0.00000343,-0.0
 0000239,0.00000518,0.00001026,-0.00000769,0.00000136,-0.00000869,0.000
 00407,0.00000004,0.00000084,-0.00000067,0.00000112,-0.00000819,0.00000
 875,0.00000610,-0.00002614,-0.00000746,-0.00002227,0.00002919,0.000008
 48,-0.00001357,-0.00001728,-0.00000829,0.00000373,0.00002063,0.0000153
 5,-0.00000122,0.00000060,-0.00000677,-0.00000021,0.00000933,0.00002724
 ,0.00001402,-0.00002044,-0.00002007,0.00001010,-0.00001938,0.00002374,
 0.00003888,0.00002897,-0.00001210,-0.00001718,0.00004444,-0.00005528,-
 0.00003323,-0.00002675,0.00004571,-0.00560549,0.00243956,0.00015049,0.
 00107078,0.00396602,-0.00092661,0.01066557,0.01007861,-0.01640179,-0.1
 0321843,-0.07011785,0.09889233,-0.00825834,-0.01203208,0.01446493,-0.0
 0001428,0.00003692,0.00010422,0.00003142,-0.00005467,0.00001592,0.0000
 0030,0.00000236,-0.00000329,-0.00000207,0.00000333,-0.00000045,-0.0000
 0182,0.00000141,0.00000135,-0.00000371,0.00000711,-0.00000147,-0.00000
 532,-0.00000008,0.00000328,0.00075300,0.00047325,-0.00040707,0.1035418
 9,0.00000524,0.00006211,-0.00004901,0.00000223,-0.00001188,0.00000954,
 -0.00000066,-0.00001437,0.00001144,-0.00007490,0.00002242,0.00002714,0
 .00007248,0.00007660,-0.00006076,0.00001080,0.00136055,0.00070403,-0.0
 0014636,-0.00015287,0.00007910,0.00005690,-0.00004621,0.00016465,0.000
 01691,0.00000035,0.00001055,-0.00002236,-0.00000979,0.00002489,-0.0000
 2124,-0.00000474,-0.00002429,0.00000235,-0.00000378,-0.00000127,0.0000
 3585,0.00002175,0.00000984,0.00001279,0.00000400,0.00002163,0.00003072
 ,0.00004266,-0.00001229,-0.00001305,-0.00003042,-0.00001037,0.00000515
 ,0.00000879,-0.00000038,-0.00000183,-0.00000058,-0.00000560,0.00000643
 ,0.00001602,0.00001028,0.00000454,-0.00003108,0.00001479,-0.00000152,0
 .00000778,-0.00002099,-0.00000314,-0.00000764,-0.00001352,0.00000843,0
 .00001039,-0.00000725,-0.00000584,0.00000565,0.00001899,-0.00000989,0.
 00001296,0.00003754,0.00000122,-0.00002144,-0.00005052,-0.00001241,-0.
 00001535,-0.00004166,0.00002124,-0.00000127,0.00000458,-0.00004451,-0.
 00004316,-0.00015612,0.00001328,-0.00003114,0.00005802,0.00252213,0.00
 002917,-0.00064794,0.00392737,0.00181831,0.00489963,-0.00904923,-0.016
 52767,0.01387115,-0.06535607,-0.13156841,0.12930474,0.00247879,0.00355
 504,-0.00523657,0.00002995,0.00000089,-0.00001459,-0.00002639,-0.00000
 308,-0.00004517,-0.00000221,0.00000449,0.00000010,0.00000164,0.0000125
 2,-0.00000926,-0.00000048,-0.00000058,0.00000205,-0.00000127,-0.000002
 90,-0.00000213,-0.00000577,0.00000151,0.00000238,-0.00049884,0.0001211
 3,0.00093022,0.06603155,0.14133327,0.00001984,0.00003479,-0.00003274,0
 .00000099,-0.00000471,0.00000890,-0.00000360,-0.00000582,0.00000637,-0
 .00005779,0.00003255,0.00003748,0.00008011,0.00007322,-0.00009533,0.00
 076054,0.00081987,0.00103841,-0.00026428,-0.00021863,0.00018904,0.0000
 3752,0.00000938,0.00021309,-0.00001671,-0.00001401,0.00001326,-0.00000
 608,-0.00001541,0.00001787,-0.00001273,-0.00000324,-0.00001560,0.00000
 217,-0.00000282,0.00000605,0.00003052,0.00002165,0.00000268,0.00001837
 ,0.00000738,0.00000942,0.00000984,0.00003065,0.00000062,-0.00000715,-0
 .00002425,0.00000194,0.00000159,0.00001149,-0.00000501,-0.00000188,-0.
 00000144,-0.00000291,0.00000152,0.00001876,-0.00000212,-0.00000194,0.0
 0000082,0.00001908,0.00001971,-0.00001631,-0.00002305,0.00000480,-0.00
 000050,-0.00000940,-0.00000091,-0.00001054,-0.00001080,-0.00000502,0.0
 0000320,0.00001931,0.00000098,0.00000161,0.00000566,-0.00000928,-0.000
 00043,-0.00001961,-0.00001221,-0.00001630,-0.00004111,0.00002660,0.000
 00690,0.00000775,-0.00002797,-0.00003912,-0.00012926,-0.00001474,-0.00
 002053,0.00004056,-0.00046402,-0.00053497,0.00088974,-0.00099249,0.005
 23718,0.00378838,0.00249267,0.00565322,-0.01266464,0.09433603,0.131781
 75,-0.19095731,0.00037940,0.00044835,-0.00147806,0.00004352,-0.0000046
 3,-0.00001866,-0.00002202,0.00001566,-0.00002800,-0.00000187,0.0000006
 0,0.00000247,0.00000228,0.00000342,-0.00000550,0.00000106,-0.00000082,
 0.00000007,-0.00000003,-0.00000067,-0.00000043,-0.00000374,0.00000166,
 0.00000120,0.00060817,0.00052861,0.00017460,-0.09695177,-0.14380756,0.
 19904560\\-0.00001450,0.00000909,-0.00001119,0.00000680,-0.00000468,-0
 .00000006,0.00000258,-0.00000373,0.00000105,0.00001335,-0.00000404,0.0
 0001835,-0.00000412,0.00001364,-0.00000634,0.00000004,-0.00000457,0.00
 001359,-0.00000123,0.00001066,-0.00000609,0.00000924,-0.00000835,0.000
 00347,0.00001044,-0.00001438,0.00000228,0.00000074,0.00001284,-0.00001
 512,-0.00001631,-0.00000644,-0.00000854,-0.00000211,-0.00001101,-0.000
 00342,-0.00000199,0.00002024,0.00002460,0.00000477,0.00000683,0.000002
 87,-0.00001257,-0.00000705,0.00001337,0.00000907,0.00001470,-0.0000142
 0,-0.00001986,-0.00000891,0.00000103,-0.00002577,0.00000565,0.00004825
 ,0.00002799,-0.00002132,-0.00006272,0.00001320,0.00002474,-0.00000114,
 0.00000270,-0.00000050,-0.00000149,-0.00000295,-0.00001524,-0.00001218
 ,0.00000174,0.00000951,0.00001443,0.00000027,0.00000059,-0.00000671,0.
 00000321,0.00000452,-0.00000316,-0.00000294,0.00000274,0.00000106,-0.0
 0000433,-0.00000037,0.00000946,0.00000080,0.00000528,0.00000521,-0.000
 01775,-0.00002050,-0.00002072,0.00001676,0.00000139,0.00001414,0.00001
 136,0.00000849,-0.00000980,-0.00000084,0.00000105,0.00000325,-0.000006
 78,-0.00001487,-0.00001997,0.00001157,0.00001433,0.00001658,-0.0000047
 6,-0.00001386,0.00000178,-0.00000630,-0.00000587,-0.00000720,0.0000008
 1,-0.00000009,-0.00000099,-0.00000463,-0.00000447,0.00001787,0.0000032
 4,0.00000556,0.00000419,0.00000129,0.00000121,-0.00000260,0.00000043,-
 0.00000022,-0.00000240,-0.00000314,-0.00000150,-0.00000250,-0.00000009
 ,0.00000033,0.00000165,0.00000057,-0.00000140,0.00000008\\\@


 A ROPE OVER THE TOP OF A FENCE HAS THE SAME LENGTH ON EACH SIDE.
 WEIGHS 1/3 POUND PER FOOT.  ON ONE END HANGS A MONKEY HOLDING A
 BANANA, AND ON THE OTHER END A WEIGHT EQUAL TO THE WEIGHT
 OF THE MONKEY.  THE BANANA WEIGHS TWO OUNCES PER INCH.
 THE ROPE IS AS LONG AS THE AGE OF THE MONKEY, 
 AND THE WEIGHT OF THE MONKEY (IN OUNCES) IS AS MUCH
 AS THE AGE OF THE MONKEY'S MOTHER.  THE COMBINED AGES OF MONKEY
 AND MOTHER ARE THIRTY YEARS.  HALF THE WEIGHT OF THE MONKEY,
  PLUS THE WEIGHT OF THE BANANA, IS ONE FOURTH AS MUCH AS THE WEIGHT
 OF THE WEIGHT AND THE ROPE.
 THE MONKEY'S MOTHER IS HALF AS OLD AS THE MONKEY WILL BE
 WHEN IT IS 3 TIMES AS OLD AS ITS MOTHER WAS WHEN
 SHE WAS HALF AS OLD AS THE MONKEY WILL BE WHEN IT IS
 AS OLD AS ITS MOTHER WILL BE WHEN SHE IS 4 TIMES AS
 OLD AS THE MONKEY WAS WHEN IT WAS TWICE AS OLD AS 
 ITS MOTHER WAS WHEN SHE WAS ONE THIRD AS OLD AS THE
 MONKEY WAS WHEN IT WAS AS OLD AS ITS MOTHER WAS WHEN 
 SHE WAS 3 TIMES AS OLD AS THE MONKEY WAS WHEN IT WAS AS OLD AS ITS
 MOTHER WAS WHEN SHE WAS 3 TIMES AS OLD AS THE MONKEY 
 WAS WHEN IT WAS ONE FOURTH WAS OLD AS IT IS NOW.

 HOW LONG IS THE BANANA?
 Job cpu time:  1 days  6 hours 26 minutes 26.2 seconds.
 File lengths (MBytes):  RWF=   2197 Int=      0 D2E=      0 Chk=     33 Scr=      1
 Normal termination of Gaussian 09 at Mon Dec 30 14:31:15 2013.
