 Entering Gaussian System, Link 0=g09
 Initial command:
 /opt/gaussian/g09/l1.exe /panfs/panfs.cluster/home/shuo/Gau-15420.inp -scrdir=/panfs/panfs.cluster/home/shuo/
 Default is to use a total of  12 processors:
                               12 via shared-memory
                                1 via Linda
 Entering Link 1 = /opt/gaussian/g09/l1.exe PID=     15421.
  
 Copyright (c) 1988,1990,1992,1993,1995,1998,2003,2009,2011,
            Gaussian, Inc.  All Rights Reserved.
  
 This is part of the Gaussian(R) 09 program.  It is based on
 the Gaussian(R) 03 system (copyright 2003, Gaussian, Inc.),
 the Gaussian(R) 98 system (copyright 1998, Gaussian, Inc.),
 the Gaussian(R) 94 system (copyright 1995, Gaussian, Inc.),
 the Gaussian 92(TM) system (copyright 1992, Gaussian, Inc.),
 the Gaussian 90(TM) system (copyright 1990, Gaussian, Inc.),
 the Gaussian 88(TM) system (copyright 1988, Gaussian, Inc.),
 the Gaussian 86(TM) system (copyright 1986, Carnegie Mellon
 University), and the Gaussian 82(TM) system (copyright 1983,
 Carnegie Mellon University). Gaussian is a federally registered
 trademark of Gaussian, Inc.
  
 This software contains proprietary and confidential information,
 including trade secrets, belonging to Gaussian, Inc.
  
 This software is provided under written license and may be
 used, copied, transmitted, or stored only in accord with that
 written license.
  
 The following legend is applicable only to US Government
 contracts under FAR:
  
                    RESTRICTED RIGHTS LEGEND
  
 Use, reproduction and disclosure by the US Government is
 subject to restrictions as set forth in subparagraphs (a)
 and (c) of the Commercial Computer Software - Restricted
 Rights clause in FAR 52.227-19.
  
 Gaussian, Inc.
 340 Quinnipiac St., Bldg. 40, Wallingford CT 06492
  
  
 ---------------------------------------------------------------
 Warning -- This program may not be used in any manner that
 competes with the business of Gaussian, Inc. or will provide
 assistance to any competitor of Gaussian, Inc.  The licensee
 of this program is prohibited from giving any competitor of
 Gaussian, Inc. access to this program.  By using this program,
 the user acknowledges that Gaussian, Inc. is engaged in the
 business of creating and licensing software in the field of
 computational chemistry and represents and warrants to the
 licensee that it is not a competitor of Gaussian, Inc. and that
 it will not use this program in any manner prohibited above.
 ---------------------------------------------------------------
  

 Cite this work as:
 Gaussian 09, Revision C.01,
 M. J. Frisch, G. W. Trucks, H. B. Schlegel, G. E. Scuseria, 
 M. A. Robb, J. R. Cheeseman, G. Scalmani, V. Barone, B. Mennucci, 
 G. A. Petersson, H. Nakatsuji, M. Caricato, X. Li, H. P. Hratchian, 
 A. F. Izmaylov, J. Bloino, G. Zheng, J. L. Sonnenberg, M. Hada, 
 M. Ehara, K. Toyota, R. Fukuda, J. Hasegawa, M. Ishida, T. Nakajima, 
 Y. Honda, O. Kitao, H. Nakai, T. Vreven, J. A. Montgomery, Jr., 
 J. E. Peralta, F. Ogliaro, M. Bearpark, J. J. Heyd, E. Brothers, 
 K. N. Kudin, V. N. Staroverov, T. Keith, R. Kobayashi, J. Normand, 
 K. Raghavachari, A. Rendell, J. C. Burant, S. S. Iyengar, J. Tomasi, 
 M. Cossi, N. Rega, J. M. Millam, M. Klene, J. E. Knox, J. B. Cross, 
 V. Bakken, C. Adamo, J. Jaramillo, R. Gomperts, R. E. Stratmann, 
 O. Yazyev, A. J. Austin, R. Cammi, C. Pomelli, J. W. Ochterski, 
 R. L. Martin, K. Morokuma, V. G. Zakrzewski, G. A. Voth, 
 P. Salvador, J. J. Dannenberg, S. Dapprich, A. D. Daniels, 
 O. Farkas, J. B. Foresman, J. V. Ortiz, J. Cioslowski, 
 and D. J. Fox, Gaussian, Inc., Wallingford CT, 2010.
 
 ******************************************
 Gaussian 09:  EM64L-G09RevC.01 23-Sep-2011
                29-Dec-2013 
 ******************************************
 %chk=35_C20H10N4S4.chk
 %NProcShared=12
 Will use up to   12 processors via shared memory.
 %Mem=8000MB
 Default route:  MaxDisk=100GB
 --------------------------------------------
 #B3LYP/6-31++G(d,p) opt scf=direct freq test
 --------------------------------------------
 1/14=-1,18=20,19=15,26=3,38=1/1,3;
 2/9=110,12=2,17=6,18=5,40=1/2;
 3/5=1,6=6,7=1111,11=2,16=1,25=1,30=1,71=1,74=-5/1,2,3;
 4//1;
 5/5=2,38=5/2;
 6/7=2,8=2,9=2,10=2,28=1/1;
 7//1,2,3,16;
 1/14=-1,18=20,19=15/3(2);
 2/9=110/2;
 99//99;
 2/9=110/2;
 3/5=1,6=6,7=1111,11=2,16=1,25=1,30=1,71=1,74=-5/1,2,3;
 4/5=5,16=3/1;
 5/5=2,38=5/2;
 7//1,2,3,16;
 1/14=-1,18=20,19=15/3(-5);
 2/9=110/2;
 6/7=2,8=2,9=2,10=2,19=2,28=1/1;
 99/9=1/99;
 ----------------------------------------------------------------------
 Geom opt of No.35 candidate from the CEPDB database with SMILE code of
  C1ccc2csc(c12)-c1cnc(-c2cnc(s2)-c2scc3ccsc23)c2nsnc12, HPC, 20131227,
  Shuo Dai, Gaussian09
 ----------------------------------------------------------------------
 Charge =  0 Multiplicity = 1
 Symbolic Z-Matrix:
 C                    -1.37992   1.09816   0.0035 
 C                    -2.20068  -0.17387   0.00426 
 C                    -1.41305  -1.25957   0.00074 
 C                    -0.04966  -0.86716  -0.00135 
 C                     1.14857  -1.49026  -0.00265 
 S                     2.40215  -0.32494  -0.0038 
 C                     1.28848   1.01224  -0.0022 
 C                     0.00336   0.53802  -0.00038 
 C                     1.77687   2.37056  -0.00169 
 C                     3.13061   2.68881   0.01064 
 N                     3.62154   3.93669   0.01271 
 C                     2.79442   5.02856   0.00196 
 C                     3.37253   6.31855   0.00444 
 C                     2.936     7.62162  -0.0059 
 N                     3.95167   8.57695   0.01853 
 C                     5.11164   7.94995   0.04076 
 S                     5.01573   6.28083   0.01698 
 C                     6.41913   8.5054    0.07754 
 S                     6.73474   10.18539   0.08742 
 C                     8.44231   9.94156   0.1305 
 C                     8.70856   8.61372   0.13717 
 C                     9.88163   7.79089   0.16725 
 C                     9.62444   6.41852   0.15734 
 S                     7.98218   5.95804   0.11865 
 C                     7.59799   7.77871   0.10849 
 C                     1.42853   4.86722  -0.00982 
 N                     0.50272   5.84137  -0.019 
 S                    -0.95484   5.10018  -0.03548 
 N                    -0.43971   3.54425  -0.02974 
 C                     0.89865   3.50057  -0.01332 
 H                    -1.58835   1.67445   0.91159 
 H                    -1.59548   1.67244  -0.90401 
 H                    -3.28165  -0.15019   0.0054 
 H                    -1.74306  -2.28632  -0.00077 
 H                     1.39216  -2.54327  -0.00263 
 H                     3.91676   1.93186   0.0192 
 H                     1.89987   7.93675  -0.02802 
 H                     9.0882    10.80254   0.14665 
 H                     10.89783   8.1472    0.195 
 H                     10.31783   5.59082   0.17242 
 

 GradGradGradGradGradGradGradGradGradGradGradGradGradGradGradGradGradGrad
 Berny optimization.
 Initialization pass.
                           ----------------------------
                           !    Initial Parameters    !
                           ! (Angstroms and Degrees)  !
 --------------------------                            --------------------------
 ! Name  Definition              Value          Derivative Info.                !
 --------------------------------------------------------------------------------
 ! R1    R(1,2)                  1.5138         estimate D2E/DX2                !
 ! R2    R(1,8)                  1.4924         estimate D2E/DX2                !
 ! R3    R(1,31)                 1.0955         estimate D2E/DX2                !
 ! R4    R(1,32)                 1.0954         estimate D2E/DX2                !
 ! R5    R(2,3)                  1.3413         estimate D2E/DX2                !
 ! R6    R(2,33)                 1.0812         estimate D2E/DX2                !
 ! R7    R(3,4)                  1.4187         estimate D2E/DX2                !
 ! R8    R(3,34)                 1.0785         estimate D2E/DX2                !
 ! R9    R(4,5)                  1.3506         estimate D2E/DX2                !
 ! R10   R(4,8)                  1.4062         estimate D2E/DX2                !
 ! R11   R(5,6)                  1.7116         estimate D2E/DX2                !
 ! R12   R(5,35)                 1.0808         estimate D2E/DX2                !
 ! R13   R(6,7)                  1.7402         estimate D2E/DX2                !
 ! R14   R(7,8)                  1.3698         estimate D2E/DX2                !
 ! R15   R(7,9)                  1.4435         estimate D2E/DX2                !
 ! R16   R(9,10)                 1.3907         estimate D2E/DX2                !
 ! R17   R(9,30)                 1.4312         estimate D2E/DX2                !
 ! R18   R(10,11)                1.341          estimate D2E/DX2                !
 ! R19   R(10,36)                1.0914         estimate D2E/DX2                !
 ! R20   R(11,12)                1.3698         estimate D2E/DX2                !
 ! R21   R(12,13)                1.4136         estimate D2E/DX2                !
 ! R22   R(12,26)                1.3754         estimate D2E/DX2                !
 ! R23   R(13,14)                1.3743         estimate D2E/DX2                !
 ! R24   R(13,17)                1.6437         estimate D2E/DX2                !
 ! R25   R(14,15)                1.3946         estimate D2E/DX2                !
 ! R26   R(14,37)                1.0832         estimate D2E/DX2                !
 ! R27   R(15,16)                1.3188         estimate D2E/DX2                !
 ! R28   R(16,17)                1.672          estimate D2E/DX2                !
 ! R29   R(16,18)                1.4211         estimate D2E/DX2                !
 ! R30   R(18,19)                1.7094         estimate D2E/DX2                !
 ! R31   R(18,25)                1.3852         estimate D2E/DX2                !
 ! R32   R(19,20)                1.7254         estimate D2E/DX2                !
 ! R33   R(20,21)                1.3543         estimate D2E/DX2                !
 ! R34   R(20,38)                1.0764         estimate D2E/DX2                !
 ! R35   R(21,22)                1.4332         estimate D2E/DX2                !
 ! R36   R(21,25)                1.3898         estimate D2E/DX2                !
 ! R37   R(22,23)                1.3963         estimate D2E/DX2                !
 ! R38   R(22,39)                1.0772         estimate D2E/DX2                !
 ! R39   R(23,24)                1.706          estimate D2E/DX2                !
 ! R40   R(23,40)                1.0799         estimate D2E/DX2                !
 ! R41   R(24,25)                1.8608         estimate D2E/DX2                !
 ! R42   R(26,27)                1.3439         estimate D2E/DX2                !
 ! R43   R(26,30)                1.4658         estimate D2E/DX2                !
 ! R44   R(27,28)                1.6353         estimate D2E/DX2                !
 ! R45   R(28,29)                1.639          estimate D2E/DX2                !
 ! R46   R(29,30)                1.3392         estimate D2E/DX2                !
 ! A1    A(2,1,8)              100.7868         estimate D2E/DX2                !
 ! A2    A(2,1,31)             109.7822         estimate D2E/DX2                !
 ! A3    A(2,1,32)             109.5273         estimate D2E/DX2                !
 ! A4    A(8,1,31)             112.0823         estimate D2E/DX2                !
 ! A5    A(8,1,32)             112.1497         estimate D2E/DX2                !
 ! A6    A(31,1,32)            111.9325         estimate D2E/DX2                !
 ! A7    A(1,2,3)              111.2089         estimate D2E/DX2                !
 ! A8    A(1,2,33)             121.5767         estimate D2E/DX2                !
 ! A9    A(3,2,33)             127.2143         estimate D2E/DX2                !
 ! A10   A(2,3,4)              109.9026         estimate D2E/DX2                !
 ! A11   A(2,3,34)             126.2227         estimate D2E/DX2                !
 ! A12   A(4,3,34)             123.8747         estimate D2E/DX2                !
 ! A13   A(3,4,5)              136.468          estimate D2E/DX2                !
 ! A14   A(3,4,8)              108.2176         estimate D2E/DX2                !
 ! A15   A(5,4,8)              115.3144         estimate D2E/DX2                !
 ! A16   A(4,5,6)              109.6145         estimate D2E/DX2                !
 ! A17   A(4,5,35)             130.5001         estimate D2E/DX2                !
 ! A18   A(6,5,35)             119.8854         estimate D2E/DX2                !
 ! A19   A(5,6,7)               93.1211         estimate D2E/DX2                !
 ! A20   A(6,7,8)              109.5348         estimate D2E/DX2                !
 ! A21   A(6,7,9)              120.4345         estimate D2E/DX2                !
 ! A22   A(8,7,9)              130.0307         estimate D2E/DX2                !
 ! A23   A(1,8,4)              109.884          estimate D2E/DX2                !
 ! A24   A(1,8,7)              137.7007         estimate D2E/DX2                !
 ! A25   A(4,8,7)              112.4152         estimate D2E/DX2                !
 ! A26   A(7,9,10)             123.0044         estimate D2E/DX2                !
 ! A27   A(7,9,30)             122.3687         estimate D2E/DX2                !
 ! A28   A(10,9,30)            114.6268         estimate D2E/DX2                !
 ! A29   A(9,10,11)            124.704          estimate D2E/DX2                !
 ! A30   A(9,10,36)            122.8568         estimate D2E/DX2                !
 ! A31   A(11,10,36)           112.4392         estimate D2E/DX2                !
 ! A32   A(10,11,12)           121.378          estimate D2E/DX2                !
 ! A33   A(11,12,13)           118.7136         estimate D2E/DX2                !
 ! A34   A(11,12,26)           120.4105         estimate D2E/DX2                !
 ! A35   A(13,12,26)           120.8759         estimate D2E/DX2                !
 ! A36   A(12,13,14)           137.3365         estimate D2E/DX2                !
 ! A37   A(12,13,17)           112.8247         estimate D2E/DX2                !
 ! A38   A(14,13,17)           109.8382         estimate D2E/DX2                !
 ! A39   A(13,14,15)           114.7125         estimate D2E/DX2                !
 ! A40   A(13,14,37)           125.4387         estimate D2E/DX2                !
 ! A41   A(15,14,37)           119.8485         estimate D2E/DX2                !
 ! A42   A(14,15,16)           108.3731         estimate D2E/DX2                !
 ! A43   A(15,16,17)           115.0822         estimate D2E/DX2                !
 ! A44   A(15,16,18)           128.6007         estimate D2E/DX2                !
 ! A45   A(17,16,18)           116.3167         estimate D2E/DX2                !
 ! A46   A(13,17,16)            91.9796         estimate D2E/DX2                !
 ! A47   A(16,18,19)           123.6535         estimate D2E/DX2                !
 ! A48   A(16,18,25)           125.3489         estimate D2E/DX2                !
 ! A49   A(19,18,25)           110.9975         estimate D2E/DX2                !
 ! A50   A(18,19,20)            92.5207         estimate D2E/DX2                !
 ! A51   A(19,20,21)           109.4657         estimate D2E/DX2                !
 ! A52   A(19,20,38)           118.7611         estimate D2E/DX2                !
 ! A53   A(21,20,38)           131.7732         estimate D2E/DX2                !
 ! A54   A(20,21,22)           136.3799         estimate D2E/DX2                !
 ! A55   A(20,21,25)           115.5877         estimate D2E/DX2                !
 ! A56   A(22,21,25)           108.0323         estimate D2E/DX2                !
 ! A57   A(21,22,23)           114.4169         estimate D2E/DX2                !
 ! A58   A(21,22,39)           125.6462         estimate D2E/DX2                !
 ! A59   A(23,22,39)           119.9369         estimate D2E/DX2                !
 ! A60   A(22,23,24)           116.2799         estimate D2E/DX2                !
 ! A61   A(22,23,40)           129.4185         estimate D2E/DX2                !
 ! A62   A(24,23,40)           114.3015         estimate D2E/DX2                !
 ! A63   A(23,24,25)            86.2605         estimate D2E/DX2                !
 ! A64   A(18,25,21)           111.4283         estimate D2E/DX2                !
 ! A65   A(18,25,24)           133.5618         estimate D2E/DX2                !
 ! A66   A(21,25,24)           115.0099         estimate D2E/DX2                !
 ! A67   A(12,26,27)           126.8076         estimate D2E/DX2                !
 ! A68   A(12,26,30)           117.9291         estimate D2E/DX2                !
 ! A69   A(27,26,30)           115.2633         estimate D2E/DX2                !
 ! A70   A(26,27,28)           106.5914         estimate D2E/DX2                !
 ! A71   A(27,28,29)            98.633          estimate D2E/DX2                !
 ! A72   A(28,29,30)           110.1886         estimate D2E/DX2                !
 ! A73   A(9,30,26)            120.9515         estimate D2E/DX2                !
 ! A74   A(9,30,29)            129.7252         estimate D2E/DX2                !
 ! A75   A(26,30,29)           109.3233         estimate D2E/DX2                !
 ! D1    D(8,1,2,3)             -0.0263         estimate D2E/DX2                !
 ! D2    D(8,1,2,33)          -179.9071         estimate D2E/DX2                !
 ! D3    D(31,1,2,3)          -118.4004         estimate D2E/DX2                !
 ! D4    D(31,1,2,33)           61.7188         estimate D2E/DX2                !
 ! D5    D(32,1,2,3)           118.3202         estimate D2E/DX2                !
 ! D6    D(32,1,2,33)          -61.5606         estimate D2E/DX2                !
 ! D7    D(2,1,8,4)             -0.0109         estimate D2E/DX2                !
 ! D8    D(2,1,8,7)           -179.9485         estimate D2E/DX2                !
 ! D9    D(31,1,8,4)           116.6752         estimate D2E/DX2                !
 ! D10   D(31,1,8,7)           -63.2624         estimate D2E/DX2                !
 ! D11   D(32,1,8,4)          -116.4302         estimate D2E/DX2                !
 ! D12   D(32,1,8,7)            63.6323         estimate D2E/DX2                !
 ! D13   D(1,2,3,4)              0.0539         estimate D2E/DX2                !
 ! D14   D(1,2,3,34)          -179.9215         estimate D2E/DX2                !
 ! D15   D(33,2,3,4)           179.9263         estimate D2E/DX2                !
 ! D16   D(33,2,3,34)           -0.049          estimate D2E/DX2                !
 ! D17   D(2,3,4,5)            179.8619         estimate D2E/DX2                !
 ! D18   D(2,3,4,8)             -0.06           estimate D2E/DX2                !
 ! D19   D(34,3,4,5)            -0.1621         estimate D2E/DX2                !
 ! D20   D(34,3,4,8)           179.9161         estimate D2E/DX2                !
 ! D21   D(3,4,5,6)           -179.9567         estimate D2E/DX2                !
 ! D22   D(3,4,5,35)             0.016          estimate D2E/DX2                !
 ! D23   D(8,4,5,6)             -0.0388         estimate D2E/DX2                !
 ! D24   D(8,4,5,35)           179.9339         estimate D2E/DX2                !
 ! D25   D(3,4,8,1)              0.0422         estimate D2E/DX2                !
 ! D26   D(3,4,8,7)            179.9968         estimate D2E/DX2                !
 ! D27   D(5,4,8,1)           -179.8982         estimate D2E/DX2                !
 ! D28   D(5,4,8,7)              0.0563         estimate D2E/DX2                !
 ! D29   D(4,5,6,7)              0.01           estimate D2E/DX2                !
 ! D30   D(35,5,6,7)          -179.966          estimate D2E/DX2                !
 ! D31   D(5,6,7,8)              0.0207         estimate D2E/DX2                !
 ! D32   D(5,6,7,9)            179.966          estimate D2E/DX2                !
 ! D33   D(6,7,8,1)            179.8912         estimate D2E/DX2                !
 ! D34   D(6,7,8,4)             -0.0453         estimate D2E/DX2                !
 ! D35   D(9,7,8,1)             -0.0473         estimate D2E/DX2                !
 ! D36   D(9,7,8,4)           -179.9838         estimate D2E/DX2                !
 ! D37   D(6,7,9,10)            -0.6418         estimate D2E/DX2                !
 ! D38   D(6,7,9,30)           179.3867         estimate D2E/DX2                !
 ! D39   D(8,7,9,10)           179.291          estimate D2E/DX2                !
 ! D40   D(8,7,9,30)            -0.6805         estimate D2E/DX2                !
 ! D41   D(7,9,10,11)         -179.9384         estimate D2E/DX2                !
 ! D42   D(7,9,10,36)            0.0989         estimate D2E/DX2                !
 ! D43   D(30,9,10,11)           0.0351         estimate D2E/DX2                !
 ! D44   D(30,9,10,36)        -179.9276         estimate D2E/DX2                !
 ! D45   D(7,9,30,26)          179.8803         estimate D2E/DX2                !
 ! D46   D(7,9,30,29)           -0.2075         estimate D2E/DX2                !
 ! D47   D(10,9,30,26)          -0.0934         estimate D2E/DX2                !
 ! D48   D(10,9,30,29)         179.8189         estimate D2E/DX2                !
 ! D49   D(9,10,11,12)          -0.0239         estimate D2E/DX2                !
 ! D50   D(36,10,11,12)        179.9421         estimate D2E/DX2                !
 ! D51   D(10,11,12,13)       -179.9831         estimate D2E/DX2                !
 ! D52   D(10,11,12,26)          0.0727         estimate D2E/DX2                !
 ! D53   D(11,12,13,14)        179.8226         estimate D2E/DX2                !
 ! D54   D(11,12,13,17)          0.1358         estimate D2E/DX2                !
 ! D55   D(26,12,13,14)         -0.2336         estimate D2E/DX2                !
 ! D56   D(26,12,13,17)       -179.9203         estimate D2E/DX2                !
 ! D57   D(11,12,26,27)        179.8883         estimate D2E/DX2                !
 ! D58   D(11,12,26,30)         -0.1281         estimate D2E/DX2                !
 ! D59   D(13,12,26,27)         -0.0547         estimate D2E/DX2                !
 ! D60   D(13,12,26,30)        179.929          estimate D2E/DX2                !
 ! D61   D(12,13,14,15)        179.3127         estimate D2E/DX2                !
 ! D62   D(12,13,14,37)         -0.5133         estimate D2E/DX2                !
 ! D63   D(17,13,14,15)         -0.9942         estimate D2E/DX2                !
 ! D64   D(17,13,14,37)        179.1798         estimate D2E/DX2                !
 ! D65   D(12,13,17,16)       -179.1248         estimate D2E/DX2                !
 ! D66   D(14,13,17,16)          1.1009         estimate D2E/DX2                !
 ! D67   D(13,14,15,16)          0.2522         estimate D2E/DX2                !
 ! D68   D(37,14,15,16)       -179.9113         estimate D2E/DX2                !
 ! D69   D(14,15,16,17)          0.6151         estimate D2E/DX2                !
 ! D70   D(14,15,16,18)       -179.6102         estimate D2E/DX2                !
 ! D71   D(15,16,17,13)         -1.0388         estimate D2E/DX2                !
 ! D72   D(18,16,17,13)        179.1577         estimate D2E/DX2                !
 ! D73   D(15,16,18,19)         -0.5376         estimate D2E/DX2                !
 ! D74   D(15,16,18,25)        179.5342         estimate D2E/DX2                !
 ! D75   D(17,16,18,19)        179.2347         estimate D2E/DX2                !
 ! D76   D(17,16,18,25)         -0.6935         estimate D2E/DX2                !
 ! D77   D(16,18,19,20)       -179.8563         estimate D2E/DX2                !
 ! D78   D(25,18,19,20)          0.081          estimate D2E/DX2                !
 ! D79   D(16,18,25,21)        179.8577         estimate D2E/DX2                !
 ! D80   D(16,18,25,24)         -0.1243         estimate D2E/DX2                !
 ! D81   D(19,18,25,21)         -0.0783         estimate D2E/DX2                !
 ! D82   D(19,18,25,24)        179.9397         estimate D2E/DX2                !
 ! D83   D(18,19,20,21)         -0.0622         estimate D2E/DX2                !
 ! D84   D(18,19,20,38)        179.9269         estimate D2E/DX2                !
 ! D85   D(19,20,21,22)       -179.9705         estimate D2E/DX2                !
 ! D86   D(19,20,21,25)          0.0286         estimate D2E/DX2                !
 ! D87   D(38,20,21,22)          0.0423         estimate D2E/DX2                !
 ! D88   D(38,20,21,25)       -179.9586         estimate D2E/DX2                !
 ! D89   D(20,21,22,23)       -179.8603         estimate D2E/DX2                !
 ! D90   D(20,21,22,39)          0.1011         estimate D2E/DX2                !
 ! D91   D(25,21,22,23)          0.1406         estimate D2E/DX2                !
 ! D92   D(25,21,22,39)       -179.898          estimate D2E/DX2                !
 ! D93   D(20,21,25,18)          0.0321         estimate D2E/DX2                !
 ! D94   D(20,21,25,24)       -179.9823         estimate D2E/DX2                !
 ! D95   D(22,21,25,18)       -179.9685         estimate D2E/DX2                !
 ! D96   D(22,21,25,24)          0.0171         estimate D2E/DX2                !
 ! D97   D(21,22,23,24)         -0.257          estimate D2E/DX2                !
 ! D98   D(21,22,23,40)        179.8647         estimate D2E/DX2                !
 ! D99   D(39,22,23,24)        179.7792         estimate D2E/DX2                !
 ! D100  D(39,22,23,40)         -0.0991         estimate D2E/DX2                !
 ! D101  D(22,23,24,25)          0.2104         estimate D2E/DX2                !
 ! D102  D(40,23,24,25)       -179.8927         estimate D2E/DX2                !
 ! D103  D(23,24,25,18)        179.8534         estimate D2E/DX2                !
 ! D104  D(23,24,25,21)         -0.1281         estimate D2E/DX2                !
 ! D105  D(12,26,27,28)        179.8341         estimate D2E/DX2                !
 ! D106  D(30,26,27,28)         -0.1499         estimate D2E/DX2                !
 ! D107  D(12,26,30,9)           0.1421         estimate D2E/DX2                !
 ! D108  D(12,26,30,29)       -179.7864         estimate D2E/DX2                !
 ! D109  D(27,26,30,9)        -179.8724         estimate D2E/DX2                !
 ! D110  D(27,26,30,29)          0.1992         estimate D2E/DX2                !
 ! D111  D(26,27,28,29)          0.0543         estimate D2E/DX2                !
 ! D112  D(27,28,29,30)          0.0602         estimate D2E/DX2                !
 ! D113  D(28,29,30,9)         179.9339         estimate D2E/DX2                !
 ! D114  D(28,29,30,26)         -0.1459         estimate D2E/DX2                !
 --------------------------------------------------------------------------------
 Trust Radius=3.00D-01 FncErr=1.00D-07 GrdErr=1.00D-06
 Number of steps in this run=    240 maximum allowed number of steps=    240.
 GradGradGradGradGradGradGradGradGradGradGradGradGradGradGradGradGradGrad

                          Input orientation:                          
 ---------------------------------------------------------------------
 Center     Atomic      Atomic             Coordinates (Angstroms)
 Number     Number       Type             X           Y           Z
 ---------------------------------------------------------------------
      1          6           0       -1.379920    1.098160    0.003500
      2          6           0       -2.200680   -0.173870    0.004260
      3          6           0       -1.413050   -1.259570    0.000740
      4          6           0       -0.049660   -0.867160   -0.001350
      5          6           0        1.148570   -1.490260   -0.002650
      6         16           0        2.402150   -0.324940   -0.003800
      7          6           0        1.288480    1.012240   -0.002200
      8          6           0        0.003360    0.538020   -0.000380
      9          6           0        1.776870    2.370560   -0.001690
     10          6           0        3.130610    2.688810    0.010640
     11          7           0        3.621540    3.936690    0.012710
     12          6           0        2.794420    5.028560    0.001960
     13          6           0        3.372530    6.318550    0.004440
     14          6           0        2.936000    7.621620   -0.005900
     15          7           0        3.951670    8.576950    0.018530
     16          6           0        5.111640    7.949950    0.040760
     17         16           0        5.015730    6.280830    0.016980
     18          6           0        6.419130    8.505400    0.077540
     19         16           0        6.734740   10.185390    0.087420
     20          6           0        8.442310    9.941560    0.130500
     21          6           0        8.708560    8.613720    0.137170
     22          6           0        9.881630    7.790890    0.167250
     23          6           0        9.624440    6.418520    0.157340
     24         16           0        7.982180    5.958040    0.118650
     25          6           0        7.597990    7.778710    0.108490
     26          6           0        1.428530    4.867220   -0.009820
     27          7           0        0.502720    5.841370   -0.019000
     28         16           0       -0.954840    5.100180   -0.035480
     29          7           0       -0.439710    3.544250   -0.029740
     30          6           0        0.898650    3.500570   -0.013320
     31          1           0       -1.588350    1.674450    0.911590
     32          1           0       -1.595480    1.672440   -0.904010
     33          1           0       -3.281650   -0.150190    0.005400
     34          1           0       -1.743060   -2.286320   -0.000770
     35          1           0        1.392160   -2.543270   -0.002630
     36          1           0        3.916760    1.931860    0.019200
     37          1           0        1.899870    7.936750   -0.028020
     38          1           0        9.088200   10.802540    0.146650
     39          1           0       10.897830    8.147200    0.195000
     40          1           0       10.317830    5.590820    0.172420
 ---------------------------------------------------------------------
                    Distance matrix (angstroms):
                    1          2          3          4          5
     1  C    0.000000
     2  C    1.513839   0.000000
     3  C    2.357964   1.341312   0.000000
     4  C    2.373204   2.259993   1.418740   0.000000
     5  C    3.618455   3.598667   2.571989   1.350559   0.000000
     6  S    4.040955   4.605316   3.928015   2.511052   1.711559
     7  C    2.669789   3.685259   3.529787   2.307112   2.506408
     8  C    1.492393   2.316161   2.288569   1.406180   2.329255
     9  C    3.403579   4.721765   4.832540   3.717397   3.911610
    10  C    4.782792   6.051250   6.019522   4.770659   4.625288
    11  N    5.750821   7.127063   7.235216   6.046063   5.963858
    12  C    5.733512   7.212233   7.565936   6.545863   6.723381
    13  C    7.059621   8.556412   8.962683   7.959010   8.119333
    14  C    7.821942   9.335698   9.888873   8.998532   9.285541
    15  N    9.184682  10.697124  11.204359  10.256815  10.450193
    16  C    9.438685  10.930133  11.286649  10.216762  10.238426
    17  S    8.231925   9.681936   9.908941   8.760837   8.680159
    18  C   10.756294  12.232589  12.518130  11.388430  11.300374
    19  S   12.183288  13.680750  14.049239  12.968995  12.943501
    20  C   13.217339  14.683702  14.920130  13.746249  13.561080
    21  C   12.580896  14.008959  14.140278  12.907854  12.619961
    22  C   13.101220  14.472256  14.474403  13.176524  12.744997
    23  C   12.223986  13.539442  13.446329  12.111752  11.593738
    24  S   10.548962  11.887138  11.848128  10.540788  10.108913
    25  C   11.191230  12.620156  12.763266  11.543383  11.292527
    26  C    4.700360   6.211598   6.753684   5.921844   6.363645
    27  N    5.103223   6.594848   7.354856   6.731256   7.360040
    28  S    4.024721   5.419345   6.376338   6.035699   6.918042
    29  N    2.620774   4.114193   4.901531   4.428711   5.279172
    30  C    3.311154   4.807043   5.291794   4.469508   4.997095
    31  H    1.095528   2.148135   3.077150   3.108184   4.282751
    32  H    1.095371   2.144780   3.073847   3.107076   4.283098
    33  H    2.274853   1.081230   2.173111   3.310567   4.628466
    34  H    3.403909   2.161455   1.078482   2.209439   2.999206
    35  H    4.576514   4.303789   3.084980   2.210925   1.080817
    36  H    5.361914   6.469729   6.212281   4.854629   4.401620
    37  H    7.584479   9.088328   9.774895   9.017217   9.456935
    38  H   14.275049  15.746132  15.993500  14.822425  14.634649
    39  H   14.158700  15.519264  15.494606  14.182552  13.710134
    40  H   12.531954  13.783070  13.585686  12.215586  11.586530
                    6          7          8          9         10
     6  S    0.000000
     7  C    1.740205   0.000000
     8  C    2.549295   1.369825   0.000000
     9  C    2.767074   1.443454   2.550204   0.000000
    10  C    3.100573   2.490882   3.795486   1.390700   0.000000
    11  N    4.432683   3.741096   4.964107   2.419871   1.340978
    12  C    5.367855   4.289370   5.287246   2.846118   2.363795
    13  C    6.713990   5.700898   6.690729   4.258262   3.637798
    14  C    7.964472   6.811625   7.666668   5.377474   4.936675
    15  N    9.035771   8.019841   8.956222   6.576431   5.945115
    16  C    8.707303   7.921504   9.001829   6.500160   5.621831
    17  S    7.104043   6.453743   7.622599   5.077477   4.056640
    18  C    9.701425   9.081705  10.229727   7.693706   6.682182
    19  S   11.368672  10.668480  11.763968   9.255268   8.318315
    20  C   11.912287  11.442362  12.635647  10.087894   8.990601
    21  C   10.940307  10.623536  11.875031   9.329773   8.138433
    22  C   11.038051  10.946280  12.256119   9.751700   8.463570
    23  C    9.882393   9.936878  11.276983   8.831513   7.490133
    24  S    8.404021   8.323531   9.646365   7.168707   5.851262
    25  C    9.626968   9.252420  10.493705   7.946425   6.773045
    26  C    5.282660   3.857531   4.557759   2.520857   2.764591
    27  N    6.452243   4.892668   5.326840   3.697334   4.104305
    28  S    6.379836   4.663137   4.661833   3.861892   4.744232
    29  N    4.800778   3.065693   3.038847   2.508299   3.671593
    30  C    4.110369   2.518705   3.094901   1.431198   2.375116
    31  H    4.556269   3.090256   2.157940   3.555750   4.910114
    32  H    4.558613   3.092952   2.158644   3.560098   4.919910
    33  H    5.686493   4.715654   3.356331   5.651801   7.012633
    34  H    4.585825   4.480037   3.320675   5.837503   6.964532
    35  H    2.437431   3.557021   3.379810   4.928867   5.513352
    36  H    2.718036   2.784603   4.154260   2.184496   1.091365
    37  H    8.276980   6.951496   7.637979   5.567611   5.390463
    38  H   12.982554  12.518297  13.708257  11.161355  10.066975
    39  H   11.999719  11.970219  13.290119  10.798156   9.495142
    40  H    9.883585  10.125367  11.486903   9.129534   7.752675
                   11         12         13         14         15
    11  N    0.000000
    12  C    1.369826   0.000000
    13  C    2.394855   1.413609   0.000000
    14  C    3.748202   2.596934   1.374284   0.000000
    15  N    4.651992   3.732368   2.331517   1.394574   0.000000
    16  C    4.281056   3.729012   2.384804   2.200770   1.318770
    17  S    2.727412   2.550024   1.643681   2.474574   2.530690
    18  C    5.357595   5.023211   3.750924   3.594471   2.469202
    19  S    6.981679   6.490479   5.124821   4.583890   3.215168
    20  C    7.701439   7.486839   6.232557   5.976636   4.694736
    21  C    6.911431   6.917276   5.810218   5.858940   4.758511
    22  C    7.353058   7.608307   6.675528   6.949850   5.983681
    23  C    6.497323   6.971750   6.254578   6.797744   6.071113
    24  S    4.807521   5.271660   4.625136   5.314785   4.807673
    25  C    5.530140   5.536150   4.471846   4.666038   3.733755
    26  C    2.382370   1.375436   2.426046   3.139936   4.486551
    27  N    3.654566   2.431664   2.909306   3.015015   4.402279
    28  S    4.722212   3.750131   4.495792   4.636504   6.013708
    29  N    4.080388   3.558620   4.714985   5.293480   6.679417
    30  C    2.757718   2.434940   3.749855   4.597163   5.923815
    31  H    5.750536   5.593403   6.855721   7.528636   8.895723
    32  H    5.760599   5.599602   6.862415   7.532175   8.904730
    33  H    8.022261   7.983614   9.280232   9.952906  11.335081
    34  H    8.216141   8.607915  10.010648  10.957231  12.265438
    35  H    6.852755   7.700582   9.080406  10.281461  11.410996
    36  H    2.026460   3.293857   4.420345   5.773724   6.645182
    37  H    4.355030   3.042809   2.188230   1.083218   2.149862
    38  H    8.777369   8.542333   7.266036   6.927560   5.599429
    39  H    8.408687   8.684954   7.746639   7.981687   6.961678
    40  H    6.899417   7.546316   6.985342   7.658156   7.033395
                   16         17         18         19         20
    16  C    0.000000
    17  S    1.672042   0.000000
    18  C    1.421059   2.630952   0.000000
    19  S    2.762937   4.266796   1.709407   0.000000
    20  C    3.881743   5.015504   2.481656   1.725429   0.000000
    21  C    3.658923   4.369647   2.292767   2.523606   1.354287
    22  C    4.774317   5.097043   3.536591   3.955113   2.588122
    23  C    4.766994   4.612902   3.825630   4.748112   3.716176
    24  S    3.494821   2.985692   2.988956   4.407672   4.010024
    25  C    2.493160   2.986651   1.385188   2.556903   2.321913
    26  C    4.803237   3.855777   6.176575   7.513205   8.658044
    27  N    5.068710   4.534499   6.489244   7.597362   8.937058
    28  S    6.702923   6.086410   8.123037   9.219767  10.572272
    29  N    7.087500   6.103514   8.465708   9.777075  10.947216
    30  C    6.127740   4.968009   7.451998   8.874509   9.920375
    31  H    9.221177   8.101416  10.558279  11.932694  13.021880
    32  H    9.234998   8.111324  10.577654  11.951812  13.046294
    33  H   11.664512  10.497841  13.001137  14.393019  15.469658
    34  H   12.319491  10.912269  13.531027  15.080597  15.914774
    35  H   11.133018   9.539150  12.138779  13.804711  14.338526
    36  H    6.135602   4.485675   7.033967   8.721607   9.200450
    37  H    3.212533   3.528835   4.556119   5.333449   6.844554
    38  H    4.895050   6.086681   3.522153   2.433754   1.076439
    39  H    5.791605   6.173664   4.494536   4.636498   3.041951
    40  H    5.717276   5.349069   4.868638   5.827163   4.737961
                   21         22         23         24         25
    21  C    0.000000
    22  C    1.433195   0.000000
    23  C    2.378686   1.396297   0.000000
    24  S    2.753290   2.640002   1.706035   0.000000
    25  C    1.389759   2.284428   2.441107   1.860791   0.000000
    26  C    8.188816   8.946178   8.343106   6.645052   6.822976
    27  N    8.662917   9.581194   9.141661   7.481636   7.356113
    28  S   10.283777  11.167368  10.662850   8.979421   8.963601
    29  N   10.460317  11.162563  10.468216   8.762228   9.085944
    30  C    9.336040   9.956575   9.202335   7.498865   7.949747
    31  H   12.441043  13.020189  12.198432  10.515367  11.058743
    32  H   12.467504  13.050176  12.228587  10.542475  11.082941
    33  H   14.852226  15.373968  14.482341  12.813944  13.462713
    34  H   15.101863  15.385441  14.318495  12.750060  13.732151
    35  H   13.342701  13.375157  12.170033  10.757107  12.044416
    36  H    8.223291   8.362405   7.261323   5.722557   6.909782
    37  H    6.844256   7.985480   7.874539   6.397757   5.701946
    38  H    2.221520   3.114481   4.416707   4.969230   3.371310
    39  H    2.239171   1.077214   2.147388   3.646816   3.321478
    40  H    3.424751   2.242901   1.079863   2.364953   3.491200
                   26         27         28         29         30
    26  C    0.000000
    27  N    1.343941   0.000000
    28  S    2.394866   1.635272   0.000000
    29  N    2.289316   2.482952   1.638997   0.000000
    30  C    1.465782   2.374055   2.448401   1.339173   0.000000
    31  H    4.488245   4.754134   3.610250   2.387808   3.221078
    32  H    4.488968   4.750333   3.593628   2.367240   3.218085
    33  H    6.881891   7.086667   5.743005   4.661196   5.550073
    34  H    7.825101   8.432272   7.428518   5.974538   6.361359
    35  H    7.410583   8.431700   7.995737   6.357231   6.063965
    36  H    3.848177   5.190510   5.811517   4.645538   3.401602
    37  H    3.105561   2.518477   4.024370   4.976715   4.547785
    38  H    9.691391   9.917213  11.550443  11.978938  10.973290
    39  H   10.023366  10.649928  12.240230  12.238361  11.028063
    40  H    8.920564   9.820173  11.285258  10.952351   9.650109
                   31         32         33         34         35
    31  H    0.000000
    32  H    1.815615   0.000000
    33  H    2.649105   2.644272   0.000000
    34  H    4.067436   4.063176   2.632556   0.000000
    35  H    5.244845   5.245063   5.250847   3.145732   0.000000
    36  H    5.582907   5.595034   7.493479   7.058825   5.138178
    37  H    7.229588   7.226784   9.604575  10.852780  10.492342
    38  H   14.067547  14.092680  16.522573  16.989885  15.406556
    39  H   14.082425  14.114288  16.429859  16.391729  14.306746
    40  H   12.555535  12.587270  14.762552  14.406401  12.077320
                   36         37         38         39         40
    36  H    0.000000
    37  H    6.334728   0.000000
    38  H   10.268836   7.740501   0.000000
    39  H    9.348620   9.003183   3.213710   0.000000
    40  H    7.374630   8.741031   5.354874   2.621448   0.000000
 Stoichiometry    C21H10N4S5
 Framework group  C1[X(C21H10N4S5)]
 Deg. of freedom   114
 Full point group                 C1      NOp   1
 Largest Abelian subgroup         C1      NOp   1
 Largest concise Abelian subgroup C1      NOp   1
                         Standard orientation:                         
 ---------------------------------------------------------------------
 Center     Atomic      Atomic             Coordinates (Angstroms)
 Number     Number       Type             X           Y           Z
 ---------------------------------------------------------------------
      1          6           0        5.967907   -0.825812    0.042948
      2          6           0        7.446473   -0.501140    0.054680
      3          6           0        7.652439    0.824125    0.035508
      4          6           0        6.408496    1.505922    0.011370
      5          6           0        5.997165    2.792116   -0.011458
      6         16           0        4.286632    2.848035   -0.031094
      7          6           0        4.134892    1.114615   -0.007802
      8          6           0        5.380928    0.546007    0.014569
      9          6           0        2.831385    0.494610   -0.012486
     10          6           0        1.646386    1.222435   -0.022209
     11          7           0        0.418865    0.682621   -0.025621
     12          6           0        0.236724   -0.675030   -0.020040
     13          6           0       -1.082335   -1.183319   -0.024414
     14          6           0       -1.690446   -2.415738   -0.024520
     15          7           0       -3.084478   -2.378018   -0.015046
     16          6           0       -3.466155   -1.115690   -0.013713
     17         16           0       -2.221972    0.001031   -0.039584
     18          6           0       -4.785692   -0.588457    0.002315
     19         16           0       -6.193297   -1.558329    0.010619
     20          6           0       -7.233728   -0.181951    0.024444
     21          6           0       -6.487291    0.948059    0.023688
     22          6           0       -6.740386    2.358704    0.032215
     23          6           0       -5.590952    3.151403    0.023582
     24         16           0       -4.100735    2.320943    0.011484
     25          6           0       -5.110634    0.758046    0.011828
     26          6           0        1.319798   -1.522767   -0.009214
     27          7           0        1.290608   -2.866364   -0.000665
     28         16           0        2.847281   -3.367206    0.005715
     29          7           0        3.577799   -1.900028   -0.000661
     30          6           0        2.658647   -0.926114   -0.006840
     31          1           0        5.700413   -1.369436    0.955691
     32          1           0        5.725711   -1.397396   -0.859533
     33          1           0        8.196878   -1.279327    0.074046
     34          1           0        8.609976    1.320355    0.037266
     35          1           0        6.566136    3.711026   -0.017872
     36          1           0        1.621677    2.313502   -0.028548
     37          1           0       -1.176943   -3.369499   -0.028518
     38          1           0       -8.298795   -0.337841    0.031646
     39          1           0       -7.712826    2.821973    0.043669
     40          1           0       -5.500061    4.227433    0.025165
 ---------------------------------------------------------------------
 Rotational constants (GHZ):      0.2935002      0.0512261      0.0436284
 Standard basis: 6-31++G(d,p) (6D, 7F)
 There are   650 symmetry adapted basis functions of A   symmetry.
 Integral buffers will be    131072 words long.
 Raffenetti 2 integral format.
 Two-electron integral symmetry is turned on.
   650 basis functions,  1160 primitive gaussians,   650 cartesian basis functions
   122 alpha electrons      122 beta electrons
       nuclear repulsion energy      3414.7860770267 Hartrees.
 NAtoms=   40 NActive=   40 NUniq=   40 SFac= 1.00D+00 NAtFMM=   60 NAOKFM=F Big=F
 One-electron integrals computed using PRISM.
 NBasis=   650 RedAO= T  NBF=   650
 NBsUse=   640 1.00D-06 NBFU=   640
 Harris functional with IExCor=  402 diagonalized for initial guess.
 ExpMin= 3.60D-02 ExpMax= 2.19D+04 ExpMxC= 3.30D+03 IAcc=3 IRadAn=         5 AccDes= 0.00D+00
 HarFok:  IExCor=  402 AccDes= 0.00D+00 IRadAn=         5 IDoV= 1
 ScaDFX=  1.000000  1.000000  1.000000  1.000000
 FoFCou: FMM=F IPFlag=           0 FMFlag=      100000 FMFlg1=           0
         NFxFlg=           0 DoJE=T BraDBF=F KetDBF=T FulRan=T
         Omega=  0.000000  0.000000  1.000000  0.000000  0.000000 ICntrl=     500 IOpCl=  0
         NMat0=    1 NMatS0=    1 NMatT0=    0 NMatD0=    1 NMtDS0=    0 NMtDT0=    0
         I1Cent=           4 NGrid=           0.
 Petite list used in FoFCou.
 Initial guess orbital symmetries:
       Occupied  (A) (A) (A) (A) (A) (A) (A) (A) (A) (A) (A) (A)
                 (A) (A) (A) (A) (A) (A) (A) (A) (A) (A) (A) (A)
                 (A) (A) (A) (A) (A) (A) (A) (A) (A) (A) (A) (A)
                 (A) (A) (A) (A) (A) (A) (A) (A) (A) (A) (A) (A)
                 (A) (A) (A) (A) (A) (A) (A) (A) (A) (A) (A) (A)
                 (A) (A) (A) (A) (A) (A) (A) (A) (A) (A) (A) (A)
                 (A) (A) (A) (A) (A) (A) (A) (A) (A) (A) (A) (A)
                 (A) (A) (A) (A) (A) (A) (A) (A) (A) (A) (A) (A)
                 (A) (A) (A) (A) (A) (A) (A) (A) (A) (A) (A) (A)
                 (A) (A) (A) (A) (A) (A) (A) (A) (A) (A) (A) (A)
                 (A) (A)
       Virtual   (A) (A) (A) (A) (A) (A) (A) (A) (A) (A) (A) (A)
                 (A) (A) (A) (A) (A) (A) (A) (A) (A) (A) (A) (A)
                 (A) (A) (A) (A) (A) (A) (A) (A) (A) (A) (A) (A)
                 (A) (A) (A) (A) (A) (A) (A) (A) (A) (A) (A) (A)
                 (A) (A) (A) (A) (A) (A) (A) (A) (A) (A) (A) (A)
                 (A) (A) (A) (A) (A) (A) (A) (A) (A) (A) (A) (A)
                 (A) (A) (A) (A) (A) (A) (A) (A) (A) (A) (A) (A)
                 (A) (A) (A) (A) (A) (A) (A) (A) (A) (A) (A) (A)
                 (A) (A) (A) (A) (A) (A) (A) (A) (A) (A) (A) (A)
                 (A) (A) (A) (A) (A) (A) (A) (A) (A) (A) (A) (A)
                 (A) (A) (A) (A) (A) (A) (A) (A) (A) (A) (A) (A)
                 (A) (A) (A) (A) (A) (A) (A) (A) (A) (A) (A) (A)
                 (A) (A) (A) (A) (A) (A) (A) (A) (A) (A) (A) (A)
                 (A) (A) (A) (A) (A) (A) (A) (A) (A) (A) (A) (A)
                 (A) (A) (A) (A) (A) (A) (A) (A) (A) (A) (A) (A)
                 (A) (A) (A) (A) (A) (A) (A) (A) (A) (A) (A) (A)
                 (A) (A) (A) (A) (A) (A) (A) (A) (A) (A) (A) (A)
                 (A) (A) (A) (A) (A) (A) (A) (A) (A) (A) (A) (A)
                 (A) (A) (A) (A) (A) (A) (A) (A) (A) (A) (A) (A)
                 (A) (A) (A) (A) (A) (A) (A) (A) (A) (A) (A) (A)
                 (A) (A) (A) (A) (A) (A) (A) (A) (A) (A) (A) (A)
                 (A) (A) (A) (A) (A) (A) (A) (A) (A) (A) (A) (A)
                 (A) (A) (A) (A) (A) (A) (A) (A) (A) (A) (A) (A)
                 (A) (A) (A) (A) (A) (A) (A) (A) (A) (A) (A) (A)
                 (A) (A) (A) (A) (A) (A) (A) (A) (A) (A) (A) (A)
                 (A) (A) (A) (A) (A) (A) (A) (A) (A) (A) (A) (A)
                 (A) (A) (A) (A) (A) (A) (A) (A) (A) (A) (A) (A)
                 (A) (A) (A) (A) (A) (A) (A) (A) (A) (A) (A) (A)
                 (A) (A) (A) (A) (A) (A) (A) (A) (A) (A) (A) (A)
                 (A) (A) (A) (A) (A) (A) (A) (A) (A) (A) (A) (A)
                 (A) (A) (A) (A) (A) (A) (A) (A) (A) (A) (A) (A)
                 (A) (A) (A) (A) (A) (A) (A) (A) (A) (A) (A) (A)
                 (A) (A) (A) (A) (A) (A) (A) (A) (A) (A) (A) (A)
                 (A) (A) (A) (A) (A) (A) (A) (A) (A) (A) (A) (A)
                 (A) (A) (A) (A) (A) (A) (A) (A) (A) (A) (A) (A)
                 (A) (A) (A) (A) (A) (A) (A) (A) (A) (A) (A) (A)
                 (A) (A) (A) (A) (A) (A) (A) (A) (A) (A) (A) (A)
                 (A) (A) (A) (A) (A) (A) (A) (A) (A) (A) (A) (A)
                 (A) (A) (A) (A) (A) (A) (A) (A) (A) (A) (A) (A)
                 (A) (A) (A) (A) (A) (A) (A) (A) (A) (A) (A) (A)
                 (A) (A) (A) (A) (A) (A) (A) (A) (A) (A) (A) (A)
                 (A) (A) (A) (A) (A) (A) (A) (A) (A) (A) (A) (A)
                 (A) (A) (A) (A) (A) (A) (A) (A) (A) (A) (A) (A)
                 (A) (A)
 The electronic state of the initial guess is 1-A.
 Requested convergence on RMS density matrix=1.00D-08 within 128 cycles.
 Requested convergence on MAX density matrix=1.00D-06.
 Requested convergence on             energy=1.00D-06.
 No special actions if energy rises.
 EnCoef did     5 forward-backward iterations
 Restarting incremental Fock formation.
 SCF Done:  E(RB3LYP) =  -3016.13787817     A.U. after   25 cycles
             Convg  =    0.2284D-08             -V/T =  2.0050

 **********************************************************************

            Population analysis using the SCF density.

 **********************************************************************

 Orbital symmetries:
       Occupied  (A) (A) (A) (A) (A) (A) (A) (A) (A) (A) (A) (A)
                 (A) (A) (A) (A) (A) (A) (A) (A) (A) (A) (A) (A)
                 (A) (A) (A) (A) (A) (A) (A) (A) (A) (A) (A) (A)
                 (A) (A) (A) (A) (A) (A) (A) (A) (A) (A) (A) (A)
                 (A) (A) (A) (A) (A) (A) (A) (A) (A) (A) (A) (A)
                 (A) (A) (A) (A) (A) (A) (A) (A) (A) (A) (A) (A)
                 (A) (A) (A) (A) (A) (A) (A) (A) (A) (A) (A) (A)
                 (A) (A) (A) (A) (A) (A) (A) (A) (A) (A) (A) (A)
                 (A) (A) (A) (A) (A) (A) (A) (A) (A) (A) (A) (A)
                 (A) (A) (A) (A) (A) (A) (A) (A) (A) (A) (A) (A)
                 (A) (A)
       Virtual   (A) (A) (A) (A) (A) (A) (A) (A) (A) (A) (A) (A)
                 (A) (A) (A) (A) (A) (A) (A) (A) (A) (A) (A) (A)
                 (A) (A) (A) (A) (A) (A) (A) (A) (A) (A) (A) (A)
                 (A) (A) (A) (A) (A) (A) (A) (A) (A) (A) (A) (A)
                 (A) (A) (A) (A) (A) (A) (A) (A) (A) (A) (A) (A)
                 (A) (A) (A) (A) (A) (A) (A) (A) (A) (A) (A) (A)
                 (A) (A) (A) (A) (A) (A) (A) (A) (A) (A) (A) (A)
                 (A) (A) (A) (A) (A) (A) (A) (A) (A) (A) (A) (A)
                 (A) (A) (A) (A) (A) (A) (A) (A) (A) (A) (A) (A)
                 (A) (A) (A) (A) (A) (A) (A) (A) (A) (A) (A) (A)
                 (A) (A) (A) (A) (A) (A) (A) (A) (A) (A) (A) (A)
                 (A) (A) (A) (A) (A) (A) (A) (A) (A) (A) (A) (A)
                 (A) (A) (A) (A) (A) (A) (A) (A) (A) (A) (A) (A)
                 (A) (A) (A) (A) (A) (A) (A) (A) (A) (A) (A) (A)
                 (A) (A) (A) (A) (A) (A) (A) (A) (A) (A) (A) (A)
                 (A) (A) (A) (A) (A) (A) (A) (A) (A) (A) (A) (A)
                 (A) (A) (A) (A) (A) (A) (A) (A) (A) (A) (A) (A)
                 (A) (A) (A) (A) (A) (A) (A) (A) (A) (A) (A) (A)
                 (A) (A) (A) (A) (A) (A) (A) (A) (A) (A) (A) (A)
                 (A) (A) (A) (A) (A) (A) (A) (A) (A) (A) (A) (A)
                 (A) (A) (A) (A) (A) (A) (A) (A) (A) (A) (A) (A)
                 (A) (A) (A) (A) (A) (A) (A) (A) (A) (A) (A) (A)
                 (A) (A) (A) (A) (A) (A) (A) (A) (A) (A) (A) (A)
                 (A) (A) (A) (A) (A) (A) (A) (A) (A) (A) (A) (A)
                 (A) (A) (A) (A) (A) (A) (A) (A) (A) (A) (A) (A)
                 (A) (A) (A) (A) (A) (A) (A) (A) (A) (A) (A) (A)
                 (A) (A) (A) (A) (A) (A) (A) (A) (A) (A) (A) (A)
                 (A) (A) (A) (A) (A) (A) (A) (A) (A) (A) (A) (A)
                 (A) (A) (A) (A) (A) (A) (A) (A) (A) (A) (A) (A)
                 (A) (A) (A) (A) (A) (A) (A) (A) (A) (A) (A) (A)
                 (A) (A) (A) (A) (A) (A) (A) (A) (A) (A) (A) (A)
                 (A) (A) (A) (A) (A) (A) (A) (A) (A) (A) (A) (A)
                 (A) (A) (A) (A) (A) (A) (A) (A) (A) (A) (A) (A)
                 (A) (A) (A) (A) (A) (A) (A) (A) (A) (A) (A) (A)
                 (A) (A) (A) (A) (A) (A) (A) (A) (A) (A) (A) (A)
                 (A) (A) (A) (A) (A) (A) (A) (A) (A) (A) (A) (A)
                 (A) (A) (A) (A) (A) (A) (A) (A) (A) (A) (A) (A)
                 (A) (A) (A) (A) (A) (A) (A) (A) (A) (A) (A) (A)
                 (A) (A) (A) (A) (A) (A) (A) (A) (A) (A) (A) (A)
                 (A) (A) (A) (A) (A) (A) (A) (A) (A) (A) (A) (A)
                 (A) (A) (A) (A) (A) (A) (A) (A) (A) (A) (A) (A)
                 (A) (A) (A) (A) (A) (A) (A) (A) (A) (A) (A) (A)
                 (A) (A) (A) (A) (A) (A) (A) (A) (A) (A) (A) (A)
                 (A) (A)
 The electronic state is 1-A.
 Alpha  occ. eigenvalues --  -89.00162 -88.93164 -88.92497 -88.91973 -88.91429
 Alpha  occ. eigenvalues --  -14.39368 -14.38740 -14.35797 -14.34475 -10.27015
 Alpha  occ. eigenvalues --  -10.25977 -10.25976 -10.25886 -10.24518 -10.24045
 Alpha  occ. eigenvalues --  -10.23830 -10.23708 -10.23628 -10.23287 -10.23199
 Alpha  occ. eigenvalues --  -10.23155 -10.22518 -10.22258 -10.21381 -10.20991
 Alpha  occ. eigenvalues --  -10.20395 -10.19852 -10.19776 -10.19732 -10.19501
 Alpha  occ. eigenvalues --   -8.05410  -7.99064  -7.98317  -7.97975  -7.97825
 Alpha  occ. eigenvalues --   -6.01976  -6.01381  -6.01182  -5.95487  -5.95093
 Alpha  occ. eigenvalues --   -5.94799  -5.94797  -5.94421  -5.94412  -5.94209
 Alpha  occ. eigenvalues --   -5.94010  -5.93923  -5.93793  -5.93673  -5.93541
 Alpha  occ. eigenvalues --   -1.04217  -0.98518  -0.96156  -0.92506  -0.92232
 Alpha  occ. eigenvalues --   -0.91043  -0.85815  -0.85191  -0.84016  -0.82441
 Alpha  occ. eigenvalues --   -0.80830  -0.79163  -0.75698  -0.74724  -0.73329
 Alpha  occ. eigenvalues --   -0.71962  -0.71155  -0.69636  -0.67917  -0.65639
 Alpha  occ. eigenvalues --   -0.64141  -0.62508  -0.59899  -0.59759  -0.58468
 Alpha  occ. eigenvalues --   -0.56453  -0.55178  -0.54722  -0.53800  -0.53378
 Alpha  occ. eigenvalues --   -0.52386  -0.51606  -0.50396  -0.48125  -0.47908
 Alpha  occ. eigenvalues --   -0.45786  -0.45464  -0.44988  -0.44665  -0.44437
 Alpha  occ. eigenvalues --   -0.43333  -0.42403  -0.42193  -0.42090  -0.41330
 Alpha  occ. eigenvalues --   -0.40923  -0.40606  -0.39989  -0.39128  -0.38843
 Alpha  occ. eigenvalues --   -0.38618  -0.38372  -0.37626  -0.36572  -0.35542
 Alpha  occ. eigenvalues --   -0.35072  -0.34998  -0.34493  -0.33415  -0.31565
 Alpha  occ. eigenvalues --   -0.31005  -0.30593  -0.30249  -0.29626  -0.29498
 Alpha  occ. eigenvalues --   -0.27781  -0.27085  -0.26512  -0.24805  -0.23627
 Alpha  occ. eigenvalues --   -0.21911  -0.20099
 Alpha virt. eigenvalues --   -0.12214  -0.07230  -0.04949  -0.03737  -0.02556
 Alpha virt. eigenvalues --   -0.02424  -0.01958  -0.01683  -0.00880  -0.00571
 Alpha virt. eigenvalues --   -0.00117   0.00196   0.00446   0.01116   0.01377
 Alpha virt. eigenvalues --    0.01441   0.01685   0.01906   0.02320   0.02485
 Alpha virt. eigenvalues --    0.03067   0.03158   0.03743   0.03865   0.04144
 Alpha virt. eigenvalues --    0.04654   0.04801   0.04831   0.04965   0.05039
 Alpha virt. eigenvalues --    0.05523   0.05774   0.06162   0.06476   0.06583
 Alpha virt. eigenvalues --    0.07052   0.07282   0.07612   0.07669   0.08323
 Alpha virt. eigenvalues --    0.08514   0.08727   0.09609   0.09870   0.10194
 Alpha virt. eigenvalues --    0.10251   0.10340   0.10371   0.10698   0.10882
 Alpha virt. eigenvalues --    0.10987   0.11510   0.11591   0.11802   0.12124
 Alpha virt. eigenvalues --    0.12179   0.12376   0.12509   0.12706   0.12730
 Alpha virt. eigenvalues --    0.12827   0.12911   0.13292   0.13491   0.13691
 Alpha virt. eigenvalues --    0.13789   0.13984   0.14053   0.14333   0.14863
 Alpha virt. eigenvalues --    0.15161   0.15163   0.15470   0.15781   0.15925
 Alpha virt. eigenvalues --    0.16215   0.16343   0.16499   0.16926   0.16985
 Alpha virt. eigenvalues --    0.17175   0.17351   0.17715   0.17953   0.18178
 Alpha virt. eigenvalues --    0.18871   0.18991   0.19300   0.19554   0.19667
 Alpha virt. eigenvalues --    0.20139   0.20181   0.20544   0.20963   0.21114
 Alpha virt. eigenvalues --    0.21258   0.21624   0.21755   0.21838   0.22053
 Alpha virt. eigenvalues --    0.22118   0.22441   0.22460   0.23205   0.23445
 Alpha virt. eigenvalues --    0.23583   0.24172   0.24303   0.24635   0.24820
 Alpha virt. eigenvalues --    0.24917   0.25201   0.25235   0.25258   0.25688
 Alpha virt. eigenvalues --    0.26022   0.26464   0.26763   0.27092   0.27109
 Alpha virt. eigenvalues --    0.27284   0.27630   0.27895   0.28205   0.28208
 Alpha virt. eigenvalues --    0.28673   0.29087   0.29449   0.29566   0.29666
 Alpha virt. eigenvalues --    0.29856   0.29878   0.30092   0.30435   0.31409
 Alpha virt. eigenvalues --    0.31572   0.31775   0.32251   0.32489   0.32743
 Alpha virt. eigenvalues --    0.32810   0.33087   0.33716   0.34229   0.34489
 Alpha virt. eigenvalues --    0.34797   0.35247   0.35550   0.36182   0.36630
 Alpha virt. eigenvalues --    0.37132   0.37650   0.37681   0.38472   0.38569
 Alpha virt. eigenvalues --    0.38971   0.39300   0.39895   0.40589   0.41114
 Alpha virt. eigenvalues --    0.42003   0.42316   0.42794   0.43657   0.44030
 Alpha virt. eigenvalues --    0.44860   0.45663   0.46576   0.46901   0.48538
 Alpha virt. eigenvalues --    0.48646   0.48909   0.49397   0.50476   0.50867
 Alpha virt. eigenvalues --    0.51428   0.51798   0.52085   0.52625   0.53484
 Alpha virt. eigenvalues --    0.54582   0.55328   0.56196   0.56756   0.58028
 Alpha virt. eigenvalues --    0.58691   0.60271   0.61324   0.62505   0.62675
 Alpha virt. eigenvalues --    0.63142   0.63695   0.64177   0.64400   0.64652
 Alpha virt. eigenvalues --    0.65005   0.65339   0.65568   0.66082   0.66292
 Alpha virt. eigenvalues --    0.66639   0.66959   0.67403   0.67564   0.68813
 Alpha virt. eigenvalues --    0.69106   0.69750   0.69951   0.70105   0.70605
 Alpha virt. eigenvalues --    0.71318   0.71733   0.71977   0.72276   0.72519
 Alpha virt. eigenvalues --    0.73360   0.74761   0.74869   0.75443   0.75843
 Alpha virt. eigenvalues --    0.76116   0.76996   0.77166   0.77909   0.78077
 Alpha virt. eigenvalues --    0.79062   0.79477   0.79781   0.80479   0.80549
 Alpha virt. eigenvalues --    0.81152   0.81671   0.82102   0.82168   0.82327
 Alpha virt. eigenvalues --    0.83228   0.83414   0.84016   0.85224   0.85660
 Alpha virt. eigenvalues --    0.87039   0.87923   0.88098   0.88382   0.89869
 Alpha virt. eigenvalues --    0.90888   0.91572   0.92650   0.93346   0.93767
 Alpha virt. eigenvalues --    0.93843   0.94256   0.94950   0.96052   0.96638
 Alpha virt. eigenvalues --    0.96866   0.97999   0.98304   0.98540   0.99075
 Alpha virt. eigenvalues --    0.99489   0.99844   1.00839   1.01102   1.01225
 Alpha virt. eigenvalues --    1.02241   1.02571   1.03069   1.03875   1.04389
 Alpha virt. eigenvalues --    1.04712   1.05417   1.05563   1.06929   1.07545
 Alpha virt. eigenvalues --    1.08966   1.09159   1.09394   1.10636   1.11148
 Alpha virt. eigenvalues --    1.11697   1.12660   1.13146   1.13968   1.15291
 Alpha virt. eigenvalues --    1.15471   1.16292   1.17281   1.17678   1.18601
 Alpha virt. eigenvalues --    1.18757   1.19028   1.20280   1.20330   1.20728
 Alpha virt. eigenvalues --    1.21168   1.22763   1.22886   1.24070   1.24850
 Alpha virt. eigenvalues --    1.25308   1.26684   1.26882   1.27307   1.28051
 Alpha virt. eigenvalues --    1.28325   1.29170   1.29494   1.30025   1.30340
 Alpha virt. eigenvalues --    1.30983   1.31029   1.31304   1.32737   1.32899
 Alpha virt. eigenvalues --    1.33648   1.34901   1.34960   1.35724   1.36382
 Alpha virt. eigenvalues --    1.37995   1.38164   1.38450   1.38974   1.39118
 Alpha virt. eigenvalues --    1.40945   1.41376   1.42837   1.43631   1.44801
 Alpha virt. eigenvalues --    1.45370   1.46336   1.48329   1.49912   1.50443
 Alpha virt. eigenvalues --    1.51114   1.54763   1.55357   1.57791   1.58580
 Alpha virt. eigenvalues --    1.59989   1.61110   1.62032   1.63510   1.65406
 Alpha virt. eigenvalues --    1.66264   1.67980   1.68905   1.70588   1.71650
 Alpha virt. eigenvalues --    1.73858   1.74662   1.75006   1.77029   1.77715
 Alpha virt. eigenvalues --    1.78993   1.79813   1.80181   1.80683   1.82122
 Alpha virt. eigenvalues --    1.82553   1.82877   1.84334   1.85073   1.86750
 Alpha virt. eigenvalues --    1.87000   1.88952   1.89657   1.90495   1.90571
 Alpha virt. eigenvalues --    1.91977   1.92131   1.92641   1.93872   1.94667
 Alpha virt. eigenvalues --    1.94919   1.97595   1.99587   1.99915   2.00708
 Alpha virt. eigenvalues --    2.01867   2.02094   2.02459   2.04739   2.05405
 Alpha virt. eigenvalues --    2.08319   2.08863   2.10476   2.10670   2.11565
 Alpha virt. eigenvalues --    2.11804   2.13239   2.14827   2.17134   2.18837
 Alpha virt. eigenvalues --    2.19157   2.21771   2.22492   2.23035   2.24095
 Alpha virt. eigenvalues --    2.25351   2.25797   2.26834   2.28029   2.28282
 Alpha virt. eigenvalues --    2.30972   2.31853   2.32269   2.32551   2.32612
 Alpha virt. eigenvalues --    2.33939   2.36256   2.37062   2.37579   2.37791
 Alpha virt. eigenvalues --    2.38429   2.38821   2.40374   2.41028   2.42460
 Alpha virt. eigenvalues --    2.42965   2.43242   2.43555   2.45619   2.46186
 Alpha virt. eigenvalues --    2.47748   2.48420   2.48509   2.49820   2.49950
 Alpha virt. eigenvalues --    2.52193   2.54057   2.54395   2.55432   2.56674
 Alpha virt. eigenvalues --    2.57167   2.58447   2.59849   2.60416   2.63036
 Alpha virt. eigenvalues --    2.64107   2.64475   2.65292   2.65713   2.67601
 Alpha virt. eigenvalues --    2.68477   2.70227   2.70369   2.70913   2.72916
 Alpha virt. eigenvalues --    2.73442   2.74549   2.76462   2.77383   2.78188
 Alpha virt. eigenvalues --    2.80359   2.80813   2.81436   2.83567   2.87400
 Alpha virt. eigenvalues --    2.88438   2.92051   2.93068   2.95156   2.96604
 Alpha virt. eigenvalues --    2.97666   3.00055   3.03231   3.04864   3.08218
 Alpha virt. eigenvalues --    3.09195   3.11281   3.13313   3.14564   3.19815
 Alpha virt. eigenvalues --    3.26100   3.30052   3.34350   3.34814   3.37920
 Alpha virt. eigenvalues --    3.41394   3.47061   3.53099   3.53968   3.55011
 Alpha virt. eigenvalues --    3.62405   3.65570   3.73614   3.96650   3.98328
 Alpha virt. eigenvalues --    3.99329   4.00404   4.03884   4.19921   4.26462
 Alpha virt. eigenvalues --    4.27819   4.30921   4.31864   4.32711   4.34267
 Alpha virt. eigenvalues --    4.35504   4.36611   4.37666   4.38812   4.41730
 Alpha virt. eigenvalues --    4.42662   4.45138   4.46289   4.51180   4.54108
 Alpha virt. eigenvalues --    4.56345   4.61085   4.65741   4.68749   4.74175
 Alpha virt. eigenvalues --    4.79676   4.82306   4.88523
          Condensed to atoms (all electrons):
              1          2          3          4          5          6
     1  C   14.030845  -5.528079   3.569376   0.244907  -0.269022   0.262860
     2  C   -5.528079  11.583355  -3.014097  -1.754666   0.530234  -0.030429
     3  C    3.569376  -3.014097  13.850171   3.579707  -3.365022   0.519309
     4  C    0.244907  -1.754666   3.579707  18.604281  -8.922272   0.803649
     5  C   -0.269022   0.530234  -3.365022  -8.922272  14.110006  -0.779926
     6  S    0.262860  -0.030429   0.519309   0.803649  -0.779926  16.441821
     7  C   -0.695912   1.379924  -3.229783  -4.499226   2.515339  -0.066427
     8  C   -5.441162   2.915039  -5.327984  -1.153131   1.304898  -0.263270
     9  C    0.151048   0.364899  -0.650864  -2.058683   1.252358   0.061047
    10  C    0.418513  -0.080217  -0.107835  -0.732762   0.455442  -0.663099
    11  N   -0.007051   0.002951   0.002088   0.040062  -0.028916   0.026911
    12  C   -0.329674  -0.136379   0.097972   0.587182  -0.248483  -0.080814
    13  C   -0.010564   0.001153   0.008612   0.021824  -0.014261   0.018644
    14  C    0.000700  -0.001649   0.000032  -0.006898   0.000703   0.013173
    15  N    0.000125   0.000004  -0.000001  -0.000053   0.000019   0.000016
    16  C    0.003158   0.000515   0.000134  -0.000221  -0.000791   0.004225
    17  S   -0.009402  -0.001045   0.001111   0.003697  -0.003537   0.006092
    18  C   -0.000372  -0.000028   0.000013   0.000188  -0.000067  -0.000085
    19  S    0.000009   0.000001  -0.000000  -0.000005   0.000000   0.000014
    20  C    0.000001  -0.000000  -0.000000  -0.000001   0.000000  -0.000013
    21  C   -0.000016  -0.000001   0.000001   0.000024  -0.000011   0.000065
    22  C   -0.000001  -0.000000  -0.000000   0.000000   0.000000  -0.000040
    23  C   -0.000002  -0.000001   0.000001   0.000008  -0.000008  -0.000120
    24  S   -0.000025  -0.000042   0.000011  -0.000094   0.000090  -0.000782
    25  C   -0.000251  -0.000010   0.000019   0.000333  -0.000152   0.000256
    26  C   -0.212885  -0.189774   0.215280   0.471342  -0.177407  -0.014726
    27  N    0.079325   0.047932  -0.014675  -0.044203   0.005765   0.007724
    28  S    0.012210  -0.102429   0.037912   0.062071  -0.021457  -0.001801
    29  N   -0.048803   0.204768  -0.041191  -0.153706   0.051843  -0.004226
    30  C   -0.191332  -0.348354   0.403486   1.629759  -1.016198  -0.141466
    31  H    0.365211  -0.062313  -0.005596  -0.011139   0.051924  -0.010644
    32  H    0.367481  -0.041462  -0.022574  -0.025474   0.057401  -0.009958
    33  H   -0.154862   0.427435  -0.073219   0.031632  -0.052738   0.003537
    34  H    0.154789  -0.185568   0.396905   0.115986  -0.136328   0.001931
    35  H   -0.056279   0.046833  -0.248854  -0.193762   0.517072  -0.060009
    36  H    0.005741  -0.008856   0.012921   0.017966  -0.010327  -0.003434
    37  H   -0.001772  -0.000349   0.000207   0.000783  -0.000409   0.000355
    38  H    0.000000   0.000000  -0.000000  -0.000000   0.000000  -0.000000
    39  H   -0.000000  -0.000000  -0.000000  -0.000000   0.000000  -0.000001
    40  H    0.000000  -0.000000   0.000000   0.000001  -0.000001  -0.000002
              7          8          9         10         11         12
     1  C   -0.695912  -5.441162   0.151048   0.418513  -0.007051  -0.329674
     2  C    1.379924   2.915039   0.364899  -0.080217   0.002951  -0.136379
     3  C   -3.229783  -5.327984  -0.650864  -0.107835   0.002088   0.097972
     4  C   -4.499226  -1.153131  -2.058683  -0.732762   0.040062   0.587182
     5  C    2.515339   1.304898   1.252358   0.455442  -0.028916  -0.248483
     6  S   -0.066427  -0.263270   0.061047  -0.663099   0.026911  -0.080814
     7  C   10.881751   1.665125   3.446062  -2.850142   0.117072   0.231902
     8  C    1.665125  14.092439  -0.720955  -2.236071  -0.000188   0.744790
     9  C    3.446062  -0.720955  15.638749  -5.716029   0.223303  -0.770821
    10  C   -2.850142  -2.236071  -5.716029  15.129819  -0.425486  -2.142802
    11  N    0.117072  -0.000188   0.223303  -0.425486   7.153911   0.376530
    12  C    0.231902   0.744790  -0.770821  -2.142802   0.376530   9.731446
    13  C    0.188106   0.172529   0.960501  -1.185711  -0.248828   0.443707
    14  C   -0.097915  -0.022845  -0.017038   0.443103  -0.136650  -1.065767
    15  N    0.000689   0.000193   0.018779   0.000854   0.016669  -0.012602
    16  C    0.025826   0.001398   0.253534  -0.388913  -0.024359   0.637389
    17  S    0.030991   0.033770   0.476659  -0.317585   0.493238  -0.660496
    18  C   -0.000530   0.000722  -0.013681  -0.006212  -0.002472   0.009510
    19  S   -0.000071  -0.000015   0.000549  -0.000712   0.001901  -0.005734
    20  C   -0.000089  -0.000005  -0.001604   0.000698  -0.001666   0.013907
    21  C    0.000364   0.000051   0.002259  -0.002090  -0.000793  -0.075085
    22  C    0.000030  -0.000003  -0.001117  -0.002057   0.000912  -0.001549
    23  C   -0.000628  -0.000016  -0.004307   0.004089   0.000009  -0.006312
    24  S   -0.009014  -0.000691  -0.042969   0.057380  -0.015629  -0.084543
    25  C    0.005266   0.001123   0.034283  -0.066138   0.029599  -0.050567
    26  C   -1.212325   0.365551  -3.120633   1.871672  -0.226389  -0.207827
    27  N    0.145881  -0.115956   0.195619  -0.044033   0.022206  -0.279346
    28  S   -0.176139   0.019593  -0.214709   0.104734   0.006935   0.125275
    29  N   -0.066502  -0.000602  -0.312191   0.185762  -0.008045  -0.073532
    30  C   -1.947895  -0.612221  -3.040849   3.106904  -0.201848  -0.685601
    31  H   -0.004090  -0.084402   0.058068   0.018574  -0.000176  -0.006741
    32  H    0.010998  -0.098534   0.067367   0.021839  -0.000161  -0.010364
    33  H    0.003204   0.113065  -0.017905  -0.006397   0.000069   0.000839
    34  H    0.002224  -0.074401  -0.008991   0.000189  -0.000037   0.000316
    35  H    0.111599   0.176641   0.011923   0.003387  -0.000374  -0.002737
    36  H   -0.185185  -0.091618  -0.439621   0.866967  -0.141359  -0.047475
    37  H   -0.002261   0.003263  -0.006032  -0.005988  -0.007488  -0.020872
    38  H   -0.000000  -0.000000  -0.000005  -0.000009  -0.000007   0.000036
    39  H   -0.000002  -0.000000  -0.000018  -0.000046  -0.000023   0.000315
    40  H   -0.000008   0.000001  -0.000046   0.000231   0.000146  -0.000221
             13         14         15         16         17         18
     1  C   -0.010564   0.000700   0.000125   0.003158  -0.009402  -0.000372
     2  C    0.001153  -0.001649   0.000004   0.000515  -0.001045  -0.000028
     3  C    0.008612   0.000032  -0.000001   0.000134   0.001111   0.000013
     4  C    0.021824  -0.006898  -0.000053  -0.000221   0.003697   0.000188
     5  C   -0.014261   0.000703   0.000019  -0.000791  -0.003537  -0.000067
     6  S    0.018644   0.013173   0.000016   0.004225   0.006092  -0.000085
     7  C    0.188106  -0.097915   0.000689   0.025826   0.030991  -0.000530
     8  C    0.172529  -0.022845   0.000193   0.001398   0.033770   0.000722
     9  C    0.960501  -0.017038   0.018779   0.253534   0.476659  -0.013681
    10  C   -1.185711   0.443103   0.000854  -0.388913  -0.317585  -0.006212
    11  N   -0.248828  -0.136650   0.016669  -0.024359   0.493238  -0.002472
    12  C    0.443707  -1.065767  -0.012602   0.637389  -0.660496   0.009510
    13  C   18.126469  -6.179915   1.123035  -4.795852   1.270978  -0.138905
    14  C   -6.179915  15.295463  -0.815533  -0.229397  -1.834730   0.355215
    15  N    1.123035  -0.815533   7.113385   0.040907   0.271043  -0.307253
    16  C   -4.795852  -0.229397   0.040907  14.303456  -2.118465   0.861951
    17  S    1.270978  -1.834730   0.271043  -2.118465  21.350956   0.179273
    18  C   -0.138905   0.355215  -0.307253   0.861951   0.179273   9.941932
    19  S   -0.227012  -0.072070   0.013727  -0.477712  -0.183084  -0.250173
    20  C    0.355865   0.026174   0.015903   1.001049   0.439985   1.649289
    21  C   -0.743061   0.153677  -0.147039  -1.668752  -1.663103  -3.922092
    22  C    0.055121  -0.026455  -0.020007  -0.296053  -0.290850  -1.952670
    23  C   -0.058803   0.021461   0.005784  -0.026839  -0.050319  -0.505083
    24  S    0.162252   0.185843  -0.022231  -0.319295  -0.252275  -0.238994
    25  C   -1.145981  -0.409183  -0.097089   0.274022  -0.822321   0.622149
    26  C   -0.020050  -0.395265   0.048205  -1.291614  -0.404157  -0.059230
    27  N   -0.048249   0.074495  -0.008117  -0.049759  -0.015375   0.001965
    28  S   -0.058719   0.022824  -0.001925  -0.010554   0.033792   0.000246
    29  N   -0.117570  -0.013017   0.000164  -0.024266  -0.013106  -0.000344
    30  C   -0.226401  -0.182844   0.001089   0.093302  -0.316828  -0.018618
    31  H    0.000278  -0.000031  -0.000006   0.000064  -0.000194  -0.000002
    32  H    0.000746  -0.000277  -0.000008   0.000162  -0.000217  -0.000004
    33  H    0.000107  -0.000033   0.000000   0.000003   0.000021   0.000000
    34  H    0.000061   0.000010   0.000000   0.000000   0.000020   0.000000
    35  H   -0.000094   0.000015   0.000000  -0.000005  -0.000058  -0.000001
    36  H   -0.032589  -0.005935  -0.000579  -0.012343  -0.014589   0.001825
    37  H   -0.512376   0.817695  -0.125501   0.121588  -0.048404   0.026291
    38  H    0.006608   0.000116   0.000587   0.033165   0.011568   0.073529
    39  H   -0.000719  -0.000704  -0.000048  -0.002673   0.001874   0.041616
    40  H   -0.001994   0.000317   0.000193  -0.004567  -0.006624  -0.032462
             19         20         21         22         23         24
     1  C    0.000009   0.000001  -0.000016  -0.000001  -0.000002  -0.000025
     2  C    0.000001  -0.000000  -0.000001  -0.000000  -0.000001  -0.000042
     3  C   -0.000000  -0.000000   0.000001  -0.000000   0.000001   0.000011
     4  C   -0.000005  -0.000001   0.000024   0.000000   0.000008  -0.000094
     5  C    0.000000   0.000000  -0.000011   0.000000  -0.000008   0.000090
     6  S    0.000014  -0.000013   0.000065  -0.000040  -0.000120  -0.000782
     7  C   -0.000071  -0.000089   0.000364   0.000030  -0.000628  -0.009014
     8  C   -0.000015  -0.000005   0.000051  -0.000003  -0.000016  -0.000691
     9  C    0.000549  -0.001604   0.002259  -0.001117  -0.004307  -0.042969
    10  C   -0.000712   0.000698  -0.002090  -0.002057   0.004089   0.057380
    11  N    0.001901  -0.001666  -0.000793   0.000912   0.000009  -0.015629
    12  C   -0.005734   0.013907  -0.075085  -0.001549  -0.006312  -0.084543
    13  C   -0.227012   0.355865  -0.743061   0.055121  -0.058803   0.162252
    14  C   -0.072070   0.026174   0.153677  -0.026455   0.021461   0.185843
    15  N    0.013727   0.015903  -0.147039  -0.020007   0.005784  -0.022231
    16  C   -0.477712   1.001049  -1.668752  -0.296053  -0.026839  -0.319295
    17  S   -0.183084   0.439985  -1.663103  -0.290850  -0.050319  -0.252275
    18  C   -0.250173   1.649289  -3.922092  -1.952670  -0.505083  -0.238994
    19  S   16.113117  -0.795665   1.225271   0.181617   0.070536   0.034616
    20  C   -0.795665  10.728933  -6.486423   0.147935  -0.359240   0.286887
    21  C    1.225271  -6.486423  16.969258   0.151180   0.297492  -0.005336
    22  C    0.181617   0.147935   0.151180   8.431672   0.893533   0.310259
    23  C    0.070536  -0.359240   0.297492   0.893533   5.929962  -0.153821
    24  S    0.034616   0.286887  -0.005336   0.310259  -0.153821  16.689558
    25  C    0.131305  -0.960540   1.593283  -1.693709  -0.335411  -0.311275
    26  C   -0.015160   0.017598  -0.050281   0.000825  -0.002604   0.011105
    27  N   -0.000115  -0.000134   0.001038   0.000098   0.000116   0.002694
    28  S    0.000106  -0.000002   0.000054   0.000017   0.000026   0.000789
    29  N   -0.000033   0.000010  -0.000038   0.000001  -0.000002   0.000041
    30  C    0.000490   0.000343  -0.002783  -0.000059   0.000947   0.008591
    31  H   -0.000000  -0.000000   0.000000   0.000000   0.000000   0.000005
    32  H   -0.000000  -0.000000   0.000000  -0.000000   0.000000   0.000002
    33  H    0.000000  -0.000000   0.000000   0.000000  -0.000000  -0.000000
    34  H    0.000000  -0.000000   0.000000  -0.000000   0.000000   0.000000
    35  H   -0.000000  -0.000000  -0.000000   0.000000  -0.000000   0.000001
    36  H   -0.000019   0.000280  -0.000892   0.000207   0.000570   0.002754
    37  H    0.000569  -0.004132   0.014456   0.000513   0.000741   0.000774
    38  H   -0.063319   0.437694  -0.152592  -0.069052  -0.009120  -0.004182
    39  H   -0.006715  -0.071165   0.089559   0.204514  -0.076943   0.025936
    40  H    0.003870  -0.023579   0.049594   0.012180   0.316479  -0.010088
             25         26         27         28         29         30
     1  C   -0.000251  -0.212885   0.079325   0.012210  -0.048803  -0.191332
     2  C   -0.000010  -0.189774   0.047932  -0.102429   0.204768  -0.348354
     3  C    0.000019   0.215280  -0.014675   0.037912  -0.041191   0.403486
     4  C    0.000333   0.471342  -0.044203   0.062071  -0.153706   1.629759
     5  C   -0.000152  -0.177407   0.005765  -0.021457   0.051843  -1.016198
     6  S    0.000256  -0.014726   0.007724  -0.001801  -0.004226  -0.141466
     7  C    0.005266  -1.212325   0.145881  -0.176139  -0.066502  -1.947895
     8  C    0.001123   0.365551  -0.115956   0.019593  -0.000602  -0.612221
     9  C    0.034283  -3.120633   0.195619  -0.214709  -0.312191  -3.040849
    10  C   -0.066138   1.871672  -0.044033   0.104734   0.185762   3.106904
    11  N    0.029599  -0.226389   0.022206   0.006935  -0.008045  -0.201848
    12  C   -0.050567  -0.207827  -0.279346   0.125275  -0.073532  -0.685601
    13  C   -1.145981  -0.020050  -0.048249  -0.058719  -0.117570  -0.226401
    14  C   -0.409183  -0.395265   0.074495   0.022824  -0.013017  -0.182844
    15  N   -0.097089   0.048205  -0.008117  -0.001925   0.000164   0.001089
    16  C    0.274022  -1.291614  -0.049759  -0.010554  -0.024266   0.093302
    17  S   -0.822321  -0.404157  -0.015375   0.033792  -0.013106  -0.316828
    18  C    0.622149  -0.059230   0.001965   0.000246  -0.000344  -0.018618
    19  S    0.131305  -0.015160  -0.000115   0.000106  -0.000033   0.000490
    20  C   -0.960540   0.017598  -0.000134  -0.000002   0.000010   0.000343
    21  C    1.593283  -0.050281   0.001038   0.000054  -0.000038  -0.002783
    22  C   -1.693709   0.000825   0.000098   0.000017   0.000001  -0.000059
    23  C   -0.335411  -0.002604   0.000116   0.000026  -0.000002   0.000947
    24  S   -0.311275   0.011105   0.002694   0.000789   0.000041   0.008591
    25  C    9.266455  -0.217074   0.003503   0.000446  -0.000399  -0.020586
    26  C   -0.217074   9.565175   0.008928  -0.000527   0.194420   0.951457
    27  N    0.003503   0.008928   7.640378  -0.168479  -0.204398   0.248562
    28  S    0.000446  -0.000527  -0.168479  15.677600   0.039320  -0.320167
    29  N   -0.000399   0.194420  -0.204398   0.039320   7.829635   0.054947
    30  C   -0.020586   0.951457   0.248562  -0.320167   0.054947   8.875332
    31  H   -0.000000  -0.000015  -0.002634  -0.003997  -0.011681  -0.024941
    32  H    0.000000  -0.003722  -0.001726  -0.003817  -0.013099  -0.029726
    33  H    0.000000  -0.000653   0.000489  -0.001324   0.001164   0.004884
[...]
 22,-0.00004739,0.00003147,0.00009257,0.00001524,0.00001771,-0.00009651
 ,-0.00003161,-0.00001558,0.00000337,0.00005234,-0.00000413,-0.00007066
 ,-0.00002771,-0.00000946,0.00001323,-0.00004939,0.00000544,-0.00000083
 ,0.00000506,-0.00000030,-0.00000977,0.00001198,-0.00000469,-0.00002217
 ,0.00005111,-0.00000641,0.00010035,-0.00008470,0.00002463,-0.00051950,
 -0.00009455,-0.00001954,0.00024125,0.00002701,0.00004187,0.00003970,0.
 00017031,-0.00015735,-0.00014023,0.00038528,-0.00002056,-0.00140414,0.
 00028808,0.00031980,0.00001929,-0.00000329,-0.00000835,-0.00000368,0.0
 0000110,-0.00000191,0.00000109,0.00000455,0.00000199,0.00000104,-0.000
 00121,0.00000228,0.00004125,0.00000240,0.00001581,-0.13349183,0.250728
 96,-0.00005714,0.00009441,0.00003862,0.00010228,0.00001265,-0.00005976
 ,0.00004698,-0.00004055,-0.00005085,0.00034628,-0.00069781,-0.00030664
 ,-0.00068410,-0.00026399,0.00046181,-0.00041590,-0.00094363,-0.0005507
 3,-0.00004393,-0.00018804,-0.00315373,0.00080189,0.00079639,-0.0000735
 6,-0.00327164,0.00459405,0.00630314,-0.03390676,0.04220401,-0.05197314
 ,0.00176398,-0.00090448,-0.00078112,-0.00123809,0.00005519,0.00650320,
 -0.00007684,-0.00001230,0.00051294,0.00000395,0.00000396,-0.00006858,0
 .00001214,0.00000205,-0.00010470,-0.00000806,-0.00002848,0.00001738,0.
 00001271,0.00000698,-0.00001664,0.00000302,0.00000404,0.00000625,-0.00
 000178,-0.00000328,0.00000503,0.00000697,0.00000332,-0.00000090,-0.000
 00133,0.00000528,0.00000552,0.00000096,0.00000219,-0.00000046,-0.00000
 257,-0.00000304,-0.00000822,0.00000193,-0.00000486,0.00000330,-0.00000
 358,0.00000454,-0.00000732,0.00022369,-0.00003381,-0.00014196,-0.00001
 231,0.00003386,-0.00028114,0.00026226,-0.00007002,-0.00135136,-0.00030
 951,0.00024780,0.00083312,-0.00179263,-0.00017465,0.00712855,0.0000545
 2,0.00000769,-0.00003976,0.00003796,0.00002475,-0.00000154,0.00001184,
 -0.00000122,0.00000284,0.00001610,0.00000591,-0.00000834,0.00006062,0.
 00003840,0.00000571,0.03806493,-0.04477682,0.03711301,0.00001519,0.000
 00905,0.00000068,-0.00001546,-0.00000251,0.00000204,0.00000711,0.00000
 928,-0.00000494,0.00001864,-0.00001999,-0.00002268,-0.00002449,-0.0000
 2147,0.00001089,-0.00002173,0.00002442,-0.00001488,-0.00006788,-0.0000
 3740,0.00001033,0.00005007,-0.00000250,-0.00000741,0.00007622,0.000032
 00,0.00002506,-0.00010938,0.00006959,0.00002890,-0.00005931,0.00002758
 ,-0.00004346,0.00022805,0.00058964,0.00036582,-0.00160764,-0.00009460,
 -0.00114486,-0.31203113,0.08889168,-0.05476641,-0.01811315,0.00273019,
 -0.00304914,-0.00126926,-0.00259009,-0.00086509,0.00217571,-0.00046998
 ,-0.00054326,-0.00055202,0.00049088,-0.00029677,0.00000075,0.00009278,
 -0.00000739,-0.00006597,-0.00001642,-0.00001015,-0.00004966,-0.0000227
 5,0.00002729,0.00001111,-0.00001149,0.00000138,-0.00002751,0.00001361,
 0.00000863,-0.00002698,0.00003753,-0.00003927,0.00004680,-0.00029684,0
 .00006225,0.00075404,0.00014771,0.00010932,-0.00302076,-0.00194390,-0.
 00032005,-0.00102476,-0.00051938,-0.00015302,-0.00008232,0.00019227,-0
 .00003109,0.00009255,0.00002127,-0.00004408,-0.00000057,-0.00000185,0.
 00000823,-0.00001780,-0.00000357,-0.00000047,-0.00000036,-0.00000069,0
 .00000095,-0.00000209,-0.00000179,0.00000224,0.00000426,-0.00000098,0.
 00000887,-0.00000608,-0.00000696,-0.00000905,0.33472797,0.00002119,0.0
 0001731,0.00000758,-0.00002410,-0.00002082,-0.00001187,-0.00000748,0.0
 0001734,0.00000644,-0.00001514,0.00002262,0.00000890,0.00001491,0.0000
 5328,-0.00000080,0.00001542,-0.00001103,-0.00000565,-0.00000948,0.0000
 1415,-0.00003274,-0.00002503,-0.00002563,0.00000377,-0.00017170,-0.000
 12320,0.00000161,0.00007855,0.00023184,-0.00002562,-0.00035924,-0.0006
 4872,-0.00000149,0.00033718,0.00102713,-0.00021043,0.02511192,-0.00284
 259,0.00500365,0.09156678,-0.08577354,0.01972578,-0.02531742,0.0088340
 4,-0.00521286,-0.00495691,-0.00288416,-0.00028084,0.00243911,-0.002757
 32,0.00102805,-0.00075090,0.00098018,-0.00013511,0.00004652,0.00009237
 ,0.00000139,-0.00007594,-0.00001866,-0.00001170,-0.00004236,0.00000139
 ,-0.00002210,0.00006251,0.00002838,0.00000930,-0.00011775,-0.00000712,
 -0.00002572,0.00000472,-0.00000013,0.00001399,-0.00008844,-0.00043318,
 0.00000204,0.00025224,-0.00141940,0.00020700,0.00021384,-0.00067563,0.
 00007483,-0.00147568,0.00009109,-0.00030088,0.00028843,0.00113571,-0.0
 0005904,0.00033656,-0.00018253,0.00008440,0.00000188,-0.00000922,0.000
 00985,-0.00004581,-0.00002586,0.00000962,0.00000954,0.00000475,-0.0000
 0138,0.00000435,0.00000885,0.00000396,0.00000606,0.00000333,0.,-0.0000
 0509,0.00000534,-0.00000135,-0.08732609,0.08524973,-0.00000927,0.00000
 674,0.00001487,0.00000020,0.00000107,-0.00000913,-0.00000255,-0.000003
 06,0.00000209,-0.00000684,-0.00000606,-0.00000680,-0.00000366,0.000002
 15,-0.00000524,0.00000706,-0.00000763,-0.00000726,-0.00000790,0.000041
 18,0.00001977,0.00000040,-0.00000149,-0.00000704,0.00000883,-0.0000158
 0,-0.00003133,0.00003745,-0.00001440,-0.00020378,-0.00001171,0.0000458
 0,0.00015322,0.00041608,-0.00010286,-0.00219265,-0.00303625,0.00051485
 ,0.00444129,-0.05506189,0.01929973,-0.04780506,-0.00090728,-0.00031187
 ,-0.00183683,-0.00069413,0.00013928,0.00463115,-0.00073676,0.00051051,
 0.00525520,-0.00019150,0.00008274,0.00088981,-0.00000448,0.00000685,0.
 00000135,-0.00000494,-0.00000063,0.00000340,0.00002946,-0.00001737,-0.
 00019279,-0.00000443,-0.00000268,0.00000988,0.00001852,-0.00000381,-0.
 00008148,-0.00003669,0.00001839,0.00017556,0.00004575,-0.00003158,-0.0
 0018331,0.00007532,0.00017070,0.00026818,-0.00044623,-0.00033711,-0.00
 042612,-0.00010494,-0.00010959,-0.00006885,-0.00002547,-0.00005625,-0.
 00003800,-0.00003849,0.00004801,0.00017201,0.00000179,0.00000113,-0.00
 000432,-0.00000105,-0.00001045,0.00001201,0.00000151,0.00000092,0.0000
 0124,0.00000038,-0.00000104,0.00000122,0.00000051,-0.00000244,0.000005
 71,-0.00000850,0.00000737,0.00003424,0.06071108,-0.01986355,0.03696701
 ,0.00000035,0.00000046,-0.00000080,-0.00000048,0.00000161,0.00000121,0
 .00000160,-0.00000023,-0.00000063,0.00000259,-0.00000391,-0.00000360,-
 0.00000349,-0.00000631,0.00000050,-0.00000338,0.00000309,-0.00000023,-
 0.00000737,-0.00000244,0.00000248,0.00000691,-0.00000058,-0.00000144,0
 .00000382,0.00000468,0.00000082,-0.00001457,0.00001390,0.00000003,-0.0
 0002275,-0.00002190,-0.00000893,-0.00003018,0.00002370,0.00004420,0.00
 006161,-0.00030243,0.00007358,0.00012526,0.00004845,-0.00002450,0.0000
 0117,-0.00023491,0.00003773,0.00042044,-0.00141573,-0.00020099,-0.0004
 3510,0.00012270,-0.00012916,-0.00563168,0.00153616,-0.00113038,-0.0065
 6820,-0.02084965,0.00087996,-0.10593846,-0.11868670,-0.00586345,0.0123
 0746,0.01232328,0.00090423,0.00043311,-0.00060013,0.00071572,0.0000230
 2,-0.00019156,0.00006307,0.00038620,0.00059883,-0.00009642,-0.00078186
 ,0.00293815,-0.00129085,-0.00000393,-0.00002734,-0.00000630,-0.0000050
 5,0.00000020,0.00000013,0.00000363,0.00000258,0.00000080,-0.00001028,-
 0.00001444,-0.00000053,-0.00000628,0.00000007,-0.00000496,-0.00000006,
 0.00000065,0.00000035,0.00000056,0.00000108,-0.00000002,-0.00000108,-0
 .00000039,0.00000029,-0.00000070,-0.00000101,0.,-0.00000016,-0.0000003
 4,0.00000107,0.00000015,-0.00000390,0.00000032,-0.00000667,-0.00000097
 ,-0.00000344,0.10599959,-0.00000043,-0.00000132,0.,0.00000114,-0.00000
 179,-0.00000122,-0.00000337,-0.00000003,0.00000194,-0.00000414,0.00000
 757,0.00000619,0.00000731,0.00001204,-0.00000229,0.00000659,-0.0000054
 7,0.00000220,0.00001242,0.00000313,-0.00000757,-0.00001370,0.00000016,
 0.00000387,-0.00001404,-0.00000708,-0.00000168,0.00002132,-0.00001762,
 0.00000122,-0.00001736,0.00004065,-0.00000333,-0.00004040,-0.00008965,
 -0.00002367,0.00013895,0.00010082,0.00000025,-0.00004527,0.00002682,0.
 00000682,0.00002752,-0.00004752,-0.00000024,-0.00034927,0.00043974,0.0
 0007034,0.00007423,0.00009004,0.00002494,0.00243012,0.00077867,0.00038
 049,0.00179211,0.00336261,-0.00013829,-0.11695249,-0.30465325,0.000748
 75,-0.01397627,-0.01201194,-0.00139410,-0.00050149,0.00136089,-0.00044
 402,-0.00023532,-0.00033324,-0.00003547,-0.00019984,-0.00059786,0.0000
 6020,0.00241483,-0.00303164,0.00104775,0.00002593,-0.00000237,0.000008
 02,-0.00001523,0.00000916,-0.00000380,0.00001668,-0.00001315,0.0000036
 8,0.00000002,0.00001471,-0.00000145,0.00000144,0.00000980,0.00000507,0
 .00000042,-0.00000090,-0.00000045,-0.00000057,-0.00000171,-0.00000008,
 0.00000119,0.00000055,-0.00000027,0.00000067,0.00000059,-0.00000011,0.
 ,0.00000079,-0.00000228,-0.00000047,0.00000363,-0.00000023,0.00000200,
 0.00000397,0.00000100,0.12486120,0.31476601,0.00000111,-0.00000104,0.0
 0000152,0.00000050,0.00000089,-0.00000051,-0.00000029,-0.00000076,-0.0
 0000126,-0.00000041,-0.00000204,-0.00000085,-0.00000206,-0.00000195,-0
 .00000101,0.00000052,0.00000043,-0.00000050,-0.00000335,0.00000386,0.0
 0000602,0.00000172,0.00000027,-0.00000015,0.00000087,-0.00000056,-0.00
 000499,0.00000162,0.00000272,-0.00001812,-0.00000880,-0.00000529,0.000
 04048,0.00004977,-0.00000867,-0.00028715,0.00003707,-0.00007909,-0.000
 21753,-0.00001636,0.00002559,0.00023687,0.00001669,-0.00004620,-0.0001
 0785,-0.00027812,-0.00011671,0.00214172,-0.00012440,0.00003247,0.00022
 930,-0.00119826,0.00022278,-0.00002049,-0.00080981,-0.00407830,-0.0025
 2669,-0.00598536,0.00046435,-0.02249981,0.00286181,0.00316746,0.002092
 53,0.00071178,-0.00046013,-0.00328161,0.00006629,-0.00002859,-0.000245
 21,-0.00003615,0.00019922,0.00066440,-0.00125277,0.00113557,0.00508389
 ,-0.00000924,0.00000134,0.00004545,0.00000164,-0.00000251,-0.00000673,
 -0.00000056,0.00000155,-0.00000108,-0.00000252,-0.00000298,-0.00000087
 ,-0.00000521,-0.00000261,0.00001408,-0.00000013,0.00000003,-0.00000084
 ,0.00000025,0.00000107,-0.00000014,0.00000026,0.00000002,0.00000043,0.
 00000012,-0.00000021,0.00000049,0.00000002,-0.00000037,0.00000107,-0.0
 0000019,-0.00000051,0.00000059,-0.00000375,0.00000073,0.00001328,0.006
 15421,-0.00045003,0.01827064,0.00000205,-0.00000038,-0.00000177,-0.000
 00073,0.00000273,0.00000249,0.00000242,0.00000134,-0.00000072,0.000006
 09,-0.00000645,-0.00000866,-0.00000680,-0.00001191,0.00000232,-0.00000
 572,0.00000571,-0.00000284,-0.00001057,-0.00000281,0.00000780,0.000011
 63,0.00000090,-0.00000135,0.00001332,0.00000924,-0.00000060,-0.0000183
 6,0.00001506,-0.00000145,0.00001529,-0.00004290,0.00000578,0.00004946,
 0.00008188,0.00000041,-0.00007747,-0.00009425,0.00000339,0.00001161,0.
 00003555,-0.00000561,-0.00017061,-0.00011817,0.00000501,-0.00009535,0.
 00041611,-0.00008888,-0.00000102,0.00001426,-0.00000306,-0.00039282,-0
 .00110614,-0.00008798,-0.00050305,0.00009424,-0.00003771,0.00133213,-0
 .00039378,0.00047054,-0.01216622,-0.01744988,-0.00098535,-0.24280871,-
 0.13962591,-0.02645398,0.00492543,0.00326048,-0.00019555,0.00209735,0.
 00210693,-0.00095389,-0.00361481,0.00208781,-0.00108848,-0.00002561,0.
 00000400,-0.00000509,0.00000923,-0.00001017,0.00000375,-0.00001075,0.0
 0001211,-0.00000309,-0.00000056,-0.00001473,0.00000129,-0.00000359,-0.
 00000745,-0.00000058,-0.00000074,0.00000094,0.00000034,0.00000045,0.00
 000175,0.00000004,-0.00000145,-0.00000051,0.00000034,-0.00000200,-0.00
 000384,0.00000032,-0.00000007,-0.00000079,0.00000204,0.00000032,-0.000
 00303,-0.00000005,-0.00000771,-0.00001374,-0.00000598,-0.00026942,0.00
 048906,-0.00013351,0.25153293,0.00000170,-0.00000044,-0.00000087,-0.00
 000107,0.00000332,0.00000213,0.00000327,0.00000127,-0.00000125,0.00000
 456,-0.00000630,-0.00000666,-0.00000586,-0.00001073,0.00000083,-0.0000
 0540,0.00000551,-0.00000148,-0.00001066,-0.00000160,0.00000687,0.00001
 064,-0.00000074,-0.00000203,0.00000865,0.00001236,-0.00000195,-0.00001
 084,0.00002086,-0.00000260,-0.00000600,-0.00002904,0.00000214,0.000013
 53,0.00004871,-0.00000042,0.00010330,0.00003347,0.00001248,-0.00003916
 ,0.00002279,-0.00000895,-0.00001689,0.00008766,-0.00002066,0.00021062,
 -0.00031048,0.00007908,-0.00002531,-0.00004920,0.00000051,0.00033685,0
 .00076113,0.00004708,0.00004353,0.00008103,-0.00002367,-0.00085336,0.0
 0048389,-0.00027058,0.00989295,0.01135148,0.00094085,-0.13897088,-0.15
 827703,-0.01467554,-0.02411571,-0.01212116,-0.00294715,-0.00108262,-0.
 00344340,0.00056261,0.00331420,-0.00168816,0.00083326,-0.00001493,-0.0
 0000446,-0.00000215,0.00000543,-0.00000613,0.00000106,-0.00000827,0.00
 001027,-0.00000165,-0.00000597,-0.00001647,0.00000013,-0.00000510,-0.0
 0000721,-0.00000141,-0.00000054,0.00000093,-0.00000002,0.00000078,0.00
 000193,0.00000014,-0.00000145,-0.00000051,0.00000045,-0.00000185,-0.00
 000344,0.00000039,-0.00000029,-0.00000084,0.00000212,0.00000252,-0.000
 00196,0.00000077,0.00000708,0.00002269,0.00000212,-0.00010075,-0.00020
 138,0.00001892,0.15065340,0.16232202,0.00000037,0.00000007,0.00000127,
 0.00000066,0.00000064,-0.00000119,-0.00000026,-0.00000003,-0.00000025,
 0.00000101,-0.00000172,-0.00000176,-0.00000306,-0.00000271,-0.00000040
 ,0.00000063,0.00000144,0.00000009,-0.00000321,0.00000131,0.00000286,0.
 00000226,0.00000112,-0.00000020,0.00000140,0.00000061,-0.00000042,-0.0
 0000111,-0.00000007,-0.00000593,0.00000259,-0.00000442,0.00000412,0.00
 000545,0.00001089,0.00001083,-0.00001172,-0.00002218,-0.00005121,0.000
 00265,0.00000500,0.00001322,-0.00000176,-0.00003824,-0.00014699,-0.000
 07673,0.00011408,0.00022910,-0.00000014,0.00000671,0.00001102,-0.00019
 584,-0.00020440,0.00057533,-0.00003342,-0.00001534,-0.00033454,0.00050
 438,-0.00019320,-0.00108761,-0.00302634,-0.00380348,0.00072354,-0.0265
 0104,-0.01479093,-0.03425790,0.00183665,0.00180581,0.00484971,-0.00071
 380,0.00111954,0.00648006,-0.00118105,0.00061985,0.00150648,-0.0000030
 7,0.00000059,-0.00000261,0.00000230,-0.00000174,-0.00000495,-0.0000018
 2,0.00000184,0.00000317,0.00000051,-0.00000175,-0.00000128,0.00000046,
 -0.00000065,-0.00000015,0.00000002,-0.00000032,-0.00000055,-0.00000005
 ,-0.00000005,0.00000035,0.00000045,0.,0.00000032,0.00000002,-0.0000005
 4,0.00000047,0.00000012,-0.00000009,0.00000091,-0.00000057,0.00000002,
 0.00000152,-0.00000776,-0.00000147,0.00003219,-0.00008339,0.00011824,0
 .00024082,0.02867552,0.01576161,0.02578526,0.,0.00000166,-0.00000108,-
 0.00000002,0.00000279,0.00000183,0.00000375,-0.00000185,-0.00000213,0.
 00000452,-0.00001015,-0.00000736,-0.00001000,-0.00001634,0.00000247,-0
 .00000612,0.00000682,-0.00000217,-0.00001606,-0.00000107,0.00000991,0.
 00001647,-0.00000110,-0.00000445,0.00001258,0.00000622,0.00000177,-0.0
 0002300,0.00003295,-0.00000481,0.00001041,-0.00006188,0.00001039,0.000
 03844,0.00010382,-0.00000219,0.00005834,0.00000370,0.00000890,-0.00006
 254,0.00003238,-0.00000953,-0.00014069,0.00003337,-0.00003133,0.000214
 93,-0.00002199,0.00005077,0.00003153,-0.00004733,0.00000603,0.00031586
 ,0.00064197,-0.00036714,0.00017015,0.00009404,0.00024071,0.00015367,0.
 00044098,-0.00013155,0.00068240,-0.00132109,-0.00116450,0.00573788,-0.
 00355847,0.00066402,-0.24875195,0.14142117,-0.04902516,-0.01240268,0.0
 0995267,-0.00265793,-0.00306391,-0.00227147,-0.00034628,-0.00002755,-0
 .00000689,-0.00000456,0.00001006,-0.00001150,0.00000334,-0.00001367,0.
 00001573,-0.00000430,-0.00000447,-0.00002232,0.00000198,-0.00000612,-0
 .00000697,-0.00000527,-0.00000055,0.00000170,0.00000046,0.00000123,0.0
 0000247,0.00000016,-0.00000188,-0.00000051,0.00000027,-0.00000072,0.00
 000021,-0.00000031,-0.00000058,-0.00000068,0.00000248,0.00000015,-0.00
 000661,-0.00000003,0.00000222,0.00001754,0.00000005,-0.00003632,0.0000
 4450,-0.00003499,0.00018441,0.00066991,0.00080868,0.25691986,0.0000007
 0,0.,-0.00000048,0.00000050,0.00000200,0.00000083,0.00000114,-0.000000
 52,-0.00000054,0.00000391,-0.00000561,-0.00000483,-0.00000567,-0.00000
 951,0.00000268,-0.00000235,0.00000385,-0.00000239,-0.00000790,0.000001
 33,0.00000637,0.00000843,0.00000149,-0.00000175,0.00000628,0.00000357,
 -0.00000055,-0.00001281,0.00001879,-0.00000265,0.00000472,-0.00003316,
 0.00000241,0.00001203,0.00005174,-0.00000056,0.00006086,0.00002301,0.0
 0000878,-0.00005847,0.00001246,-0.00001257,-0.00006943,0.00002192,-0.0
 0001184,0.00015584,-0.00004836,0.00002597,0.00004747,0.00000253,0.0000
 0959,0.00002005,0.00113946,0.00007927,0.00020133,-0.00018994,-0.000044
 10,0.00111388,0.00069848,0.00019557,-0.00088949,-0.00561223,0.00085078
 ,0.02441261,-0.00555587,0.00491232,0.13750198,-0.15053266,0.03306699,-
 0.01148506,0.00811277,-0.00269265,-0.00443962,-0.00224878,-0.00061314,
 -0.00001250,-0.00000703,-0.00000123,0.00000324,-0.00000664,0.00000056,
 -0.00000398,0.00000656,-0.00000066,-0.00000265,-0.00001094,0.00000037,
 -0.00000411,-0.00000066,-0.00000183,-0.00000050,0.00000060,-0.00000021
 ,0.00000061,0.00000112,0.00000011,-0.00000053,-0.00000026,0.00000002,-
 0.00000109,-0.00000182,0.00000003,-0.00000065,-0.00000076,0.00000081,-
 0.00000122,-0.00000397,0.00000033,0.00000268,0.00001323,-0.00000087,-0
 .00001517,-0.00001441,0.00000928,-0.00038667,0.00090936,-0.00048605,-0
 .14615838,0.15325884,0.00000034,0.00000056,0.00000166,0.00000105,0.000
 00062,-0.00000178,-0.00000014,-0.00000052,-0.00000044,0.00000148,-0.00
 000260,-0.00000148,-0.00000427,-0.00000419,-0.00000108,-0.00000015,0.0
 0000171,0.00000060,-0.00000420,0.00000225,0.00000093,0.00000337,0.0000
 0081,-0.00000123,0.00000223,0.00000056,0.00000031,-0.00000295,0.000003
 89,0.00000046,0.00000392,-0.00000937,-0.00001555,0.00000431,0.00001493
 ,0.00000900,0.00000750,-0.00000134,-0.00000749,-0.00000358,0.00000321,
 -0.00001681,-0.00002344,0.00000616,0.00002128,0.00003659,-0.00000536,-
 0.00005917,-0.00000148,-0.00000691,0.00001961,-0.00031982,0.00018564,0
 .00208312,0.00023316,-0.00006278,-0.00120879,-0.00017999,0.00007854,0.
 00067838,-0.00119729,0.00077500,0.00769456,-0.00140373,0.00004581,0.00
 316443,-0.04873155,0.03375877,-0.03786567,-0.00107537,0.00103313,-0.00
 159234,-0.00018798,-0.00023450,-0.00011453,-0.00000474,-0.00000008,0.0
 0000435,0.00000243,-0.00000202,-0.00000354,-0.00000250,0.00000258,0.00
 000118,-0.00000037,-0.00000331,-0.00000165,-0.00000115,-0.00000122,0.0
 0000146,0.00000010,-0.00000038,-0.00000062,0.00000009,0.00000021,0.000
 00019,0.00000038,-0.00000003,0.00000045,0.00000036,0.00000014,0.000000
 52,0.00000006,-0.00000016,0.00000151,-0.00000061,-0.00000046,0.0000037
 0,0.00000097,0.00000174,-0.00000471,-0.00003065,0.00001962,0.00013982,
 0.00088479,-0.00030651,-0.00457471,0.05199282,-0.03529415,0.03164407\\
 -0.00000450,0.00000818,0.00000034,-0.00000107,0.00000743,-0.00000139,0
 .00000172,-0.00000613,0.00000324,0.00000260,-0.00001479,-0.00000158,-0
 .00000515,0.00000640,0.00000192,0.00000906,-0.00000808,0.00000145,-0.0
 0000233,0.00000832,-0.00000672,0.00000463,0.00001152,0.00000756,0.0000
 0885,-0.00000809,0.00000209,-0.00001009,-0.00001090,0.00000805,0.00000
 319,0.00000830,-0.00000325,0.00000001,-0.00000557,-0.00000851,0.000015
 84,0.00000515,0.00000496,-0.00000330,-0.00000176,-0.00000325,0.0000016
 4,-0.00000495,-0.00000328,0.00000030,0.00001394,-0.00000382,-0.0000104
 4,-0.00000523,0.00000224,-0.00000286,-0.00000287,0.00000654,0.00000142
 ,0.00000449,-0.00001270,-0.00000755,0.00000013,0.00000588,0.00000644,-
 0.00000084,-0.00000217,-0.00000506,0.00000229,-0.00000127,0.00000134,0
 .00000609,-0.00000019,-0.00000031,-0.00001030,0.00000376,-0.00000281,0
 .00000809,-0.00000436,0.00000724,0.00000197,-0.00000719,-0.00001223,0.
 00000268,0.00000663,0.00001437,0.00000142,-0.00000328,-0.00000143,-0.0
 0000563,-0.00000584,-0.00001109,-0.00000444,0.00000384,0.00000152,-0.0
 0000296,0.00000121,0.00000039,-0.00000672,-0.00000150,-0.00000179,-0.0
 0000168,-0.00000146,0.00000012,-0.00000092,0.00000277,0.00000406,-0.00
 000159,0.00000391,-0.00000008,0.00000128,0.00000231,-0.00000070,0.0000
 0091,-0.00000200,-0.00000169,0.00000131,-0.00000082,0.00000060,0.00000
 216,0.00000242,-0.00000086,0.00000138,0.00000344\\\@


 THE FIRST AND LAST THING REQUIRED OF GENIUS IS THE LOVE OF TRUTH.

                          -- GOETHE
 Job cpu time:  0 days 19 hours  0 minutes 52.5 seconds.
 File lengths (MBytes):  RWF=   1864 Int=      0 D2E=      0 Chk=     31 Scr=      1
 Normal termination of Gaussian 09 at Sun Dec 29 10:11:03 2013.
