 Entering Gaussian System, Link 0=g09
 Initial command:
 /opt/gaussian/g09/l1.exe /panfs/panfs.cluster/home/shuo/Gau-22969.inp -scrdir=/panfs/panfs.cluster/home/shuo/
 Default is to use a total of  12 processors:
                               12 via shared-memory
                                1 via Linda
 Entering Link 1 = /opt/gaussian/g09/l1.exe PID=     22970.
  
 Copyright (c) 1988,1990,1992,1993,1995,1998,2003,2009,2011,
            Gaussian, Inc.  All Rights Reserved.
  
 This is part of the Gaussian(R) 09 program.  It is based on
 the Gaussian(R) 03 system (copyright 2003, Gaussian, Inc.),
 the Gaussian(R) 98 system (copyright 1998, Gaussian, Inc.),
 the Gaussian(R) 94 system (copyright 1995, Gaussian, Inc.),
 the Gaussian 92(TM) system (copyright 1992, Gaussian, Inc.),
 the Gaussian 90(TM) system (copyright 1990, Gaussian, Inc.),
 the Gaussian 88(TM) system (copyright 1988, Gaussian, Inc.),
 the Gaussian 86(TM) system (copyright 1986, Carnegie Mellon
 University), and the Gaussian 82(TM) system (copyright 1983,
 Carnegie Mellon University). Gaussian is a federally registered
 trademark of Gaussian, Inc.
  
 This software contains proprietary and confidential information,
 including trade secrets, belonging to Gaussian, Inc.
  
 This software is provided under written license and may be
 used, copied, transmitted, or stored only in accord with that
 written license.
  
 The following legend is applicable only to US Government
 contracts under FAR:
  
                    RESTRICTED RIGHTS LEGEND
  
 Use, reproduction and disclosure by the US Government is
 subject to restrictions as set forth in subparagraphs (a)
 and (c) of the Commercial Computer Software - Restricted
 Rights clause in FAR 52.227-19.
  
 Gaussian, Inc.
 340 Quinnipiac St., Bldg. 40, Wallingford CT 06492
  
  
 ---------------------------------------------------------------
 Warning -- This program may not be used in any manner that
 competes with the business of Gaussian, Inc. or will provide
 assistance to any competitor of Gaussian, Inc.  The licensee
 of this program is prohibited from giving any competitor of
 Gaussian, Inc. access to this program.  By using this program,
 the user acknowledges that Gaussian, Inc. is engaged in the
 business of creating and licensing software in the field of
 computational chemistry and represents and warrants to the
 licensee that it is not a competitor of Gaussian, Inc. and that
 it will not use this program in any manner prohibited above.
 ---------------------------------------------------------------
  

 Cite this work as:
 Gaussian 09, Revision C.01,
 M. J. Frisch, G. W. Trucks, H. B. Schlegel, G. E. Scuseria, 
 M. A. Robb, J. R. Cheeseman, G. Scalmani, V. Barone, B. Mennucci, 
 G. A. Petersson, H. Nakatsuji, M. Caricato, X. Li, H. P. Hratchian, 
 A. F. Izmaylov, J. Bloino, G. Zheng, J. L. Sonnenberg, M. Hada, 
 M. Ehara, K. Toyota, R. Fukuda, J. Hasegawa, M. Ishida, T. Nakajima, 
 Y. Honda, O. Kitao, H. Nakai, T. Vreven, J. A. Montgomery, Jr., 
 J. E. Peralta, F. Ogliaro, M. Bearpark, J. J. Heyd, E. Brothers, 
 K. N. Kudin, V. N. Staroverov, T. Keith, R. Kobayashi, J. Normand, 
 K. Raghavachari, A. Rendell, J. C. Burant, S. S. Iyengar, J. Tomasi, 
 M. Cossi, N. Rega, J. M. Millam, M. Klene, J. E. Knox, J. B. Cross, 
 V. Bakken, C. Adamo, J. Jaramillo, R. Gomperts, R. E. Stratmann, 
 O. Yazyev, A. J. Austin, R. Cammi, C. Pomelli, J. W. Ochterski, 
 R. L. Martin, K. Morokuma, V. G. Zakrzewski, G. A. Voth, 
 P. Salvador, J. J. Dannenberg, S. Dapprich, A. D. Daniels, 
 O. Farkas, J. B. Foresman, J. V. Ortiz, J. Cioslowski, 
 and D. J. Fox, Gaussian, Inc., Wallingford CT, 2010.
 
 ******************************************
 Gaussian 09:  EM64L-G09RevC.01 23-Sep-2011
                28-Dec-2013 
 ******************************************
 %chk=15_C21H14N4S2Si.chk
 %NProcShared=12
 Will use up to   12 processors via shared memory.
 %Mem=8000MB
 Default route:  MaxDisk=100GB
 --------------------------------------------
 #B3LYP/6-31++G(d,p) opt scf=direct freq test
 --------------------------------------------
 1/14=-1,18=20,19=15,26=3,38=1/1,3;
 2/9=110,12=2,17=6,18=5,40=1/2;
 3/5=1,6=6,7=1111,11=2,16=1,25=1,30=1,71=1,74=-5/1,2,3;
 4//1;
 5/5=2,38=5/2;
 6/7=2,8=2,9=2,10=2,28=1/1;
 7//1,2,3,16;
 1/14=-1,18=20,19=15/3(2);
 2/9=110/2;
 99//99;
 2/9=110/2;
 3/5=1,6=6,7=1111,11=2,16=1,25=1,30=1,71=1,74=-5/1,2,3;
 4/5=5,16=3/1;
 5/5=2,38=5/2;
 7//1,2,3,16;
 1/14=-1,18=20,19=15/3(-5);
 2/9=110/2;
 6/7=2,8=2,9=2,10=2,19=2,28=1/1;
 99/9=1/99;
 ----------------------------------------------------------------------
 Geom opt of No.15 candidate from the CEPDB database with SMILE code of
  C1C=Cc2sc3c(cnc4cc([nH]c34)-c3cncc4nsnc34)c12, HPC, 20131227, Shuo Da
 i, Gaussian09
 ----------------------------------------------------------------------
 Charge =  0 Multiplicity = 1
 Symbolic Z-Matrix:
 C                     2.80883   0.42794   1.02795 
 C                     2.49565  -0.3768   -0.23285 
 C                     3.18647  -1.49678   0.08255 
 C                     2.60255  -1.81991   1.32342 
 S                     1.32556  -2.89091   1.14444 
 C                     0.87976  -2.66179   2.71491 
 C                     1.58708  -1.66841   3.37996 
 C                     1.53151  -1.99644   4.8221 
 N                     0.70771  -3.02674   5.39781 
 C                    -0.05703  -3.8101    4.60352 
 C                    -1.02055  -4.89096   4.71339 
 C                    -1.43812  -5.29598   3.42893 
 N                    -0.69357  -4.52608   2.58099 
 H                    -0.73279  -4.57887   1.55237 
 C                     0.04685  -3.61238   3.2376 
 C                    -2.41784  -6.27403   2.93211 
 C                    -3.21564  -7.08195   3.74858 
 N                    -4.1604   -8.01277   3.37287 
 C                    -4.42695  -8.24787   2.056 
 C                    -3.7119   -7.50739   1.09656 
 N                    -3.84225  -7.59952  -0.2373 
 S                    -2.77425  -6.51226  -0.88829 
 N                    -2.09744  -5.87493   0.48961 
 C                    -2.67911  -6.4907    1.54069 
 C                     2.56022  -0.80688   2.31369 
 H                     2.33422   1.41104   0.94723 
 H                     3.88913   0.62425   0.75401 
 H                     1.39176  -0.39544  -0.32318 
 H                     4.26655  -1.42738   0.25811 
 H                     2.14369  -1.54227   5.60511 
 H                    -1.41352  -5.33642   5.62285 
 H                    -3.11911  -7.00437   4.83073 
 H                    -5.17551  -8.99115   1.81349 
 

 GradGradGradGradGradGradGradGradGradGradGradGradGradGradGradGradGradGrad
 Berny optimization.
 Initialization pass.
                           ----------------------------
                           !    Initial Parameters    !
                           ! (Angstroms and Degrees)  !
 --------------------------                            --------------------------
 ! Name  Definition              Value          Derivative Info.                !
 --------------------------------------------------------------------------------
 ! R1    R(1,2)                  1.5282         estimate D2E/DX2                !
 ! R2    R(1,25)                 1.7999         estimate D2E/DX2                !
 ! R3    R(1,26)                 1.0946         estimate D2E/DX2                !
 ! R4    R(1,27)                 1.1316         estimate D2E/DX2                !
 ! R5    R(2,3)                  1.3532         estimate D2E/DX2                !
 ! R6    R(2,28)                 1.1077         estimate D2E/DX2                !
 ! R7    R(3,4)                  1.4089         estimate D2E/DX2                !
 ! R8    R(3,29)                 1.0965         estimate D2E/DX2                !
 ! R9    R(4,5)                  1.6762         estimate D2E/DX2                !
 ! R10   R(4,25)                 1.4173         estimate D2E/DX2                !
 ! R11   R(5,6)                  1.6485         estimate D2E/DX2                !
 ! R12   R(6,7)                  1.389          estimate D2E/DX2                !
 ! R13   R(6,15)                 1.3677         estimate D2E/DX2                !
 ! R14   R(7,8)                  1.48           estimate D2E/DX2                !
 ! R15   R(7,25)                 1.6811         estimate D2E/DX2                !
 ! R16   R(8,9)                  1.4393         estimate D2E/DX2                !
 ! R17   R(8,30)                 1.0928         estimate D2E/DX2                !
 ! R18   R(9,10)                 1.3525         estimate D2E/DX2                !
 ! R19   R(10,11)                1.4521         estimate D2E/DX2                !
 ! R20   R(10,15)                1.3841         estimate D2E/DX2                !
 ! R21   R(11,12)                1.4101         estimate D2E/DX2                !
 ! R22   R(11,31)                1.0863         estimate D2E/DX2                !
 ! R23   R(12,13)                1.3661         estimate D2E/DX2                !
 ! R24   R(12,16)                1.4708         estimate D2E/DX2                !
 ! R25   R(13,14)                1.0307         estimate D2E/DX2                !
 ! R26   R(13,15)                1.3469         estimate D2E/DX2                !
 ! R27   R(16,17)                1.3985         estimate D2E/DX2                !
 ! R28   R(16,24)                1.4322         estimate D2E/DX2                !
 ! R29   R(17,18)                1.3785         estimate D2E/DX2                !
 ! R30   R(17,32)                1.0892         estimate D2E/DX2                !
 ! R31   R(18,19)                1.364          estimate D2E/DX2                !
 ! R32   R(19,20)                1.4072         estimate D2E/DX2                !
 ! R33   R(19,33)                1.0824         estimate D2E/DX2                !
 ! R34   R(20,21)                1.3434         estimate D2E/DX2                !
 ! R35   R(20,24)                1.5158         estimate D2E/DX2                !
 ! R36   R(21,22)                1.6573         estimate D2E/DX2                !
 ! R37   R(22,23)                1.6622         estimate D2E/DX2                !
 ! R38   R(23,24)                1.3499         estimate D2E/DX2                !
 ! A1    A(2,1,25)             101.5237         estimate D2E/DX2                !
 ! A2    A(2,1,26)             108.8594         estimate D2E/DX2                !
 ! A3    A(2,1,27)              95.0067         estimate D2E/DX2                !
 ! A4    A(25,1,26)            127.5115         estimate D2E/DX2                !
 ! A5    A(25,1,27)            115.0737         estimate D2E/DX2                !
 ! A6    A(26,1,27)            103.9015         estimate D2E/DX2                !
 ! A7    A(1,2,3)               97.9858         estimate D2E/DX2                !
 ! A8    A(1,2,28)             106.282          estimate D2E/DX2                !
 ! A9    A(3,2,28)             120.9191         estimate D2E/DX2                !
 ! A10   A(2,3,4)              100.5748         estimate D2E/DX2                !
 ! A11   A(2,3,29)             119.198          estimate D2E/DX2                !
 ! A12   A(4,3,29)             106.3646         estimate D2E/DX2                !
 ! A13   A(3,4,5)              111.606          estimate D2E/DX2                !
 ! A14   A(3,4,25)             117.6335         estimate D2E/DX2                !
 ! A15   A(5,4,25)             120.5668         estimate D2E/DX2                !
 ! A16   A(4,5,6)               90.8877         estimate D2E/DX2                !
 ! A17   A(5,6,7)              114.6965         estimate D2E/DX2                !
 ! A18   A(5,6,15)             115.605          estimate D2E/DX2                !
 ! A19   A(7,6,15)             128.6231         estimate D2E/DX2                !
 ! A20   A(6,7,8)              106.7925         estimate D2E/DX2                !
 ! A21   A(6,7,25)             110.9525         estimate D2E/DX2                !
 ! A22   A(8,7,25)             138.8811         estimate D2E/DX2                !
 ! A23   A(7,8,9)              124.7432         estimate D2E/DX2                !
 ! A24   A(7,8,30)             125.8065         estimate D2E/DX2                !
 ! A25   A(9,8,30)             109.3624         estimate D2E/DX2                !
 ! A26   A(8,9,10)             120.2192         estimate D2E/DX2                !
 ! A27   A(9,10,11)            139.625          estimate D2E/DX2                !
 ! A28   A(9,10,15)            117.0254         estimate D2E/DX2                !
 ! A29   A(11,10,15)           103.3442         estimate D2E/DX2                !
 ! A30   A(10,11,12)           109.9603         estimate D2E/DX2                !
 ! A31   A(10,11,31)           127.4895         estimate D2E/DX2                !
 ! A32   A(12,11,31)           122.5299         estimate D2E/DX2                !
 ! A33   A(11,12,13)           104.0131         estimate D2E/DX2                !
 ! A34   A(11,12,16)           134.1045         estimate D2E/DX2                !
 ! A35   A(13,12,16)           121.8812         estimate D2E/DX2                !
 ! A36   A(12,13,14)           124.74           estimate D2E/DX2                !
 ! A37   A(12,13,15)           112.2927         estimate D2E/DX2                !
 ! A38   A(14,13,15)           122.8305         estimate D2E/DX2                !
 ! A39   A(6,15,10)            121.4772         estimate D2E/DX2                !
 ! A40   A(6,15,13)            128.3125         estimate D2E/DX2                !
 ! A41   A(10,15,13)           110.0557         estimate D2E/DX2                !
 ! A42   A(12,16,17)           124.5373         estimate D2E/DX2                !
 ! A43   A(12,16,24)           123.3861         estimate D2E/DX2                !
 ! A44   A(17,16,24)           112.0688         estimate D2E/DX2                !
 ! A45   A(16,17,18)           128.459          estimate D2E/DX2                !
 ! A46   A(16,17,32)           119.2304         estimate D2E/DX2                !
 ! A47   A(18,17,32)           112.3105         estimate D2E/DX2                !
 ! A48   A(17,18,19)           120.895          estimate D2E/DX2                !
 ! A49   A(18,19,20)           117.9218         estimate D2E/DX2                !
 ! A50   A(18,19,33)           118.022          estimate D2E/DX2                !
 ! A51   A(20,19,33)           124.0562         estimate D2E/DX2                !
 ! A52   A(19,20,21)           126.2704         estimate D2E/DX2                !
 ! A53   A(19,20,24)           119.961          estimate D2E/DX2                !
 ! A54   A(21,20,24)           113.7686         estimate D2E/DX2                !
 ! A55   A(20,21,22)           106.4096         estimate D2E/DX2                !
 ! A56   A(21,22,23)           100.855          estimate D2E/DX2                !
 ! A57   A(22,23,24)           107.1636         estimate D2E/DX2                !
 ! A58   A(16,24,20)           120.6922         estimate D2E/DX2                !
 ! A59   A(16,24,23)           127.505          estimate D2E/DX2                !
 ! A60   A(20,24,23)           111.8028         estimate D2E/DX2                !
 ! A61   A(1,25,4)              89.2623         estimate D2E/DX2                !
 ! A62   A(1,25,7)             152.203          estimate D2E/DX2                !
 ! A63   A(4,25,7)              95.4026         estimate D2E/DX2                !
 ! D1    D(25,1,2,3)           -44.5455         estimate D2E/DX2                !
 ! D2    D(25,1,2,28)           81.0115         estimate D2E/DX2                !
 ! D3    D(26,1,2,3)           178.8736         estimate D2E/DX2                !
 ! D4    D(26,1,2,28)          -55.5694         estimate D2E/DX2                !
 ! D5    D(27,1,2,3)            72.3279         estimate D2E/DX2                !
 ! D6    D(27,1,2,28)         -162.1151         estimate D2E/DX2                !
 ! D7    D(2,1,25,4)            15.4889         estimate D2E/DX2                !
 ! D8    D(2,1,25,7)           -84.7348         estimate D2E/DX2                !
 ! D9    D(26,1,25,4)          140.4066         estimate D2E/DX2                !
 ! D10   D(26,1,25,7)           40.1828         estimate D2E/DX2                !
 ! D11   D(27,1,25,4)          -85.6814         estimate D2E/DX2                !
 ! D12   D(27,1,25,7)          174.0949         estimate D2E/DX2                !
 ! D13   D(1,2,3,4)             55.8549         estimate D2E/DX2                !
 ! D14   D(1,2,3,29)           -59.7818         estimate D2E/DX2                !
 ! D15   D(28,2,3,4)           -58.6034         estimate D2E/DX2                !
 ! D16   D(28,2,3,29)         -174.2401         estimate D2E/DX2                !
 ! D17   D(2,3,4,5)             92.9753         estimate D2E/DX2                !
 ! D18   D(2,3,4,25)           -52.5874         estimate D2E/DX2                !
 ! D19   D(29,3,4,5)          -142.1327         estimate D2E/DX2                !
 ! D20   D(29,3,4,25)           72.3046         estimate D2E/DX2                !
 ! D21   D(3,4,5,6)           -169.3139         estimate D2E/DX2                !
 ! D22   D(25,4,5,6)           -24.8951         estimate D2E/DX2                !
 ! D23   D(3,4,25,1)            18.9742         estimate D2E/DX2                !
 ! D24   D(3,4,25,7)           171.5235         estimate D2E/DX2                !
 ! D25   D(5,4,25,1)          -123.391          estimate D2E/DX2                !
 ! D26   D(5,4,25,7)            29.1584         estimate D2E/DX2                !
 ! D27   D(4,5,6,7)              6.5652         estimate D2E/DX2                !
 ! D28   D(4,5,6,15)          -162.6198         estimate D2E/DX2                !
 ! D29   D(5,6,7,8)           -154.785          estimate D2E/DX2                !
 ! D30   D(5,6,7,25)             8.5848         estimate D2E/DX2                !
 ! D31   D(15,6,7,8)            12.7063         estimate D2E/DX2                !
 ! D32   D(15,6,7,25)          176.0762         estimate D2E/DX2                !
 ! D33   D(5,6,15,10)          158.3733         estimate D2E/DX2                !
 ! D34   D(5,6,15,13)          -16.6395         estimate D2E/DX2                !
 ! D35   D(7,6,15,10)           -9.0231         estimate D2E/DX2                !
 ! D36   D(7,6,15,13)          175.9642         estimate D2E/DX2                !
 ! D37   D(6,7,8,9)             -9.2122         estimate D2E/DX2                !
 ! D38   D(6,7,8,30)           167.0108         estimate D2E/DX2                !
 ! D39   D(25,7,8,9)          -165.2323         estimate D2E/DX2                !
 ! D40   D(25,7,8,30)           10.9908         estimate D2E/DX2                !
 ! D41   D(6,7,25,1)            77.0797         estimate D2E/DX2                !
 ! D42   D(6,7,25,4)           -21.6439         estimate D2E/DX2                !
 ! D43   D(8,7,25,1)          -127.5426         estimate D2E/DX2                !
 ! D44   D(8,7,25,4)           133.7338         estimate D2E/DX2                !
 ! D45   D(7,8,9,10)             2.3226         estimate D2E/DX2                !
 ! D46   D(30,8,9,10)         -174.4313         estimate D2E/DX2                !
 ! D47   D(8,9,10,11)         -177.9867         estimate D2E/DX2                !
 ! D48   D(8,9,10,15)            3.0454         estimate D2E/DX2                !
 ! D49   D(9,10,11,12)        -178.5801         estimate D2E/DX2                !
 ! D50   D(9,10,11,31)           3.0392         estimate D2E/DX2                !
 ! D51   D(15,10,11,12)          0.475          estimate D2E/DX2                !
 ! D52   D(15,10,11,31)       -177.9058         estimate D2E/DX2                !
 ! D53   D(9,10,15,6)           -0.3791         estimate D2E/DX2                !
 ! D54   D(9,10,15,13)         175.4567         estimate D2E/DX2                !
 ! D55   D(11,10,15,6)        -179.692          estimate D2E/DX2                !
 ! D56   D(11,10,15,13)         -3.8562         estimate D2E/DX2                !
 ! D57   D(10,11,12,13)          2.9315         estimate D2E/DX2                !
 ! D58   D(10,11,12,16)       -176.669          estimate D2E/DX2                !
 ! D59   D(31,11,12,13)       -178.5924         estimate D2E/DX2                !
 ! D60   D(31,11,12,16)          1.8071         estimate D2E/DX2                !
 ! D61   D(11,12,13,14)        178.6453         estimate D2E/DX2                !
 ! D62   D(11,12,13,15)         -5.5171         estimate D2E/DX2                !
 ! D63   D(16,12,13,14)         -1.6925         estimate D2E/DX2                !
 ! D64   D(16,12,13,15)        174.1451         estimate D2E/DX2                !
 ! D65   D(11,12,16,17)          0.07           estimate D2E/DX2                !
 ! D66   D(11,12,16,24)        178.9768         estimate D2E/DX2                !
 ! D67   D(13,12,16,17)       -179.4735         estimate D2E/DX2                !
 ! D68   D(13,12,16,24)         -0.5668         estimate D2E/DX2                !
 ! D69   D(12,13,15,6)        -178.3441         estimate D2E/DX2                !
 ! D70   D(12,13,15,10)          6.1828         estimate D2E/DX2                !
 ! D71   D(14,13,15,6)          -2.4145         estimate D2E/DX2                !
 ! D72   D(14,13,15,10)       -177.8876         estimate D2E/DX2                !
 ! D73   D(12,16,17,18)        179.5015         estimate D2E/DX2                !
 ! D74   D(12,16,17,32)         -0.3861         estimate D2E/DX2                !
 ! D75   D(24,16,17,18)          0.4865         estimate D2E/DX2                !
 ! D76   D(24,16,17,32)       -179.4011         estimate D2E/DX2                !
 ! D77   D(12,16,24,20)       -179.4719         estimate D2E/DX2                !
 ! D78   D(12,16,24,23)          0.4547         estimate D2E/DX2                !
 ! D79   D(17,16,24,20)         -0.4437         estimate D2E/DX2                !
 ! D80   D(17,16,24,23)        179.4829         estimate D2E/DX2                !
 ! D81   D(16,17,18,19)         -0.1437         estimate D2E/DX2                !
 ! D82   D(32,17,18,19)        179.7503         estimate D2E/DX2                !
 ! D83   D(17,18,19,20)         -0.2521         estimate D2E/DX2                !
 ! D84   D(17,18,19,33)        179.8082         estimate D2E/DX2                !
 ! D85   D(18,19,20,21)       -179.7767         estimate D2E/DX2                !
 ! D86   D(18,19,20,24)          0.2496         estimate D2E/DX2                !
 ! D87   D(33,19,20,21)          0.159          estimate D2E/DX2                !
 ! D88   D(33,19,20,24)       -179.8146         estimate D2E/DX2                !
 ! D89   D(19,20,21,22)        179.9109         estimate D2E/DX2                !
 ! D90   D(24,20,21,22)         -0.114          estimate D2E/DX2                !
 ! D91   D(19,20,24,16)          0.1186         estimate D2E/DX2                !
 ! D92   D(19,20,24,23)       -179.8187         estimate D2E/DX2                !
 ! D93   D(21,20,24,16)       -179.8582         estimate D2E/DX2                !
 ! D94   D(21,20,24,23)          0.2045         estimate D2E/DX2                !
 ! D95   D(20,21,22,23)          0.0072         estimate D2E/DX2                !
 ! D96   D(21,22,23,24)          0.11           estimate D2E/DX2                !
 ! D97   D(22,23,24,16)        179.8861         estimate D2E/DX2                !
 ! D98   D(22,23,24,20)         -0.1819         estimate D2E/DX2                !
 --------------------------------------------------------------------------------
 Trust Radius=3.00D-01 FncErr=1.00D-07 GrdErr=1.00D-06
 Number of steps in this run=    198 maximum allowed number of steps=    198.
 GradGradGradGradGradGradGradGradGradGradGradGradGradGradGradGradGradGrad

                          Input orientation:                          
 ---------------------------------------------------------------------
 Center     Atomic      Atomic             Coordinates (Angstroms)
 Number     Number       Type             X           Y           Z
 ---------------------------------------------------------------------
      1          6           0        2.808830    0.427940    1.027950
      2          6           0        2.495650   -0.376800   -0.232850
      3          6           0        3.186470   -1.496780    0.082550
      4          6           0        2.602550   -1.819910    1.323420
      5         16           0        1.325560   -2.890910    1.144440
      6          6           0        0.879760   -2.661790    2.714910
      7          6           0        1.587080   -1.668410    3.379960
      8          6           0        1.531510   -1.996440    4.822100
      9          7           0        0.707710   -3.026740    5.397810
     10          6           0       -0.057030   -3.810100    4.603520
     11          6           0       -1.020550   -4.890960    4.713390
     12          6           0       -1.438120   -5.295980    3.428930
     13          7           0       -0.693570   -4.526080    2.580990
     14          1           0       -0.732790   -4.578870    1.552370
     15          6           0        0.046850   -3.612380    3.237600
     16          6           0       -2.417840   -6.274030    2.932110
     17          6           0       -3.215640   -7.081950    3.748580
     18          7           0       -4.160400   -8.012770    3.372870
     19          6           0       -4.426950   -8.247870    2.056000
     20          6           0       -3.711900   -7.507390    1.096560
     21          7           0       -3.842250   -7.599520   -0.237300
     22         16           0       -2.774250   -6.512260   -0.888290
     23          7           0       -2.097440   -5.874930    0.489610
     24          6           0       -2.679110   -6.490700    1.540690
     25          6           0        2.560220   -0.806880    2.313690
     26          1           0        2.334220    1.411040    0.947230
     27          1           0        3.889130    0.624250    0.754010
     28          1           0        1.391760   -0.395440   -0.323180
     29          1           0        4.266550   -1.427380    0.258110
     30          1           0        2.143690   -1.542270    5.605110
     31          1           0       -1.413520   -5.336420    5.622850
     32          1           0       -3.119110   -7.004370    4.830730
     33          1           0       -5.175510   -8.991150    1.813490
 ---------------------------------------------------------------------
                    Distance matrix (angstroms):
                    1          2          3          4          5
     1  C    0.000000
     2  C    1.528170   0.000000
     3  C    2.177370   1.353168   0.000000
     4  C    2.276551   2.125081   1.408948   0.000000
     5  S    3.637090   3.096254   2.556207   1.676239   0.000000
     6  C    4.014172   4.064673   3.688832   2.369180   1.648517
     7  C    3.379247   3.942861   3.668844   2.298584   2.561337
     8  C    4.680250   5.394935   5.044986   3.663202   3.790472
     9  N    5.953587   6.474816   6.061107   4.652689   4.300156
    10  C    6.241701   6.457105   6.025854   4.668327   3.836887
    11  C    7.519130   7.563504   7.117876   5.835246   4.716125
    12  C    7.520941   7.285706   6.857041   5.730903   4.317544
    13  N    6.262671   5.941830   5.520287   4.446262   2.968896
    14  H    6.155180   5.591711   5.198100   4.334602   2.693032
    15  C    5.369848   5.339440   4.928216   3.661780   2.556743
    16  C    8.709782   8.302811   7.896227   6.901549   5.352972
    17  C   10.004725   9.665902   9.253157   8.211078   6.705882
    18  N   11.194392  10.752314  10.356680   9.396236   7.829119
    19  C   11.343856  10.729164  10.365128   9.553492   7.913238
    20  C   10.271032   9.547058   9.205605   8.501245   6.833022
    21  N   10.501325   9.609198   9.313895   8.796317   7.126463
    22  S    9.110935   8.114513   7.850335   7.471264   5.835633
    23  N    8.005465   7.200546   6.874125   6.263253   4.588040
    24  C    8.845788   8.203862   7.840309   7.054036   5.399341
    25  C    1.799921   2.583409   2.417879   1.417271   2.689742
    26  H    1.094649   2.148260   3.151098   3.263826   4.423015
    27  H    1.131649   1.979338   2.333100   2.820183   4.368143
    28  H    2.124051   1.107736   2.144423   2.491269   2.895801
    29  H    2.481897   2.116801   1.096454   2.014413   3.402488
    30  H    5.027378   5.963554   5.620332   4.315148   4.731357
    31  H    8.495245   8.612123   8.160739   6.854178   5.791307
    32  H   10.239182  10.054355   9.624921   8.480403   7.089738
    33  H   12.372793  11.715000  11.361534  10.590801   8.940048
                    6          7          8          9         10
     6  C    0.000000
     7  C    1.389027   0.000000
     8  C    2.303849   1.480020   0.000000
     9  N    2.713069   2.586517   1.439308   0.000000
    10  C    2.400633   2.964293   2.420867   1.352545   0.000000
    11  C    3.546026   4.354607   3.860450   2.632609   1.452137
    12  C    3.580691   4.723716   4.652590   3.691954   2.344123
    13  N    2.443129   3.742458   4.046311   3.485123   2.237954
    14  H    2.761705   4.146403   4.742060   4.389938   3.218257
    15  C    1.367686   2.484269   2.706680   2.333713   1.384060
    16  C    4.895878   6.119779   6.121046   5.137473   3.799735
    17  C    6.113803   7.246269   7.039197   5.878551   4.627390
    18  N    7.380319   8.560636   8.407992   7.256678   6.001215
    19  C    7.733022   9.011699   9.068348   8.049387   6.729031
    20  C    6.868933   8.208946   8.470157   7.622987   6.271108
    21  N    7.442721   8.817044   9.266571   8.565449   7.219497
    22  S    6.415681   7.791151   8.458177   7.986736   6.696636
    23  N    4.913242   6.294809   6.854373   6.330204   5.034983
    24  C    5.357695   6.696101   6.978205   6.192491   4.841678
    25  C    2.534880   1.681121   2.960645   4.227454   4.594850
    26  H    4.672054   3.994922   5.222057   6.492079   6.807851
    27  H    4.868213   4.177480   5.382912   6.709399   7.074911
    28  H    3.824719   3.920695   5.390421   6.334145   6.166950
    29  H    4.362337   4.121117   5.351101   6.452892   6.576723
    30  H    3.347253   2.297176   1.092767   2.075732   3.315027
    31  H    4.568248   5.242943   4.524364   3.144023   2.282269
    32  H    6.271017   7.261228   6.834303   5.548664   4.430724
    33  H    8.805660  10.090043  10.147010   9.112289   7.799127
                   11         12         13         14         15
    11  C    0.000000
    12  C    1.410051   0.000000
    13  N    2.187963   1.366054   0.000000
    14  H    3.189397   2.129135   1.030720   0.000000
    15  C    2.225324   2.253054   1.346925   2.093309   0.000000
    16  C    2.652972   1.470804   2.480266   2.759827   3.640385
    17  C    3.248033   2.539969   3.775788   4.153708   4.789870
    18  N    4.626159   3.846414   4.980260   5.182123   6.089555
    19  C    5.471209   4.419468   5.297685   5.230872   6.549720
    20  C    5.212536   3.937050   4.494670   4.202272   5.820941
    21  N    6.309328   4.952512   5.225225   4.689988   6.564854
    22  S    6.089573   4.680061   4.506667   3.723221   5.778484
    23  N    4.468580   3.067489   2.857292   2.161365   4.155546
    24  C    3.921226   2.555946   2.980658   2.728258   4.312202
    25  C    5.938029   6.114123   4.948843   5.064724   3.878333
    26  H    8.071781   8.085388   6.861930   6.756609   5.976002
    27  H    8.378496   8.401423   7.131963   7.005140   6.235412
    28  H    7.169099   6.789834   5.463057   5.052968   4.983637
    29  H    7.733003   7.587056   6.292893   6.049826   5.608694
    30  H    4.692686   5.626319   5.108666   5.824069   3.779841
    31  H    1.086268   2.194431   3.229225   4.195960   3.285485
    32  H    2.980642   2.776575   4.133581   4.724957   4.905809
    33  H    6.518027   5.498364   6.372887   6.266910   7.631009
                   16         17         18         19         20
    16  C    0.000000
    17  C    1.398515   0.000000
    18  N    2.500800   1.378461   0.000000
    19  C    2.949599   2.385680   1.363990   0.000000
    20  C    2.562228   2.731389   2.374479   1.407172   0.000000
    21  N    3.719009   4.067894   3.647646   2.453866   1.343377
    22  S    3.844377   4.692540   4.725508   3.796393   2.410208
    23  N    2.495545   3.650774   4.139970   3.675736   2.374825
    24  C    1.432221   2.347812   2.804960   2.531430   1.515772
    25  C    7.419788   8.648466   9.910270  10.210548   9.258387
    26  H    9.251061  10.525179  11.699231  11.842184  10.775726
    27  H    9.597305  10.900951  12.093448  12.229754  11.136273
    28  H    7.724493   9.083875  10.124771  10.058754   8.868080
    29  H    8.678788  10.007033  11.139236  11.195018  10.066041
    30  H    7.095212   7.928252   9.305472  10.036661   9.497242
    31  H    3.021234   3.131677   4.446415   5.502701   5.521138
    32  H    2.151728   1.089213   2.055848   3.309964   3.814244
    33  H    4.029739   3.351225   2.102223   1.082413   2.204016
                   21         22         23         24         25
    21  N    0.000000
    22  S    1.657271   0.000000
    23  N    2.558705   1.662188   0.000000
    24  C    2.396586   2.430938   1.349919   0.000000
    25  C    9.676731   8.441600   7.120828   7.768778   0.000000
    26  H   10.988270   9.604389   8.540163   9.376735   2.614853
    27  H   11.330813   9.900887   8.840151   9.715099   2.499347
    28  H    8.905111   7.422296   6.546751   7.562948   2.913360
    29  H   10.202616   8.760314   7.767539   8.690478   2.742625
    30  H   10.327415   9.542074   7.932683   8.016600   3.398197
    31  H    6.735110   6.754934   5.206524   4.426975   6.874437
    32  H    5.153840   5.750503   4.600518   3.358842   8.774917
    33  H    2.814242   4.382985   4.575806   3.543823  11.272710
                   26         27         28         29         30
    26  H    0.000000
    27  H    1.753316   0.000000
    28  H    2.401154   2.904645   0.000000
    29  H    3.502201   2.144189   3.109215   0.000000
    30  H    5.518531   5.592275   6.084837   5.754141   0.000000
    31  H    9.024145   9.346298   8.224242   8.736374   5.200926
    32  H   10.753581  11.132426   9.517809  10.322773   7.624386
    33  H   12.858927  13.256927  11.026360  12.197636  11.110035
                   31         32         33
    31  H    0.000000
    32  H    2.513672   0.000000
    33  H    6.482349   4.156899   0.000000
 Stoichiometry    C17H9N5S2
 Framework group  C1[X(C17H9N5S2)]
 Deg. of freedom    93
 Full point group                 C1      NOp   1
 Largest Abelian subgroup         C1      NOp   1
 Largest concise Abelian subgroup C1      NOp   1
                         Standard orientation:                         
 ---------------------------------------------------------------------
 Center     Atomic      Atomic             Coordinates (Angstroms)
 Number     Number       Type             X           Y           Z
 ---------------------------------------------------------------------
      1          6           0       -5.682169   -1.249413    0.813077
      2          6           0       -4.832355   -2.475112    0.480234
      3          6           0       -4.510937   -2.141402   -0.791140
      4          6           0       -3.925714   -0.876218   -0.586307
      5         16           0       -2.263537   -0.987782   -0.400566
      6          6           0       -2.186595    0.585331    0.086265
      7          6           0       -3.420030    1.199616    0.261448
      8          6           0       -3.203578    2.652560    0.081001
      9          7           0       -1.914091    3.282150   -0.030557
     10          6           0       -0.787748    2.533409   -0.019833
     11          6           0        0.653714    2.702760   -0.066829
     12          6           0        1.287208    1.443160   -0.048546
     13          7           0        0.251914    0.552017   -0.060173
     14          1           0        0.359350   -0.473019   -0.072078
     15          6           0       -0.946329    1.159601    0.036064
     16          6           0        2.690342    1.003425   -0.015228
     17          6           0        3.791129    1.865714    0.008632
     18          7           0        5.131030    1.544565    0.049655
     19          6           0        5.538848    0.243228    0.075598
     20          6           0        4.549744   -0.757614    0.064627
     21          7           0        4.760965   -2.084031    0.090439
     22         16           0        3.265089   -2.796918    0.064118
     23          7           0        2.281043   -1.458094    0.018610
     24          6           0        3.084246   -0.373130    0.019315
     25          6           0       -4.670172    0.081526    0.146610
     26          1           0       -6.063156   -1.349738    1.834370
     27          1           0       -6.557342   -1.557067    0.164965
     28          1           0       -4.054532   -2.536562    1.266551
     29          1           0       -5.312581   -1.995828   -1.524888
     30          1           0       -3.986150    3.404576   -0.046250
     31          1           0        1.209478    3.635895   -0.085903
     32          1           0        3.624070    2.941969   -0.003675
     33          1           0        6.602397    0.044088    0.104337
 ---------------------------------------------------------------------
 Rotational constants (GHZ):      0.4295286      0.1184882      0.0941379
 Standard basis: 6-31++G(d,p) (6D, 7F)
 There are   518 symmetry adapted basis functions of A   symmetry.
 Integral buffers will be    131072 words long.
 Raffenetti 2 integral format.
 Two-electron integral symmetry is turned on.
   518 basis functions,   888 primitive gaussians,   518 cartesian basis functions
    89 alpha electrons       89 beta electrons
       nuclear repulsion energy      2111.1786595659 Hartrees.
 NAtoms=   33 NActive=   33 NUniq=   33 SFac= 1.00D+00 NAtFMM=   60 NAOKFM=F Big=F
 One-electron integrals computed using PRISM.
 NBasis=   518 RedAO= T  NBF=   518
 NBsUse=   513 1.00D-06 NBFU=   513
 Harris functional with IExCor=  402 diagonalized for initial guess.
 ExpMin= 3.60D-02 ExpMax= 2.19D+04 ExpMxC= 3.30D+03 IAcc=3 IRadAn=         5 AccDes= 0.00D+00
 HarFok:  IExCor=  402 AccDes= 0.00D+00 IRadAn=         5 IDoV= 1
 ScaDFX=  1.000000  1.000000  1.000000  1.000000
 FoFCou: FMM=F IPFlag=           0 FMFlag=      100000 FMFlg1=           0
         NFxFlg=           0 DoJE=T BraDBF=F KetDBF=T FulRan=T
         Omega=  0.000000  0.000000  1.000000  0.000000  0.000000 ICntrl=     500 IOpCl=  0
         NMat0=    1 NMatS0=    1 NMatT0=    0 NMatD0=    1 NMtDS0=    0 NMtDT0=    0
         I1Cent=           4 NGrid=           0.
 Petite list used in FoFCou.
 Initial guess orbital symmetries:
       Occupied  (A) (A) (A) (A) (A) (A) (A) (A) (A) (A) (A) (A)
                 (A) (A) (A) (A) (A) (A) (A) (A) (A) (A) (A) (A)
                 (A) (A) (A) (A) (A) (A) (A) (A) (A) (A) (A) (A)
                 (A) (A) (A) (A) (A) (A) (A) (A) (A) (A) (A) (A)
                 (A) (A) (A) (A) (A) (A) (A) (A) (A) (A) (A) (A)
                 (A) (A) (A) (A) (A) (A) (A) (A) (A) (A) (A) (A)
                 (A) (A) (A) (A) (A) (A) (A) (A) (A) (A) (A) (A)
                 (A) (A) (A) (A) (A)
       Virtual   (A) (A) (A) (A) (A) (A) (A) (A) (A) (A) (A) (A)
                 (A) (A) (A) (A) (A) (A) (A) (A) (A) (A) (A) (A)
                 (A) (A) (A) (A) (A) (A) (A) (A) (A) (A) (A) (A)
                 (A) (A) (A) (A) (A) (A) (A) (A) (A) (A) (A) (A)
                 (A) (A) (A) (A) (A) (A) (A) (A) (A) (A) (A) (A)
                 (A) (A) (A) (A) (A) (A) (A) (A) (A) (A) (A) (A)
                 (A) (A) (A) (A) (A) (A) (A) (A) (A) (A) (A) (A)
                 (A) (A) (A) (A) (A) (A) (A) (A) (A) (A) (A) (A)
                 (A) (A) (A) (A) (A) (A) (A) (A) (A) (A) (A) (A)
                 (A) (A) (A) (A) (A) (A) (A) (A) (A) (A) (A) (A)
                 (A) (A) (A) (A) (A) (A) (A) (A) (A) (A) (A) (A)
                 (A) (A) (A) (A) (A) (A) (A) (A) (A) (A) (A) (A)
                 (A) (A) (A) (A) (A) (A) (A) (A) (A) (A) (A) (A)
                 (A) (A) (A) (A) (A) (A) (A) (A) (A) (A) (A) (A)
                 (A) (A) (A) (A) (A) (A) (A) (A) (A) (A) (A) (A)
                 (A) (A) (A) (A) (A) (A) (A) (A) (A) (A) (A) (A)
                 (A) (A) (A) (A) (A) (A) (A) (A) (A) (A) (A) (A)
                 (A) (A) (A) (A) (A) (A) (A) (A) (A) (A) (A) (A)
                 (A) (A) (A) (A) (A) (A) (A) (A) (A) (A) (A) (A)
                 (A) (A) (A) (A) (A) (A) (A) (A) (A) (A) (A) (A)
                 (A) (A) (A) (A) (A) (A) (A) (A) (A) (A) (A) (A)
                 (A) (A) (A) (A) (A) (A) (A) (A) (A) (A) (A) (A)
                 (A) (A) (A) (A) (A) (A) (A) (A) (A) (A) (A) (A)
                 (A) (A) (A) (A) (A) (A) (A) (A) (A) (A) (A) (A)
                 (A) (A) (A) (A) (A) (A) (A) (A) (A) (A) (A) (A)
                 (A) (A) (A) (A) (A) (A) (A) (A) (A) (A) (A) (A)
                 (A) (A) (A) (A) (A) (A) (A) (A) (A) (A) (A) (A)
                 (A) (A) (A) (A) (A) (A) (A) (A) (A) (A) (A) (A)
                 (A) (A) (A) (A) (A) (A) (A) (A) (A) (A) (A) (A)
                 (A) (A) (A) (A) (A) (A) (A) (A) (A) (A) (A) (A)
                 (A) (A) (A) (A) (A) (A) (A) (A) (A) (A) (A) (A)
                 (A) (A) (A) (A) (A) (A) (A) (A) (A) (A) (A) (A)
                 (A) (A) (A) (A) (A) (A) (A) (A) (A) (A) (A) (A)
                 (A) (A) (A) (A) (A) (A) (A) (A) (A) (A) (A) (A)
                 (A) (A) (A) (A) (A) (A) (A) (A) (A) (A) (A) (A)
                 (A) (A) (A) (A)
 The electronic state of the initial guess is 1-A.
 Requested convergence on RMS density matrix=1.00D-08 within 128 cycles.
 Requested convergence on MAX density matrix=1.00D-06.
 Requested convergence on             energy=1.00D-06.
 No special actions if energy rises.
 EnCoef did     5 forward-backward iterations
 EnCoef did     3 forward-backward iterations
 EnCoef did    10 forward-backward iterations
 Restarting incremental Fock formation.
 SCF Done:  E(RB3LYP) =  -1722.98789633     A.U. after   23 cycles
             Convg  =    0.5295D-08             -V/T =  2.0067

 **********************************************************************

            Population analysis using the SCF density.

 **********************************************************************

 Orbital symmetries:
       Occupied  (A) (A) (A) (A) (A) (A) (A) (A) (A) (A) (A) (A)
                 (A) (A) (A) (A) (A) (A) (A) (A) (A) (A) (A) (A)
                 (A) (A) (A) (A) (A) (A) (A) (A) (A) (A) (A) (A)
                 (A) (A) (A) (A) (A) (A) (A) (A) (A) (A) (A) (A)
                 (A) (A) (A) (A) (A) (A) (A) (A) (A) (A) (A) (A)
                 (A) (A) (A) (A) (A) (A) (A) (A) (A) (A) (A) (A)
                 (A) (A) (A) (A) (A) (A) (A) (A) (A) (A) (A) (A)
                 (A) (A) (A) (A) (A)
       Virtual   (A) (A) (A) (A) (A) (A) (A) (A) (A) (A) (A) (A)
                 (A) (A) (A) (A) (A) (A) (A) (A) (A) (A) (A) (A)
                 (A) (A) (A) (A) (A) (A) (A) (A) (A) (A) (A) (A)
                 (A) (A) (A) (A) (A) (A) (A) (A) (A) (A) (A) (A)
                 (A) (A) (A) (A) (A) (A) (A) (A) (A) (A) (A) (A)
                 (A) (A) (A) (A) (A) (A) (A) (A) (A) (A) (A) (A)
                 (A) (A) (A) (A) (A) (A) (A) (A) (A) (A) (A) (A)
                 (A) (A) (A) (A) (A) (A) (A) (A) (A) (A) (A) (A)
                 (A) (A) (A) (A) (A) (A) (A) (A) (A) (A) (A) (A)
                 (A) (A) (A) (A) (A) (A) (A) (A) (A) (A) (A) (A)
                 (A) (A) (A) (A) (A) (A) (A) (A) (A) (A) (A) (A)
                 (A) (A) (A) (A) (A) (A) (A) (A) (A) (A) (A) (A)
                 (A) (A) (A) (A) (A) (A) (A) (A) (A) (A) (A) (A)
                 (A) (A) (A) (A) (A) (A) (A) (A) (A) (A) (A) (A)
                 (A) (A) (A) (A) (A) (A) (A) (A) (A) (A) (A) (A)
                 (A) (A) (A) (A) (A) (A) (A) (A) (A) (A) (A) (A)
                 (A) (A) (A) (A) (A) (A) (A) (A) (A) (A) (A) (A)
                 (A) (A) (A) (A) (A) (A) (A) (A) (A) (A) (A) (A)
                 (A) (A) (A) (A) (A) (A) (A) (A) (A) (A) (A) (A)
                 (A) (A) (A) (A) (A) (A) (A) (A) (A) (A) (A) (A)
                 (A) (A) (A) (A) (A) (A) (A) (A) (A) (A) (A) (A)
                 (A) (A) (A) (A) (A) (A) (A) (A) (A) (A) (A) (A)
                 (A) (A) (A) (A) (A) (A) (A) (A) (A) (A) (A) (A)
                 (A) (A) (A) (A) (A) (A) (A) (A) (A) (A) (A) (A)
                 (A) (A) (A) (A) (A) (A) (A) (A) (A) (A) (A) (A)
                 (A) (A) (A) (A) (A) (A) (A) (A) (A) (A) (A) (A)
                 (A) (A) (A) (A) (A) (A) (A) (A) (A) (A) (A) (A)
                 (A) (A) (A) (A) (A) (A) (A) (A) (A) (A) (A) (A)
                 (A) (A) (A) (A) (A) (A) (A) (A) (A) (A) (A) (A)
                 (A) (A) (A) (A) (A) (A) (A) (A) (A) (A) (A) (A)
                 (A) (A) (A) (A) (A) (A) (A) (A) (A) (A) (A) (A)
                 (A) (A) (A) (A) (A) (A) (A) (A) (A) (A) (A) (A)
                 (A) (A) (A) (A) (A) (A) (A) (A) (A) (A) (A) (A)
                 (A) (A) (A) (A) (A) (A) (A) (A) (A) (A) (A) (A)
                 (A) (A) (A) (A) (A) (A) (A) (A) (A) (A) (A) (A)
                 (A) (A) (A) (A)
 The electronic state is 1-A.
 Alpha  occ. eigenvalues --  -89.01268 -88.92702 -14.41478 -14.41377 -14.40433
 Alpha  occ. eigenvalues --  -14.37731 -14.34854 -10.29216 -10.28355 -10.26908
 Alpha  occ. eigenvalues --  -10.26832 -10.26411 -10.26404 -10.26221 -10.26110
 Alpha  occ. eigenvalues --  -10.25948 -10.25494 -10.25427 -10.24232 -10.23988
 Alpha  occ. eigenvalues --  -10.23555 -10.22443 -10.21127 -10.21114  -8.06517
 Alpha  occ. eigenvalues --   -7.99108  -6.03083  -6.02497  -6.02267  -5.95535
 Alpha  occ. eigenvalues --   -5.95140  -5.94729  -1.04732  -1.02615  -0.96015
 Alpha  occ. eigenvalues --   -0.94859  -0.93036  -0.92096  -0.87768  -0.84002
 Alpha  occ. eigenvalues --   -0.80729  -0.78870  -0.77710  -0.76888  -0.72469
 Alpha  occ. eigenvalues --   -0.70682  -0.69792  -0.66511  -0.65448  -0.63347
 Alpha  occ. eigenvalues --   -0.61424  -0.60864  -0.59053  -0.56308  -0.55089
 Alpha  occ. eigenvalues --   -0.54648  -0.52917  -0.51092  -0.49708  -0.49117
 Alpha  occ. eigenvalues --   -0.48549  -0.47337  -0.47199  -0.46455  -0.45340
 Alpha  occ. eigenvalues --   -0.44298  -0.43866  -0.42953  -0.41303  -0.41084
 Alpha  occ. eigenvalues --   -0.40701  -0.39995  -0.38754  -0.38027  -0.37708
 Alpha  occ. eigenvalues --   -0.36998  -0.36455  -0.36178  -0.35354  -0.34524
 Alpha  occ. eigenvalues --   -0.31092  -0.30255  -0.29218  -0.28631  -0.26548
 Alpha  occ. eigenvalues --   -0.26095  -0.23398  -0.22662  -0.20770
 Alpha virt. eigenvalues --   -0.13551  -0.12886  -0.07964  -0.06529  -0.04446
 Alpha virt. eigenvalues --   -0.03408  -0.02705  -0.02232  -0.01408  -0.00790
 Alpha virt. eigenvalues --   -0.00392   0.00485   0.00733   0.00931   0.01281
 Alpha virt. eigenvalues --    0.02015   0.02458   0.02577   0.02989   0.03542
 Alpha virt. eigenvalues --    0.03611   0.04189   0.04500   0.04817   0.05144
 Alpha virt. eigenvalues --    0.05443   0.06049   0.06568   0.06631   0.07241
 Alpha virt. eigenvalues --    0.07773   0.08041   0.08234   0.08617   0.08686
 Alpha virt. eigenvalues --    0.09041   0.09398   0.09627   0.09916   0.10839
 Alpha virt. eigenvalues --    0.10944   0.10981   0.11542   0.11546   0.11819
 Alpha virt. eigenvalues --    0.12088   0.12251   0.12291   0.12681   0.12696
 Alpha virt. eigenvalues --    0.12984   0.13383   0.13573   0.13758   0.14204
 Alpha virt. eigenvalues --    0.14219   0.14285   0.14844   0.14930   0.15755
 Alpha virt. eigenvalues --    0.15810   0.16043   0.16118   0.16470   0.16625
 Alpha virt. eigenvalues --    0.16934   0.17163   0.17712   0.17843   0.18426
 Alpha virt. eigenvalues --    0.18611   0.19048   0.19344   0.19445   0.20034
 Alpha virt. eigenvalues --    0.20228   0.20403   0.20736   0.21029   0.21167
 Alpha virt. eigenvalues --    0.21208   0.21919   0.22164   0.22331   0.22431
 Alpha virt. eigenvalues --    0.22602   0.23089   0.23488   0.23545   0.23856
 Alpha virt. eigenvalues --    0.24123   0.24630   0.24880   0.25150   0.25278
 Alpha virt. eigenvalues --    0.25648   0.26015   0.26559   0.26925   0.27410
 Alpha virt. eigenvalues --    0.27684   0.27729   0.27907   0.28032   0.28102
 Alpha virt. eigenvalues --    0.28804   0.29245   0.29563   0.30002   0.30163
 Alpha virt. eigenvalues --    0.30258   0.30741   0.31273   0.31787   0.31921
 Alpha virt. eigenvalues --    0.32251   0.32450   0.33068   0.33128   0.33674
 Alpha virt. eigenvalues --    0.34192   0.34468   0.34733   0.35360   0.35526
 Alpha virt. eigenvalues --    0.35731   0.36686   0.37354   0.37504   0.38011
 Alpha virt. eigenvalues --    0.38464   0.38888   0.39264   0.39726   0.40178
 Alpha virt. eigenvalues --    0.40759   0.41151   0.42334   0.42577   0.43934
 Alpha virt. eigenvalues --    0.44574   0.45728   0.46647   0.47194   0.48508
 Alpha virt. eigenvalues --    0.51047   0.52105   0.52578   0.55852   0.56410
 Alpha virt. eigenvalues --    0.58452   0.59424   0.61954   0.62703   0.63401
 Alpha virt. eigenvalues --    0.63899   0.64015   0.64771   0.65543   0.66086
 Alpha virt. eigenvalues --    0.67422   0.67536   0.68635   0.68935   0.69464
 Alpha virt. eigenvalues --    0.69817   0.71228   0.71470   0.71849   0.71984
 Alpha virt. eigenvalues --    0.72849   0.73189   0.73639   0.74400   0.75418
 Alpha virt. eigenvalues --    0.75835   0.76202   0.77193   0.77500   0.78476
 Alpha virt. eigenvalues --    0.78910   0.79453   0.79999   0.80970   0.81250
 Alpha virt. eigenvalues --    0.82587   0.82972   0.84261   0.84850   0.85939
 Alpha virt. eigenvalues --    0.87250   0.87847   0.88050   0.89739   0.90401
 Alpha virt. eigenvalues --    0.91872   0.92731   0.92968   0.93659   0.93880
 Alpha virt. eigenvalues --    0.95954   0.96368   0.97775   0.98040   0.98891
 Alpha virt. eigenvalues --    0.98961   1.00866   1.01477   1.01922   1.02711
 Alpha virt. eigenvalues --    1.03346   1.03557   1.03994   1.04286   1.04994
 Alpha virt. eigenvalues --    1.05865   1.06264   1.07181   1.08017   1.09356
 Alpha virt. eigenvalues --    1.09550   1.09900   1.10323   1.11137   1.11585
 Alpha virt. eigenvalues --    1.12780   1.13756   1.14211   1.14942   1.16232
 Alpha virt. eigenvalues --    1.16650   1.18154   1.18666   1.19336   1.20272
 Alpha virt. eigenvalues --    1.20434   1.21061   1.21827   1.22578   1.23659
 Alpha virt. eigenvalues --    1.24548   1.24797   1.26061   1.26577   1.27727
 Alpha virt. eigenvalues --    1.28559   1.29729   1.30978   1.31466   1.32388
 Alpha virt. eigenvalues --    1.33134   1.34491   1.34812   1.35782   1.36789
 Alpha virt. eigenvalues --    1.37837   1.38281   1.39267   1.39496   1.40278
 Alpha virt. eigenvalues --    1.41515   1.42348   1.45160   1.45298   1.47109
 Alpha virt. eigenvalues --    1.49488   1.51946   1.52853   1.54020   1.56064
 Alpha virt. eigenvalues --    1.59327   1.62412   1.62884   1.64864   1.66337
 Alpha virt. eigenvalues --    1.66895   1.68107   1.69377   1.69843   1.71619
 Alpha virt. eigenvalues --    1.72446   1.73935   1.74365   1.76279   1.78408
 Alpha virt. eigenvalues --    1.79273   1.80862   1.81312   1.82047   1.82677
 Alpha virt. eigenvalues --    1.84719   1.85083   1.85356   1.87044   1.87712
 Alpha virt. eigenvalues --    1.89312   1.90191   1.90877   1.92570   1.94557
 Alpha virt. eigenvalues --    1.95296   1.97361   1.97622   1.99555   2.01312
 Alpha virt. eigenvalues --    2.02150   2.03662   2.04561   2.05378   2.05880
 Alpha virt. eigenvalues --    2.06319   2.07992   2.10062   2.10648   2.12150
 Alpha virt. eigenvalues --    2.14430   2.15772   2.17791   2.18596   2.20091
 Alpha virt. eigenvalues --    2.20676   2.21814   2.22927   2.23308   2.23693
 Alpha virt. eigenvalues --    2.24726   2.26253   2.26818   2.28629   2.31033
 Alpha virt. eigenvalues --    2.31360   2.31554   2.32300   2.33035   2.34151
 Alpha virt. eigenvalues --    2.35271   2.36599   2.38142   2.38504   2.40590
 Alpha virt. eigenvalues --    2.41183   2.41968   2.42163   2.43698   2.45401
 Alpha virt. eigenvalues --    2.47465   2.48186   2.50073   2.51085   2.52354
 Alpha virt. eigenvalues --    2.53791   2.55634   2.56392   2.57830   2.58492
 Alpha virt. eigenvalues --    2.60284   2.62169   2.62354   2.62890   2.64019
 Alpha virt. eigenvalues --    2.65127   2.65400   2.67963   2.69510   2.70011
 Alpha virt. eigenvalues --    2.71474   2.72404   2.73467   2.74469   2.75741
 Alpha virt. eigenvalues --    2.77998   2.79340   2.81109   2.82550   2.83098
 Alpha virt. eigenvalues --    2.85915   2.86970   2.88686   2.89683   2.90301
 Alpha virt. eigenvalues --    2.92383   2.93200   2.99269   3.03142   3.04021
 Alpha virt. eigenvalues --    3.09220   3.09899   3.20235   3.23272   3.23530
 Alpha virt. eigenvalues --    3.24647   3.36428   3.37614   3.41922   3.42132
 Alpha virt. eigenvalues --    3.49532   3.51805   3.54517   3.60900   3.66948
 Alpha virt. eigenvalues --    3.92848   4.00033   4.10292   4.18684   4.25979
 Alpha virt. eigenvalues --    4.27160   4.31039   4.32027   4.36121   4.38314
 Alpha virt. eigenvalues --    4.39330   4.41502   4.44613   4.47128   4.47852
 Alpha virt. eigenvalues --    4.51064   4.54279   4.56343   4.59435   4.61697
 Alpha virt. eigenvalues --    4.66460   4.70549   4.81781   4.84197
          Condensed to atoms (all electrons):
              1          2          3          4          5          6
     1  C    7.028423  -0.276222  -0.939720   1.856315   0.561331   0.210304
     2  C   -0.276222   6.130262   0.473837  -0.546403  -0.596834   0.096318
     3  C   -0.939720   0.473837   9.504376  -3.808214  -0.355441  -0.455064
     4  C    1.856315  -0.546403  -3.808214  15.551621   1.841945   0.040895
     5  S    0.561331  -0.596834  -0.355441   1.841945  23.068618  -3.234124
     6  C    0.210304   0.096318  -0.455064   0.040895  -3.234124  11.366589
     7  C   -0.360610   0.165633   0.056130  -1.792688  -1.841795  -0.996379
     8  C    0.132216   0.044539  -0.146609   0.925784  -0.511170   1.274859
     9  N    0.002639  -0.000593  -0.000201  -0.007095   0.018140  -0.100195
    10  C   -0.021091   0.010830  -0.006787   0.238108   0.586212  -1.404092
    11  C   -0.001087  -0.001627   0.005818   0.227098   0.668213  -0.606730
    12  C   -0.031197  -0.006622   0.040063  -0.309632   0.007672  -0.032880
    13  N   -0.000061  -0.007449   0.023669  -0.004381   0.063005  -0.226077
    14  H    0.009646   0.007325   0.004660   0.065231  -0.464985   0.261570
    15  C   -0.027366   0.064012  -0.111481   0.580089  -0.348511   0.246705
    16  C    0.000906   0.004316   0.003002   0.066445  -0.120495  -0.270572
    17  C   -0.000049   0.000574   0.000995   0.017348  -0.058368  -0.125733
    18  N    0.000001   0.000000  -0.000001   0.000054  -0.000376   0.000872
    19  C    0.000004  -0.000022  -0.000023  -0.000578  -0.005012  -0.010458
    20  C   -0.000019  -0.000590   0.000711  -0.013003  -0.015155   0.117374
    21  N    0.000002   0.000021  -0.000026   0.000283   0.002682  -0.003761
    22  S   -0.000023  -0.000074   0.001121  -0.000568   0.014163  -0.033756
    23  N    0.000097   0.000357   0.001053   0.008697   0.021009  -0.053023
    24  C    0.000363  -0.001550  -0.004384  -0.042230  -0.061249   0.176768
    25  C   -2.220684   0.338617   1.752388  -9.225876  -3.501556  -0.122427
    26  H    0.437128  -0.131569  -0.095032   0.195310   0.092047  -0.008879
    27  H    0.356256  -0.094535   0.077277   0.022344   0.018881  -0.012575
    28  H   -0.147760   0.357741  -0.142945   0.190872   0.140811  -0.106146
    29  H   -0.043796  -0.055782   0.422938   0.045007   0.046566  -0.052304
    30  H   -0.007753   0.001973  -0.001053  -0.011562  -0.038129   0.009168
    31  H   -0.000038  -0.000098   0.000138   0.003051   0.015474   0.026871
    32  H    0.000002   0.000027   0.000048   0.000646  -0.004025  -0.003952
    33  H   -0.000000  -0.000000  -0.000000  -0.000012   0.000125  -0.000593
              7          8          9         10         11         12
     1  C   -0.360610   0.132216   0.002639  -0.021091  -0.001087  -0.031197
     2  C    0.165633   0.044539  -0.000593   0.010830  -0.001627  -0.006622
     3  C    0.056130  -0.146609  -0.000201  -0.006787   0.005818   0.040063
     4  C   -1.792688   0.925784  -0.007095   0.238108   0.227098  -0.309632
     5  S   -1.841795  -0.511170   0.018140   0.586212   0.668213   0.007672
     6  C   -0.996379   1.274859  -0.100195  -1.404092  -0.606730  -0.032880
     7  C   13.828478  -5.842662   0.225451   1.212780  -0.557228   0.398098
     8  C   -5.842662  13.229506   0.034370  -1.918796  -0.422480  -0.986301
     9  N    0.225451   0.034370   7.229148  -0.058275  -0.532148   0.003258
    10  C    1.212780  -1.918796  -0.058275  12.233076   3.713226  -1.888883
    11  C   -0.557228  -0.422480  -0.532148   3.713226  11.937565   1.494549
    12  C    0.398098  -0.986301   0.003258  -1.888883   1.494549  14.251409
    13  N   -0.108026   0.061207   0.038965   0.232094  -0.155169  -0.305844
    14  H   -0.037680   0.203740   0.016435  -0.113302  -0.303128  -0.429609
    15  C   -1.455639   2.251390   0.472041  -4.289227  -5.769359  -2.825976
    16  C    0.133942  -0.048676  -0.001511   0.194732   1.243570   2.156834
    17  C    0.058310  -0.043940  -0.010546  -0.709185  -2.025695  -2.214086
    18  N    0.000325   0.000279  -0.000053   0.006619   0.012160   0.040652
    19  C   -0.006081   0.001110   0.000474  -0.070800  -0.148991  -0.264677
    20  C    0.028771   0.000381   0.000563  -0.278037  -0.339464  -1.970936
    21  N   -0.000127  -0.000147   0.000003  -0.001389  -0.007846   0.071977
    22  S    0.000744  -0.002552  -0.000056   0.007479   0.004861   0.068016
    23  N   -0.016125  -0.004025  -0.000299   0.101438   0.097401  -0.230121
    24  C    0.160662  -0.026683   0.007870  -1.316518  -2.256753  -1.690021
    25  C    2.956360  -2.816395   0.053347  -0.251899  -0.303309   0.448443
    26  H   -0.054807  -0.040585   0.000101   0.007141   0.001110   0.000433
    27  H    0.054949   0.005798   0.000038   0.000595   0.000031   0.000085
    28  H   -0.009921   0.001176  -0.000203   0.013060   0.004169  -0.002714
    29  H    0.002745   0.031492   0.000216  -0.004638   0.000581  -0.001778
    30  H   -0.309307   0.681025  -0.130633  -0.017606   0.001458  -0.003503
    31  H   -0.048980   0.043238  -0.017365   0.217786   0.431617  -0.243435
    32  H    0.009634  -0.006502  -0.000986  -0.095201  -0.260661  -0.138866
    33  H   -0.000051  -0.000041  -0.000002  -0.002876  -0.008957  -0.013950
             13         14         15         16         17         18
     1  C   -0.000061   0.009646  -0.027366   0.000906  -0.000049   0.000001
     2  C   -0.007449   0.007325   0.064012   0.004316   0.000574   0.000000
     3  C    0.023669   0.004660  -0.111481   0.003002   0.000995  -0.000001
     4  C   -0.004381   0.065231   0.580089   0.066445   0.017348   0.000054
     5  S    0.063005  -0.464985  -0.348511  -0.120495  -0.058368  -0.000376
     6  C   -0.226077   0.261570   0.246705  -0.270572  -0.125733   0.000872
     7  C   -0.108026  -0.037680  -1.455639   0.133942   0.058310   0.000325
     8  C    0.061207   0.203740   2.251390  -0.048676  -0.043940   0.000279
     9  N    0.038965   0.016435   0.472041  -0.001511  -0.010546  -0.000053
    10  C    0.232094  -0.113302  -4.289227   0.194732  -0.709185   0.006619
    11  C   -0.155169  -0.303128  -5.769359   1.243570  -2.025695   0.012160
    12  C   -0.305844  -0.429609  -2.825976   2.156834  -2.214086   0.040652
    13  N    7.353718   0.385243  -0.240175  -0.262721   0.074035   0.001339
    14  H    0.385243   0.762952   0.280217  -0.113397   0.068739   0.002607
    15  C   -0.240175   0.280217  15.842383  -0.086158   0.236415   0.019546
    16  C   -0.262721  -0.113397  -0.086158  16.451726  -7.612983   0.721459
    17  C    0.074035   0.068739   0.236415  -7.612983  14.855011  -0.220121
    18  N    0.001339   0.002607   0.019546   0.721459  -0.220121   6.751039
    19  C    0.056477   0.029590  -0.006782   0.859768  -1.101183   0.009082
    20  C    0.156586  -0.043115   0.304952  -3.473185   0.171183   0.146841
    21  N   -0.009203  -0.006214  -0.000101   0.106116   0.044037   0.001234
    22  S   -0.044106  -0.035699   0.000239   0.055570   0.091244  -0.001596
    23  N    0.082965   0.108158  -0.088787  -0.237140   0.143911   0.000136
    24  C   -0.053645  -0.113661   1.619328  -2.463345   3.548304  -0.108741
    25  C   -0.035562  -0.051847  -0.693926  -0.068103  -0.015775  -0.000045
    26  H   -0.000287  -0.001904  -0.003927  -0.000141  -0.000011  -0.000000
    27  H   -0.000079   0.000195   0.001803   0.000058   0.000009  -0.000000
    28  H   -0.001083  -0.007765   0.034532   0.002185   0.000472   0.000001
    29  H    0.000301   0.000555   0.020081   0.000209   0.000007   0.000000
    30  H    0.000601   0.002620   0.054695  -0.001018  -0.000743   0.000003
    31  H    0.042148  -0.002559  -0.024597  -0.000179  -0.116631   0.003177
    32  H    0.001604   0.003218   0.081404  -0.841565   1.135184  -0.179064
    33  H   -0.000082  -0.001232  -0.000527  -0.012061   0.012413  -0.117106
             19         20         21         22         23         24
     1  C    0.000004  -0.000019   0.000002  -0.000023   0.000097   0.000363
     2  C   -0.000022  -0.000590   0.000021  -0.000074   0.000357  -0.001550
     3  C   -0.000023   0.000711  -0.000026   0.001121   0.001053  -0.004384
     4  C   -0.000578  -0.013003   0.000283  -0.000568   0.008697  -0.042230
     5  S   -0.005012  -0.015155   0.002682   0.014163   0.021009  -0.061249
     6  C   -0.010458   0.117374  -0.003761  -0.033756  -0.053023   0.176768
     7  C   -0.006081   0.028771  -0.000127   0.000744  -0.016125   0.160662
     8  C    0.001110   0.000381  -0.000147  -0.002552  -0.004025  -0.026683
     9  N    0.000474   0.000563   0.000003  -0.000056  -0.000299   0.007870
    10  C   -0.070800  -0.278037  -0.001389   0.007479   0.101438  -1.316518
    11  C   -0.148991  -0.339464  -0.007846   0.004861   0.097401  -2.256753
    12  C   -0.264677  -1.970936   0.071977   0.068016  -0.230121  -1.690021
    13  N    0.056477   0.156586  -0.009203  -0.044106   0.082965  -0.053645
    14  H    0.029590  -0.043115  -0.006214  -0.035699   0.108158  -0.113661
    15  C   -0.006782   0.304952  -0.000101   0.000239  -0.088787   1.619328
    16  C    0.859768  -3.473185   0.106116   0.055570  -0.237140  -2.463345
    17  C   -1.101183   0.171183   0.044037   0.091244   0.143911   3.548304
    18  N    0.009082   0.146841   0.001234  -0.001596   0.000136  -0.108741
    19  C   11.955143  -2.503281  -0.455248  -0.147386   0.168430  -2.678305
    20  C   -2.503281  17.342693  -0.205535  -0.561616   0.535115  -3.180807
    21  N   -0.455248  -0.205535   7.365672   0.067402  -0.142521   0.563099
    22  S   -0.147386  -0.561616   0.067402  15.644821  -0.220235   0.192467
    23  N    0.168430   0.535115  -0.142521  -0.220235   7.792342  -0.596605
    24  C   -2.678305  -3.180807   0.563099   0.192467  -0.596605  14.020758
    25  C   -0.000078   0.009697  -0.000104  -0.001266  -0.008805   0.045397
    26  H   -0.000003  -0.000023   0.000001   0.000000   0.000005   0.000055
    27  H   -0.000000  -0.000004   0.000000   0.000002   0.000005  -0.000013
    28  H   -0.000012  -0.000608   0.000014   0.000139   0.000263  -0.000641
    29  H    0.000004  -0.000057   0.000000   0.000003   0.000059  -0.000383
    30  H    0.000015   0.000212  -0.000003  -0.000039  -0.000187   0.001114
    31  H   -0.003349  -0.009112  -0.000039  -0.000610   0.000167  -0.080008
    32  H    0.012405   0.079135   0.000913   0.000652  -0.002445   0.260719
    33  H    0.699162  -0.363365  -0.002630  -0.003203  -0.005322   0.005107
             25         26         27         28         29         30
     1  C   -2.220684   0.437128   0.356256  -0.147760  -0.043796  -0.007753
     2  C    0.338617  -0.131569  -0.094535   0.357741  -0.055782   0.001973
     3  C    1.752388  -0.095032   0.077277  -0.142945   0.422938  -0.001053
     4  C   -9.225876   0.195310   0.022344   0.190872   0.045007  -0.011562
     5  S   -3.501556   0.092047   0.018881   0.140811   0.046566  -0.038129
     6  C   -0.122427  -0.008879  -0.012575  -0.106146  -0.052304   0.009168
     7  C    2.956360  -0.054807   0.054949  -0.009921   0.002745  -0.309307
     8  C   -2.816395  -0.040585   0.005798   0.001176   0.031492   0.681025
     9  N    0.053347   0.000101   0.000038  -0.000203   0.000216  -0.130633
    10  C   -0.251899   0.007141   0.000595   0.013060  -0.004638  -0.017606
    11  C   -0.303309   0.001110   0.000031   0.004169   0.000581   0.001458
    12  C    0.448443   0.000433   0.000085  -0.002714  -0.001778  -0.003503
    13  N   -0.035562  -0.000287  -0.000079  -0.001083   0.000301   0.000601
    14  H   -0.051847  -0.001904   0.000195  -0.007765   0.000555   0.002620
    15  C   -0.693926  -0.003927   0.001803   0.034532   0.020081   0.054695
    16  C   -0.068103  -0.000141   0.000058   0.002185   0.000209  -0.001018
    17  C   -0.015775  -0.000011   0.000009   0.000472   0.000007  -0.000743
    18  N   -0.000045  -0.000000  -0.000000   0.000001   0.000000   0.000003
    19  C   -0.000078  -0.000003  -0.000000  -0.000012   0.000004   0.000015
    20  C    0.009697  -0.000023  -0.000004  -0.000608  -0.000057   0.000212
    21  N   -0.000104   0.000001   0.000000   0.000014   0.000000  -0.000003
    22  S   -0.001266   0.000000   0.000002   0.000139   0.000003  -0.000039
    23  N   -0.008805   0.000005   0.000005   0.000263   0.000059  -0.000187
    24  C    0.045397   0.000055  -0.000013  -0.000641  -0.000383   0.001114
    25  C   20.295049  -0.151325  -0.164258  -0.142880  -0.239425  -0.031915
    26  H   -0.151325   0.614486  -0.045192   0.007268  -0.000658  -0.001383
    27  H   -0.164258  -0.045192   0.572445   0.015657   0.022956   0.000040
    28  H   -0.142880   0.007268   0.015657   0.619895   0.017020   0.000086
    29  H   -0.239425  -0.000658   0.022956   0.017020   0.613521   0.000541
    30  H   -0.031915  -0.001383   0.000040   0.000086   0.000541   0.617898
    31  H   -0.004855   0.000009  -0.000005   0.000040   0.000015   0.001858
    32  H   -0.000494  -0.000001   0.000001   0.000008  -0.000000  -0.000076
    33  H   -0.000005  -0.000000  -0.000000   0.000000  -0.000000  -0.000000
             31         32         33
     1  C   -0.000038   0.000002  -0.000000
     2  C   -0.000098   0.000027  -0.000000
     3  C    0.000138   0.000048  -0.000000
     4  C    0.003051   0.000646  -0.000012
     5  S    0.015474  -0.004025   0.000125
     6  C    0.026871  -0.003952  -0.000593
     7  C   -0.048980   0.009634  -0.000051
     8  C    0.043238  -0.006502  -0.000041
     9  N   -0.017365  -0.000986  -0.000002
    10  C    0.217786  -0.095201  -0.002876
    11  C    0.431617  -0.260661  -0.008957
    12  C   -0.243435  -0.138866  -0.013950
    13  N    0.042148   0.001604  -0.000082
    14  H   -0.002559   0.003218  -0.001232
    15  C   -0.024597   0.081404  -0.000527
    16  C   -0.000179  -0.841565  -0.012061
    17  C   -0.116631   1.135184   0.012413
    18  N    0.003177  -0.179064  -0.117106
    19  C   -0.003349   0.012405   0.699162
    20  C   -0.009112   0.079135  -0.363365
    21  N   -0.000039   0.000913  -0.002630
    22  S   -0.000610   0.000652  -0.003203
    23  N    0.000167  -0.002445  -0.005322
    24  C   -0.080008   0.260719   0.005107
    25  C   -0.004855  -0.000494  -0.000005
    26  H    0.000009  -0.000001  -0.000000
    27  H   -0.000005   0.000001  -0.000000
    28  H    0.000040   0.000008   0.000000
    29  H    0.000015  -0.000000  -0.000000
    30  H    0.001858  -0.000076  -0.000000
    31  H    0.661722  -0.043765  -0.000297
    32  H   -0.043765   0.772074   0.003931
    33  H   -0.000297   0.003931   0.621509
 Mulliken atomic charges:
              1
     1  C   -0.518156
     2  C    0.023584
     3  C   -0.301243
     4  C   -0.114903
     5  S   -0.009666
     6  C    0.031429
     7  C    0.145094
     8  C   -0.104546
     9  N   -0.242900
    10  C   -0.326574
    11  C   -0.142798
    12  C    0.609543
    13  N   -0.120007
    14  H    0.513396
    15  C   -0.137299
    16  C   -0.387585
    17  C   -0.203143
    18  N   -0.090322
    19  C   -0.389397
    20  C    0.063699
    21  N   -0.388561
    22  S    0.903861
    23  N   -0.455967
    24  C    0.073531
    25  C    0.153517
    26  H    0.180632
    27  H    0.167235
    28  H    0.157266
    29  H    0.174003
    30  H    0.181601
    31  H    0.148612
    32  H    0.216002
    33  H    0.190065
 Sum of Mulliken atomic charges =  -0.00000
 Mulliken charges with hydrogens summed into heavy atoms:
              1
     1  C   -0.170289
     2  C    0.180850
     3  C   -0.127240
     4  C   -0.114903
     5  S   -0.009666
     6  C    0.031429
     7  C    0.145094
     8  C    0.077056
     9  N   -0.242900
    10  C   -0.326574
    11  C    0.005813
    12  C    0.609543
    13  N    0.393388
    15  C   -0.137299
    16  C   -0.387585
    17  C    0.012858
    18  N   -0.090322
    19  C   -0.199332
    20  C    0.063699
    21  N   -0.388561
    22  S    0.903861
    23  N   -0.455967
    24  C    0.073531
    25  C    0.153517
 Sum of Mulliken charges with hydrogens summed into heavy atoms =  -0.00000
 Electronic spatial extent (au):  <R**2>=          10450.7615
 Charge=              0.0000 electrons
 Dipole moment (field-independent basis, Debye):
    X=              0.3756    Y=             -3.6858    Z=              0.7817  Tot=              3.7864
 Quadrupole moment (field-independent basis, Debye-Ang):
   XX=           -150.5041   YY=           -163.2089   ZZ=           -153.3538
   XY=              1.3344   XZ=             -3.2464   YZ=             -1.8434
 Traceless Quadrupole moment (field-independent basis, Debye-Ang):
   XX=              5.1849   YY=             -7.5200   ZZ=              2.3351
   XY=              1.3344   XZ=             -3.2464   YZ=             -1.8434
 Octapole moment (field-independent basis, Debye-Ang**2):
  XXX=            -51.7918  YYY=            -50.5097  ZZZ=              2.6907  XYY=             35.1087
  XXY=            -40.9496  XXZ=             13.7961  XZZ=              3.2639  YZZ=            -13.3156
  YYZ=              4.1200  XYZ=              6.3643
 Hexadecapole moment (field-independent basis, Debye-Ang**3):
 XXXX=         -11417.7735 YYYY=          -3349.9133 ZZZZ=           -286.7564 XXXY=           -100.6966
 XXXZ=            -73.4311 YYYX=            -79.4092 YYYZ=            -13.8481 ZZZX=            -11.4992
 ZZZY=            -10.1626 XXYY=          -2634.8882 XXZZ=          -1950.1353 YYZZ=           -597.1206
 XXYZ=            -26.4533 YYXZ=            -15.8660 ZZXY=             -1.8445
 N-N= 2.111178659566D+03 E-N=-8.260787929291D+03  KE= 1.711578960968D+03
 Calling FoFJK, ICntrl=      2127 FMM=F ISym2X=0 I1Cent= 0 IOpClX= 0 NMat=1 NMatS=1 NMatT=0.
 ***** Axes restored to original set *****
 -------------------------------------------------------------------
 Center     Atomic                   Forces (Hartrees/Bohr)
 Number     Number              X              Y              Z
 -------------------------------------------------------------------
      1        6           0.053156814    0.038407222   -0.021079581
      2        6          -0.045651748    0.029325174    0.025591412
      3        6           0.070756924   -0.016606179   -0.031733304
      4        6          -0.042179099   -0.003409380    0.001018617
      5       16           0.005702900   -0.042103215   -0.044790509
      6        6          -0.014396167    0.006299186    0.001204959
      7        6           0.014965735    0.018882430    0.042004737
      8        6          -0.035408434   -0.030184502    0.008945508
      9        7           0.039179316    0.043318336   -0.005399454
     10        6          -0.010583535    0.004035046   -0.003495969
     11        6          -0.010831551   -0.009926176    0.023262185
     12        6           0.011244716    0.005140694    0.023116655
     13        7          -0.003970824   -0.000279291   -0.060212627
     14        1          -0.005733955   -0.003674524    0.014442192
     15        6          -0.004073441   -0.001399158    0.008054596
     16        6          -0.004419646   -0.004442050    0.001355189
     17        6          -0.006239671   -0.006428485    0.004508837
     18        7          -0.000556074   -0.000080669   -0.031328768
     19        6           0.015915092    0.014727314    0.049223256
     20        6           0.020460049    0.020059579   -0.003408150
     21        7           0.010878017    0.010909005    0.004440094
     22       16          -0.002324820   -0.002429492    0.006361043
     23        7          -0.009848419   -0.010561704    0.003051053
     24        6          -0.012696437   -0.012178532   -0.023094502
     25        6          -0.025345091   -0.049112156   -0.023139704
     26        1          -0.008780543   -0.003491732    0.027077182
     27        1          -0.009804429    0.002709038    0.036027817
     28        1           0.005731113   -0.015033968   -0.006510347
     29        1           0.004764217    0.007976682   -0.013143198
     30        1          -0.003474800    0.005459553   -0.009053846
     31        1           0.003198640    0.003794751   -0.000079060
     32        1           0.000953691    0.000756167   -0.001869826
     33        1          -0.000588541   -0.000458963   -0.001346488
 -------------------------------------------------------------------
 Cartesian Forces:  Max     0.070756924 RMS     0.021748929

 GradGradGradGradGradGradGradGradGradGradGradGradGradGradGradGradGradGrad
 Berny optimization.
 Internal  Forces:  Max     0.076024959 RMS     0.015920181
 Search for a local minimum.
 Step number   1 out of a maximum of  198
 All quantities printed in internal units (Hartrees-Bohrs-Radians)
 Mixed Optimization -- RFO/linear search
 Second derivative matrix not updated -- first step.
 ITU=  0
     Eigenvalues ---    0.00941   0.01071   0.01088   0.01152   0.01357
     Eigenvalues ---    0.01445   0.01510   0.01524   0.01608   0.01634
     Eigenvalues ---    0.01654   0.01710   0.01902   0.01934   0.01949
     Eigenvalues ---    0.02032   0.02061   0.02085   0.02120   0.02229
     Eigenvalues ---    0.02270   0.02321   0.02355   0.02475   0.02778
     Eigenvalues ---    0.03187   0.04076   0.04577   0.05981   0.07036
     Eigenvalues ---    0.07813   0.08186   0.09491   0.10286   0.11152
     Eigenvalues ---    0.14526   0.15943   0.15982   0.15991   0.16000
     Eigenvalues ---    0.16000   0.19235   0.19872   0.20741   0.22154
     Eigenvalues ---    0.23135   0.23231   0.23415   0.23430   0.24064
     Eigenvalues ---    0.24276   0.24900   0.24995   0.24999   0.24999
     Eigenvalues ---    0.25000   0.25000   0.27942   0.29592   0.30411
     Eigenvalues ---    0.32841   0.33478   0.34077   0.34281   0.34495
     Eigenvalues ---    0.34501   0.34904   0.35248   0.35644   0.35704
     Eigenvalues ---    0.35993   0.37863   0.38355   0.39535   0.39553
     Eigenvalues ---    0.40407   0.40499   0.40567   0.42267   0.42400
     Eigenvalues ---    0.42671   0.43733   0.45180   0.45266   0.48064
     Eigenvalues ---    0.49429   0.49890   0.50201   0.51055   0.52676
     Eigenvalues ---    0.53208   0.53537   0.55282
 RFO step:  Lambda=-1.37957263D-01 EMin= 9.41470896D-03
 Linear search not attempted -- first point.
 Maximum step size (   0.300) exceeded in Quadratic search.
    -- Step size scaled by   0.589
 Iteration  1 RMS(Cart)=  0.15002246 RMS(Int)=  0.00464672
 Iteration  2 RMS(Cart)=  0.00967299 RMS(Int)=  0.00041731
 Iteration  3 RMS(Cart)=  0.00002516 RMS(Int)=  0.00041674
 Iteration  4 RMS(Cart)=  0.00000001 RMS(Int)=  0.00041674
 Variable       Old X    -DE/DX   Delta X   Delta X   Delta X     New X
                                 (Linear)    (Quad)   (Total)
    R1        2.88782   0.00172   0.00000   0.00318   0.00312   2.89094
    R2        3.40136  -0.01249   0.00000  -0.03994  -0.04042   3.36093
    R3        2.06859  -0.00132   0.00000  -0.00162  -0.00162   2.06696
    R4        2.13851  -0.01761   0.00000  -0.02345  -0.02345   2.11506
    R5        2.55712   0.03171   0.00000   0.03012   0.03017   2.58728
    R6        2.09332  -0.00493   0.00000  -0.00622  -0.00622   2.08710
    R7        2.66253   0.05161   0.00000   0.05805   0.05860   2.72112
    R8        2.07200   0.00309   0.00000   0.00380   0.00380   2.07580
    R9        3.16763   0.04164   0.00000   0.04688   0.04682   3.21445
   R10        2.67825   0.03583   0.00000   0.03419   0.03397   2.71222
   R11        3.11525   0.05353   0.00000   0.06166   0.06221   3.17745
   R12        2.62488   0.01433   0.00000   0.01526   0.01564   2.64052
   R13        2.58455   0.02514   0.00000   0.02635   0.02656   2.61111
   R14        2.79683  -0.02817   0.00000  -0.03917  -0.03923   2.75761
   R15        3.17686  -0.03248   0.00000  -0.06881  -0.06925   3.10761
   R16        2.71990  -0.07602   0.00000  -0.08802  -0.08822   2.63168
   R17        2.06503  -0.00616   0.00000  -0.00751  -0.00751   2.05752
   R18        2.55594  -0.00324   0.00000  -0.00278  -0.00294   2.55300
   R19        2.74414  -0.01656   0.00000  -0.02091  -0.02107   2.72307
   R20        2.61549   0.03188   0.00000   0.03578   0.03580   2.65130
   R21        2.66461  -0.00936   0.00000  -0.01217  -0.01224   2.65237
   R22        2.05275  -0.00278   0.00000  -0.00334  -0.00334   2.04941
   R23        2.58147   0.02174   0.00000   0.01988   0.02001   2.60147
   R24        2.77942  -0.01691   0.00000  -0.02013  -0.02013   2.75928
   R25        1.94778  -0.01401   0.00000  -0.01460  -0.01460   1.93318
   R26        2.54532   0.01553   0.00000   0.01537   0.01552   2.56083
   R27        2.64281  -0.00567   0.00000  -0.00548  -0.00551   2.63730
   R28        2.70651  -0.00372   0.00000  -0.00310  -0.00311   2.70339
   R29        2.60491  -0.01857   0.00000  -0.01786  -0.01789   2.58703
   R30        2.05831  -0.00172   0.00000  -0.00208  -0.00208   2.05624
   R31        2.57757  -0.03776   0.00000  -0.03446  -0.03446   2.54311
   R32        2.65917   0.00806   0.00000   0.00792   0.00795   2.66712
   R33        2.04546   0.00102   0.00000   0.00122   0.00122   2.04668
   R34        2.53861  -0.00538   0.00000  -0.00450  -0.00450   2.53411
   R35        2.86439  -0.03784   0.00000  -0.04933  -0.04930   2.81510
   R36        3.13179  -0.01042   0.00000  -0.01092  -0.01093   3.12085
   R37        3.14108  -0.00922   0.00000  -0.00987  -0.00987   3.13121
   R38        2.55098  -0.01115   0.00000  -0.00963  -0.00962   2.54136
    A1        1.77192   0.00355   0.00000  -0.01229  -0.01310   1.75882
    A2        1.89995   0.01945   0.00000   0.05343   0.05332   1.95328
    A3        1.65818   0.01628   0.00000   0.05890   0.05886   1.71704
    A4        2.22549  -0.03141   0.00000  -0.06465  -0.06453   2.16096
    A5        2.00842  -0.00132   0.00000  -0.01180  -0.01250   1.99591
    A6        1.81342   0.00932   0.00000   0.01855   0.01521   1.82864
    A7        1.71018   0.00672   0.00000   0.00862   0.00798   1.71815
    A8        1.85497   0.01094   0.00000   0.03396   0.03427   1.88924
    A9        2.11044  -0.00254   0.00000  -0.00965  -0.01009   2.10035
   A10        1.75536  -0.02343   0.00000  -0.04067  -0.04027   1.71509
   A11        2.08040  -0.00453   0.00000  -0.01510  -0.01485   2.06555
   A12        1.85641   0.02196   0.00000   0.04807   0.04784   1.90425
   A13        1.94789   0.01786   0.00000   0.04448   0.04526   1.99315
   A14        2.05309  -0.01718   0.00000  -0.03068  -0.03100   2.02209
[...]
 00704871,-0.01957465,-0.01086569,0.00041958,-0.00199458,0.00063909,-0.
 00064107,0.00366834,-0.00183430,0.06610946,-0.00226166,-0.00294119,-0.
 00031061,0.09619117,-0.27706039,-0.08540315,0.00009603,0.00176344,0.00
 131733,-0.00058867,-0.00195400,0.00424056,-0.00110680,-0.00017952,-0.0
 0024402,0.00022635,-0.00008568,-0.00087889,0.00013612,0.00228441,-0.00
 007005,-0.00041917,-0.00029233,0.00004776,0.00011635,0.00001254,0.0001
 2368,0.00001034,-0.00003591,-0.00003704,-0.00006923,-0.00002540,-0.000
 02889,-0.00011824,-0.00011520,0.00010624,0.00010521,0.00014500,-0.0000
 1691,0.00002850,0.00002984,0.00000075,0.00010069,-0.00020561,0.0002063
 3,0.00007771,0.00010362,0.00002117,-0.00005367,-0.00004844,0.00002751,
 0.00002565,0.00003973,0.00001942,-0.00000943,-0.00002589,-0.00003245,-
 0.00002356,-0.00001736,0.00001903,-0.00001671,-0.00001712,0.00000229,0
 .00002011,0.00001496,-0.00001440,-0.00000643,-0.00000328,0.00000553,0.
 00000227,-0.00000817,-0.00001840,0.00824075,-0.01507081,-0.00748684,0.
 00037789,-0.00002964,0.00034781,-0.00123587,0.00063083,-0.00002346,-0.
 10005074,0.29331677,-0.00341949,0.01254126,0.00357476,0.03241249,-0.08
 822193,-0.07546060,0.00785679,-0.01971113,-0.00080846,0.00006559,0.000
 11861,-0.00482848,-0.00146059,-0.00122773,0.00029353,0.00013995,0.0000
 2955,-0.00067012,-0.00053525,-0.00118960,0.00160783,0.00008042,-0.0000
 6246,-0.00008903,-0.00000867,0.00012314,0.00018365,-0.00001608,-0.0001
 5388,-0.00020938,0.00002815,0.00010057,0.00011860,0.00021432,0.0001299
 9,-0.00024307,-0.00015644,-0.00013093,0.00008648,0.00004772,0.00004047
 ,-0.00004205,-0.00013099,0.00020398,0.00043786,-0.00006523,-0.00008600
 ,-0.00000150,0.00005630,0.00004970,-0.00003275,-0.00003569,-0.00004844
 ,-0.00001612,0.00001159,0.00002376,0.00002333,0.00001455,0.00001136,-0
 .00001109,-0.00000643,-0.00000640,0.,0.00000678,0.00002351,0.00003613,
 -0.00001753,-0.00002591,-0.00000948,-0.00000646,-0.00000557,-0.0000044
 4,-0.00524983,0.00884783,0.00267818,-0.00038394,-0.00078354,0.00079640
 ,0.00058257,0.00141851,-0.00081329,-0.02950816,0.08798785,0.07429417,-
 0.00039832,-0.00165536,0.00088849,-0.00242264,0.00246973,0.00102648,-0
 .05713554,-0.05082806,0.07949263,0.00373772,0.00557689,0.00136878,-0.0
 0224599,-0.00007309,-0.00089280,-0.00011707,-0.00030955,0.00024753,0.0
 0021233,0.00007893,-0.00124658,0.00039672,0.00019369,0.00001390,-0.000
 15986,-0.00010811,-0.00010989,-0.00003612,0.00002067,0.00018139,0.0000
 2987,0.00005275,0.00003721,0.00000344,-0.00000092,-0.00005795,-0.00002
 701,-0.00011730,-0.00005193,0.00000254,0.00001941,-0.00000700,0.000226
 31,0.00028518,-0.00021245,0.00001634,0.00001949,0.00000150,-0.00002439
 ,-0.00001873,0.00001610,0.00001046,0.00002870,0.00002014,0.00000499,-0
 .00000633,-0.00002104,-0.00000689,-0.00000648,0.00000687,-0.00001227,-
 0.00000599,0.00000004,0.00001060,-0.00000448,-0.00000829,-0.00000545,0
 .00001245,0.00000939,0.00001605,-0.00000258,-0.00001115,0.01019061,0.0
 0058607,0.00605618,-0.00017563,0.00053072,-0.00027435,0.00014207,0.000
 31495,-0.00027905,0.00066515,0.00020041,-0.00047237,0.04709033,0.00063
 004,-0.00023806,-0.00038448,0.00446922,0.00635353,-0.00864909,-0.03890
 549,-0.08447437,0.08751197,-0.00494968,-0.00075182,0.02131617,0.001611
 45,0.00117771,0.00125094,-0.00009883,-0.00009074,-0.00004101,-0.000608
 55,0.00074605,0.00175952,-0.00024620,-0.00038661,-0.00011314,-0.000013
 72,0.00005402,0.00021880,0.00001102,0.00002317,-0.00008244,-0.00001545
 ,-0.00000354,0.00001567,0.00005360,0.00004560,-0.00003549,-0.00003933,
 -0.00000977,0.00003752,0.00000521,-0.00000253,0.00000638,0.00006788,-0
 .00013549,0.00030468,-0.00003629,-0.00002996,-0.00000418,0.00002931,0.
 00002355,-0.00001828,-0.00001377,-0.00003189,-0.00002070,-0.00000283,0
 .00000935,0.00002447,0.00000897,0.00000792,-0.00001435,0.00000440,0.00
 000142,0.00000102,-0.00001014,-0.00000060,0.00001398,0.00000194,-0.000
 00515,-0.00001293,-0.00000314,0.00000026,0.00001422,-0.00481263,-0.002
 48857,-0.00229749,0.00016634,0.00026661,-0.00000016,-0.00033705,0.0001
 4228,0.00031775,0.00029264,-0.00024924,-0.00000885,0.04275557,0.080023
 56,0.00037030,-0.00094972,0.00031436,0.00421136,0.00768360,-0.00254836
 ,0.07692319,0.09253807,-0.29415114,0.00014820,-0.00293573,-0.00257093,
 0.00006295,-0.00019391,0.00034348,-0.00001005,-0.00005831,-0.00071816,
 -0.00129109,0.00056089,-0.00048016,0.00015258,0.00025944,-0.00001196,0
 .00015554,0.00003541,-0.00001106,-0.00003400,-0.00008592,-0.00007637,0
 .00002674,0.00003875,0.00004617,0.00015030,0.00014340,-0.00008356,-0.0
 0004207,-0.00002934,0.00006381,-0.00000616,-0.00001519,-0.00003220,-0.
 00001450,0.00004757,0.00013618,-0.00010752,-0.00012499,-0.00002735,0.0
 0006623,0.00005549,-0.00003843,-0.00003066,-0.00004370,-0.00001490,0.0
 0001436,0.00003250,0.00003197,0.00002657,0.00002156,-0.00001634,0.0000
 2137,0.00002313,-0.00000324,-0.00001741,-0.00000860,0.00002263,-0.0000
 0125,-0.00000145,0.00000108,-0.00000121,0.00000239,0.00001044,0.004471
 73,0.00344811,-0.00203631,0.00019769,0.00050292,-0.00007807,-0.0002881
 0,0.00022680,-0.00010642,0.00057044,-0.00004993,-0.00085998,-0.0856958
 0,-0.10114312,0.30287143,-0.00014338,0.00007687,0.00025008,0.00032234,
 0.00009699,-0.00035111,-0.00003064,0.00008316,0.00004103,0.00006726,0.
 00022853,-0.00010386,0.00005312,0.00032292,0.00046091,0.00237456,-0.00
 201497,0.00307124,0.00772103,0.00575839,0.00566080,-0.08388257,-0.0801
 0102,-0.05535824,-0.01772632,-0.01942286,-0.01054318,0.00322302,-0.006
 39577,0.00358812,0.00044804,-0.00066200,-0.00060043,-0.00045975,-0.000
 12988,0.00017545,-0.00014884,0.00031306,-0.00044449,-0.00012256,0.0000
 7464,-0.00002582,-0.00034756,-0.00028583,0.00016162,-0.00001767,0.0001
 9343,-0.00012938,-0.00003813,-0.00003787,0.00003085,0.00001992,0.00002
 216,0.00001208,-0.00001281,-0.00002724,-0.00002866,-0.00001393,-0.0000
 2634,0.00000840,-0.00002317,-0.00003264,-0.00000001,0.00001973,0.00000
 873,-0.00001386,-0.00001262,0.00000420,-0.00001597,-0.00001140,-0.0000
 3926,0.00001438,-0.00085328,0.00091249,-0.00089541,-0.00022531,-0.0001
 7264,0.00003258,-0.00004561,0.00001458,-0.00011924,0.00003290,0.000008
 77,-0.00003724,0.00000360,-0.00000777,-0.00002951,0.08976618,0.0002479
 8,-0.00003669,-0.00026890,-0.00017437,-0.00003277,0.00020212,0.0000574
 8,-0.00003231,0.00001839,-0.00000299,-0.00031489,-0.00030562,0.0002180
 5,0.00018424,-0.00008521,-0.00193294,0.00286847,-0.00057558,-0.0028805
 2,0.00107342,-0.00149550,-0.08079789,-0.18892862,-0.11898938,-0.011539
 96,-0.02046326,-0.00321951,-0.00570239,0.00386833,-0.00008406,-0.00036
 107,-0.00005962,-0.00080612,-0.00018290,-0.00031554,0.00035615,0.00043
 749,-0.00021716,-0.00021324,0.00008051,-0.00007538,0.00007326,0.000029
 43,0.00002505,-0.00006038,0.00021644,0.00000520,-0.00000579,-0.0000551
 1,-0.00003857,0.00003205,0.00001688,0.00003242,0.00001413,-0.00001075,
 -0.00003137,-0.00003662,-0.00003196,-0.00001828,0.00000831,-0.00003351
 ,-0.00003452,-0.00000227,0.00001839,0.00002029,-0.00001451,0.00000738,
 -0.00001899,-0.00001161,-0.00003019,-0.00001214,0.00000144,0.00092440,
 -0.00074093,0.00040026,0.00019136,0.00020721,0.00006764,0.00006797,0.0
 0005222,0.00008873,-0.00001072,0.00002745,0.00001832,-0.00000034,0.000
 01986,0.00002310,0.10129132,0.20292951,-0.00009645,-0.00011505,-0.0003
 5911,0.00021340,0.00022201,-0.00039651,0.00018384,0.00019541,0.0000815
 9,-0.00031165,-0.00045663,-0.00004033,-0.00004375,-0.00040118,-0.00110
 093,0.00317696,-0.00061992,-0.00333148,-0.01134507,-0.02205134,-0.0127
 1772,-0.05746884,-0.12008538,-0.14861523,0.00560871,0.01502513,0.01220
 785,0.00504281,0.00165304,0.00177608,0.00000863,-0.00009171,0.00049134
 ,0.00001338,0.00018410,0.00010644,-0.00010708,0.00019480,0.00007834,-0
 .00000452,0.00008401,-0.00002846,0.00071432,0.00059295,-0.00040623,-0.
 00008009,0.00005304,0.00004922,-0.00000582,-0.00001207,0.00000200,0.00
 000455,0.00000700,0.00001062,0.00000614,0.00000177,-0.00001146,-0.0000
 0339,-0.00000457,0.00001385,-0.00000103,-0.00000413,-0.00000030,0.0000
 0879,0.00001069,0.00000848,-0.00000932,-0.00000361,-0.00000394,0.00002
 063,0.00001414,-0.00001170,-0.00112997,0.00041762,0.00092727,0.0003245
 6,0.00011256,0.00019872,0.00005007,0.00003510,0.00010657,0.00008372,0.
 00014526,-0.00003793,-0.00003321,0.00003627,0.00001639,0.05514252,0.12
 488312,0.15098227,0.00002033,0.00003028,-0.00001184,0.00002737,-0.0000
 1265,0.00001782,-0.00001657,0.00000735,-0.00003365,-0.00003532,0.00006
 490,0.00014244,-0.00014752,-0.00025715,0.00012544,0.00060022,0.0004001
 3,0.00092478,-0.00000041,0.00006854,-0.00030091,-0.00044218,-0.0000345
 2,0.00003758,0.00022120,0.00217586,-0.00155025,-0.00317530,0.00282643,
 0.01717569,-0.10199150,-0.02427262,0.12801109,0.00448947,0.00297058,-0
 .00699183,0.00216609,-0.00331669,-0.00143108,0.00156534,-0.00071554,0.
 00014780,-0.00127324,-0.00429384,0.00162710,-0.00171509,0.00150831,0.0
 0008939,-0.00018466,-0.00055696,-0.00022184,-0.00036699,0.00035168,-0.
 00013649,0.00004157,-0.00006469,0.00001122,0.00006948,-0.00005688,0.00
 008447,0.00001111,-0.00002598,0.00000818,-0.00000726,0.00004068,0.0000
 5091,-0.00003176,0.00000900,-0.00002544,-0.00000744,0.00005106,-0.0000
 1679,0.00000290,-0.00011576,-0.00004285,-0.00000605,-0.00000614,-0.000
 00599,-0.00001151,-0.00000457,0.00000456,-0.00000631,-0.00000804,-0.00
 000607,0.00000539,-0.00000500,0.00000572,0.00005856,-0.00007435,0.0000
 4055,0.10008060,-0.00000905,0.00001974,0.00002865,0.00001330,-0.000012
 11,0.00001201,-0.00001379,-0.00004064,-0.00001320,-0.00002570,0.000015
 84,0.00010778,-0.00024941,-0.00016328,0.00006931,-0.00000824,0.0010055
 6,0.00074694,0.00014356,-0.00008862,-0.00017269,0.00001544,-0.00030015
 ,0.00013317,0.00269930,0.00050560,-0.00062172,-0.00590347,0.00428774,0
 .01917644,-0.02468834,-0.04719430,0.01596319,0.01116357,0.00559005,-0.
 01283441,-0.00263844,-0.00085676,-0.00456378,-0.00024118,0.00155240,-0
 .00083428,-0.00478671,-0.00217069,0.00034393,0.00135548,-0.00064672,0.
 00153930,-0.00039203,-0.00060104,-0.00071359,0.00040294,-0.00007264,0.
 00039450,-0.00004418,0.00003707,-0.00002813,-0.00005134,0.00010025,0.0
 0001822,-0.00004484,-0.00001554,-0.00000125,0.00001596,0.00005754,0.00
 012342,-0.00003325,-0.00007941,0.00002428,0.00001204,-0.00010035,-0.00
 014381,-0.00003580,-0.00000451,-0.00007022,0.00000167,0.00000508,-0.00
 000605,-0.00001004,-0.00000740,0.00000053,-0.00000165,-0.00000506,-0.0
 0000514,-0.00000581,0.00000196,-0.00000090,-0.00006346,0.00005566,-0.0
 0002393,0.02480485,0.03970714,0.00000158,0.00000107,-0.00000836,0.0000
 0551,0.00001489,-0.00000784,0.00000956,0.00003378,0.00001512,-0.000022
 19,-0.00006372,-0.00003190,0.00003394,0.00002665,0.00004658,0.00009766
 ,-0.00023782,-0.00003838,-0.00010579,0.00003145,0.00013913,0.00010800,
 0.00024472,-0.00015584,-0.00043758,0.00066478,0.00005420,-0.00066328,-
 0.00148541,0.00023229,0.12726027,0.01509064,-0.29446536,0.00968956,0.0
 0645930,-0.01059672,0.00002580,-0.00288706,-0.00151478,0.00109291,0.00
 021946,0.00017846,0.00069314,-0.00072077,0.00003340,-0.00020027,0.0011
 7050,-0.00009457,0.00011747,-0.00031641,-0.00072437,-0.00004407,0.0005
 0515,0.00039304,0.00005738,0.00002505,0.00001759,0.00009912,0.00003062
 ,-0.00001294,-0.00003073,-0.00004627,0.00001502,-0.00000151,0.00006360
 ,0.00011325,-0.00011895,-0.00007961,0.00006308,-0.00008443,-0.00021962
 ,-0.00031060,0.00002030,-0.00000586,-0.00000860,-0.00000480,-0.0000075
 6,0.00000325,0.00000555,0.00000301,-0.00000301,0.00000039,0.00000183,0
 .00000534,0.00000512,-0.00000277,-0.00000194,0.00006292,0.00000210,0.0
 0000413,-0.13755137,-0.01834719,0.30562124,0.00000153,-0.00000789,-0.0
 0000207,0.00000219,0.00000926,-0.00001130,0.00000652,0.00002197,0.0000
 0579,-0.00000935,-0.00002309,-0.00001086,0.00001638,0.00001698,-0.0000
 2490,0.00001679,-0.00007133,0.00006524,0.00001578,-0.00000714,-0.00003
 444,-0.00002081,-0.00003350,0.00007095,0.00009626,0.00014517,0.0000152
 6,-0.00051108,-0.00005994,-0.00020904,-0.00038996,-0.00007843,0.000291
 30,-0.00134582,0.00161862,-0.00022548,0.00010138,0.00018005,-0.0005232
 0,0.00013488,0.00009772,0.00004077,0.00006512,-0.00001253,-0.00019134,
 0.00592522,0.00717629,0.01706380,-0.04738214,-0.00366562,0.00599055,-0
 .00468555,-0.01515330,-0.02142863,0.00139251,-0.00572430,0.00010863,-0
 .00076358,-0.00016747,0.00011579,0.00007014,0.00023692,-0.00028866,-0.
 00076453,0.00068328,-0.00000501,0.00061769,0.00027077,0.00102907,0.001
 82450,-0.00526353,0.00360774,-0.00000454,0.00000077,0.00000230,-0.0000
 0274,-0.00000467,0.00000153,0.00000552,0.00000209,-0.00000147,-0.00000
 069,0.00000196,0.00000141,0.00000171,-0.00000083,-0.00000402,0.0000047
 3,0.00001520,-0.00000278,0.00002963,-0.00136059,-0.00013674,0.04526516
 ,-0.00000292,-0.00000266,0.00000169,-0.00000286,0.00000440,-0.00000705
 ,0.00000543,0.00000386,0.00000310,0.00000129,-0.00002064,-0.00000815,0
 .00001631,0.00000501,-0.00001580,-0.00005338,0.00005806,0.00001594,0.0
 0000261,-0.00000674,-0.00003720,-0.00004360,0.00000237,0.00004109,0.00
 009306,0.00009278,0.00001929,0.00008302,-0.00036464,0.00014646,-0.0002
 7166,-0.00043676,0.00026898,0.00118161,-0.00112213,0.00075044,0.000390
 14,0.00004929,-0.00025602,0.00001444,0.00008025,-0.00000817,-0.0000086
 1,-0.00009588,-0.00014199,-0.00132553,0.00952083,0.00835120,-0.0039655
 5,-0.10162847,-0.11289032,-0.00674899,-0.01970667,-0.02290363,-0.00500
 243,-0.00012586,-0.00150345,-0.00011185,-0.00049755,0.00040528,0.00027
 300,-0.00000857,-0.00013492,0.00064014,-0.00041088,0.00042227,-0.00022
 057,0.00076233,0.00040566,-0.00494438,0.00220537,0.00001561,0.00000193
 ,0.00000339,0.00000536,-0.00000065,-0.00000097,0.00000173,0.00000416,0
 .00000207,-0.00000184,0.00000097,0.00000210,0.00000066,-0.00000193,0.0
 0000131,-0.00000236,0.00000958,0.00000315,0.00000143,-0.00146748,-0.00
 061802,-0.00017856,0.02167979,0.11235697,0.00000306,0.00000914,0.00000
 065,0.00000234,-0.00000956,0.00001614,-0.00000912,-0.00001473,-0.00000
 607,-0.00000306,0.00002399,0.00001552,-0.00003522,-0.00001726,0.000040
 28,0.00010809,0.00005411,-0.00003749,-0.00000954,-0.00000689,0.0000296
 4,0.00004727,0.00001761,-0.00005438,-0.00009646,-0.00010881,-0.0000209
 4,0.00010294,0.00050149,0.00025406,-0.00021976,-0.00030243,-0.00036335
 ,-0.00115612,-0.00030174,-0.00076319,-0.00010153,0.00023894,0.00044563
 ,-0.00012667,-0.00020201,-0.00004466,-0.00019508,-0.00014810,0.0001440
 3,-0.00022031,-0.01163392,-0.01625293,0.00533853,-0.11360626,-0.285692
 50,-0.00429421,-0.00310837,0.00310954,0.00157630,0.00019292,0.00308091
 ,0.00023383,0.00053728,-0.00002503,-0.00021516,-0.00004844,0.00015075,
 -0.00009535,0.00031912,-0.00048596,0.00002877,-0.00074836,-0.00077281,
 0.00424706,0.00075220,-0.00054071,0.00000186,0.00000195,-0.00001226,0.
 00000296,0.00000385,-0.00000147,-0.00000806,-0.00000391,0.00000272,0.0
 0000006,-0.00000286,-0.00000050,0.00000194,-0.00000130,0.00000507,-0.0
 0001211,-0.00001043,0.,-0.00019401,-0.00031123,0.00100047,-0.00484513,
 0.12802742,0.29676122,-0.00000149,-0.00001697,-0.00000149,-0.00001316,
 -0.00000226,-0.00000139,-0.00000058,0.00000212,-0.00000145,0.00000592,
 0.00000481,-0.00000077,0.00000317,0.00000032,-0.00000132,0.00002129,-0
 .00008451,0.00004529,-0.00001066,0.00002440,0.00005256,0.00003856,0.00
 001134,-0.00006506,-0.00003801,-0.00004952,-0.00000773,0.00003214,0.00
 005073,-0.00003871,-0.00000206,-0.00016470,-0.00006537,-0.00074020,0.0
 0092534,-0.00026634,-0.00018285,0.00002966,-0.00007984,0.00003205,0.00
 006945,0.00004774,0.00008912,0.00007721,0.00003612,-0.00057725,0.00011
 828,0.00021222,0.00771482,-0.00354243,0.00277935,-0.00151732,0.0019309
 4,-0.00759148,-0.16785863,-0.14827244,0.00566355,-0.00504769,-0.014001
 21,-0.00116312,0.00004502,0.00122164,-0.00110837,-0.00090948,-0.000107
 14,0.00026916,-0.00036468,-0.00053508,0.00048470,0.00218738,-0.0010012
 5,0.00303249,0.00001272,0.00003098,-0.00001110,-0.00000015,-0.00000083
 ,-0.00000013,0.00000384,0.00000233,0.00000098,0.00000162,0.00000193,-0
 .00000218,0.00000095,-0.00000091,-0.00000193,0.00000055,0.00000166,-0.
 00000061,0.00002987,-0.00002077,0.00001550,0.00028716,-0.00022508,0.00
 014190,0.16675804,0.00000090,-0.00000435,-0.00000294,-0.00000516,-0.00
 000364,-0.00000027,-0.00000039,-0.00000314,-0.00000168,0.00000476,0.00
 001516,0.00000244,-0.00000400,-0.00000592,0.00000129,-0.00006469,0.000
 02686,-0.00002137,-0.00000170,0.00001024,0.00002842,0.00001983,0.00000
 840,-0.00003645,-0.00003050,-0.00003751,-0.00000699,0.00006089,0.00003
 240,-0.00001971,-0.00009584,-0.00004880,-0.00010252,0.00079877,-0.0004
 8227,0.00050430,0.00003109,-0.00018787,0.00003679,0.00001984,0.0000203
 0,0.00001001,0.00001083,0.00007329,0.00004942,-0.00006920,-0.00058375,
 0.00017527,-0.00421540,0.00546473,-0.00330268,-0.00568726,-0.01709937,
 -0.00839728,-0.14792818,-0.20880243,-0.00141354,-0.00503067,-0.0003274
 5,-0.00221976,0.00100808,-0.00008436,0.00047729,-0.00017291,-0.0005772
 7,0.00066202,-0.00007569,0.00023663,0.00004261,-0.00156663,0.00231207,
 -0.00044377,0.00001511,-0.00000857,0.00000685,-0.00000017,0.00000048,-
 0.00000048,0.00000118,0.00000193,-0.00000004,-0.00000053,-0.00000043,-
 0.00000156,-0.00000054,0.00000020,0.00000004,-0.00000026,-0.00000145,0
 .00000008,-0.00002080,0.00003564,0.00001003,-0.00052269,-0.00010709,-0
 .00009340,0.16352192,0.22012734,0.00000058,0.00002034,0.00000481,0.000
 01584,-0.00000033,0.00000879,-0.00000487,-0.00000902,-0.00000065,-0.00
 000298,0.00000132,0.00000347,-0.00000811,-0.00000233,0.00001266,0.0000
 8659,0.00002548,-0.00004770,0.00000006,-0.00003724,-0.00005572,-0.0000
 3887,-0.00001256,0.00007179,0.00002186,0.00002832,0.00000510,-0.000007
 52,0.00001671,0.00001895,0.00006616,0.00004583,0.00005136,-0.00050254,
 0.00022531,-0.00000268,-0.00008056,0.00004217,0.00003223,-0.00005367,-
 0.00010528,-0.00009614,-0.00011013,-0.00011567,0.00006382,-0.00018363,
 -0.00027488,-0.00073044,0.00140600,-0.00489547,-0.00133870,-0.02313236
 ,-0.02634783,-0.00562323,0.00637731,-0.00060208,-0.05340433,0.01712102
 ,0.01891947,0.00479155,-0.00154508,-0.00002635,0.00210112,0.00013404,0
 .00050895,0.00002043,0.00141921,0.00112198,-0.00075534,0.00188576,-0.0
 0177627,-0.00371200,-0.00003043,-0.00001446,-0.00000559,0.00000165,0.0
 0000230,-0.00000118,-0.00000807,-0.00000529,0.00000087,-0.00000036,-0.
 00000244,0.00000201,0.00000016,0.00000045,0.00000386,-0.00000445,-0.00
 000440,0.00000019,0.00001565,0.00000983,0.00003963,-0.00046508,-0.0007
 9415,0.00001760,-0.00237319,0.01405757,0.05852346\\-0.00000198,0.00000
 865,0.00000523,0.00000694,0.00001115,0.00001303,0.00000902,0.00001771,
 0.00001183,-0.00003276,-0.00004015,-0.00000631,0.00002166,0.00001911,-
 0.00002251,-0.00001548,-0.00000182,0.00003480,0.00000336,-0.00000571,0
 .00000612,0.00000924,0.00000276,-0.00000493,-0.00001270,-0.00000746,-0
 .00000978,-0.00000167,0.00000772,0.00001410,0.00000246,-0.00000262,-0.
 00000209,-0.00000520,-0.00000496,-0.00000106,-0.00000529,0.00000543,0.
 ,0.00000404,-0.00000168,0.00000034,0.00001354,0.00000202,-0.00000930,0
 .00000328,0.00000626,-0.00000407,-0.00000130,-0.00000089,-0.00000300,-
 0.00000044,0.00000053,-0.00000003,0.00000154,-0.00000555,-0.00000267,0
 .00000477,-0.00000594,-0.00000608,-0.00000536,-0.00000345,-0.00000102,
 -0.00000518,0.00000437,0.00000897,0.00001349,0.00000204,0.00000281,-0.
 00000541,0.00000534,-0.00000828,0.00000304,0.00000454,-0.00000161,0.00
 000634,-0.00000783,0.00000021,-0.00000721,-0.00000124,-0.00000136,-0.0
 0000959,-0.00000174,-0.00000996,0.00000530,-0.00000360,-0.00000028,0.0
 0000142,-0.00000138,0.00000017,0.00000004,-0.00000077,0.,0.00000051,-0
 .00000151,-0.00000007,-0.00000042,0.00000068,-0.00000321\\\@


 HE WHO LOVES TO READ, AND KNOWS HOW TO REFLECT,
 HAS LAID BY A PERPETUAL FEAST FOR HIS OLD AGE.
 -- UNCLE ESEK, "SCRIBNER'S MONTHLY", SEPT. 1880
 Job cpu time:  0 days  9 hours 16 minutes 50.2 seconds.
 File lengths (MBytes):  RWF=    967 Int=      0 D2E=      0 Chk=     20 Scr=      1
 Normal termination of Gaussian 09 at Sun Dec 29 02:48:51 2013.
