 Entering Gaussian System, Link 0=g09
 Initial command:
 /opt/gaussian/g09/l1.exe /panfs/panfs.cluster/home/shuo/Gau-20016.inp -scrdir=/panfs/panfs.cluster/home/shuo/
 Default is to use a total of  12 processors:
                               12 via shared-memory
                                1 via Linda
 Entering Link 1 = /opt/gaussian/g09/l1.exe PID=     20017.
  
 Copyright (c) 1988,1990,1992,1993,1995,1998,2003,2009,2011,
            Gaussian, Inc.  All Rights Reserved.
  
 This is part of the Gaussian(R) 09 program.  It is based on
 the Gaussian(R) 03 system (copyright 2003, Gaussian, Inc.),
 the Gaussian(R) 98 system (copyright 1998, Gaussian, Inc.),
 the Gaussian(R) 94 system (copyright 1995, Gaussian, Inc.),
 the Gaussian 92(TM) system (copyright 1992, Gaussian, Inc.),
 the Gaussian 90(TM) system (copyright 1990, Gaussian, Inc.),
 the Gaussian 88(TM) system (copyright 1988, Gaussian, Inc.),
 the Gaussian 86(TM) system (copyright 1986, Carnegie Mellon
 University), and the Gaussian 82(TM) system (copyright 1983,
 Carnegie Mellon University). Gaussian is a federally registered
 trademark of Gaussian, Inc.
  
 This software contains proprietary and confidential information,
 including trade secrets, belonging to Gaussian, Inc.
  
 This software is provided under written license and may be
 used, copied, transmitted, or stored only in accord with that
 written license.
  
 The following legend is applicable only to US Government
 contracts under FAR:
  
                    RESTRICTED RIGHTS LEGEND
  
 Use, reproduction and disclosure by the US Government is
 subject to restrictions as set forth in subparagraphs (a)
 and (c) of the Commercial Computer Software - Restricted
 Rights clause in FAR 52.227-19.
  
 Gaussian, Inc.
 340 Quinnipiac St., Bldg. 40, Wallingford CT 06492
  
  
 ---------------------------------------------------------------
 Warning -- This program may not be used in any manner that
 competes with the business of Gaussian, Inc. or will provide
 assistance to any competitor of Gaussian, Inc.  The licensee
 of this program is prohibited from giving any competitor of
 Gaussian, Inc. access to this program.  By using this program,
 the user acknowledges that Gaussian, Inc. is engaged in the
 business of creating and licensing software in the field of
 computational chemistry and represents and warrants to the
 licensee that it is not a competitor of Gaussian, Inc. and that
 it will not use this program in any manner prohibited above.
 ---------------------------------------------------------------
  

 Cite this work as:
 Gaussian 09, Revision C.01,
 M. J. Frisch, G. W. Trucks, H. B. Schlegel, G. E. Scuseria, 
 M. A. Robb, J. R. Cheeseman, G. Scalmani, V. Barone, B. Mennucci, 
 G. A. Petersson, H. Nakatsuji, M. Caricato, X. Li, H. P. Hratchian, 
 A. F. Izmaylov, J. Bloino, G. Zheng, J. L. Sonnenberg, M. Hada, 
 M. Ehara, K. Toyota, R. Fukuda, J. Hasegawa, M. Ishida, T. Nakajima, 
 Y. Honda, O. Kitao, H. Nakai, T. Vreven, J. A. Montgomery, Jr., 
 J. E. Peralta, F. Ogliaro, M. Bearpark, J. J. Heyd, E. Brothers, 
 K. N. Kudin, V. N. Staroverov, T. Keith, R. Kobayashi, J. Normand, 
 K. Raghavachari, A. Rendell, J. C. Burant, S. S. Iyengar, J. Tomasi, 
 M. Cossi, N. Rega, J. M. Millam, M. Klene, J. E. Knox, J. B. Cross, 
 V. Bakken, C. Adamo, J. Jaramillo, R. Gomperts, R. E. Stratmann, 
 O. Yazyev, A. J. Austin, R. Cammi, C. Pomelli, J. W. Ochterski, 
 R. L. Martin, K. Morokuma, V. G. Zakrzewski, G. A. Voth, 
 P. Salvador, J. J. Dannenberg, S. Dapprich, A. D. Daniels, 
 O. Farkas, J. B. Foresman, J. V. Ortiz, J. Cioslowski, 
 and D. J. Fox, Gaussian, Inc., Wallingford CT, 2010.
 
 ******************************************
 Gaussian 09:  EM64L-G09RevC.01 23-Sep-2011
                29-Dec-2013 
 ******************************************
 %chk=52_C24H12N4S3Si.chk
 %NProcShared=12
 Will use up to   12 processors via shared memory.
 %Mem=8000MB
 Default route:  MaxDisk=100GB
 --------------------------------------------
 #B3LYP/6-31++G(d,p) opt scf=direct freq test
 --------------------------------------------
 1/14=-1,18=20,19=15,26=3,38=1/1,3;
 2/9=110,12=2,17=6,18=5,40=1/2;
 3/5=1,6=6,7=1111,11=2,16=1,25=1,30=1,71=1,74=-5/1,2,3;
 4//1;
 5/5=2,38=5/2;
 6/7=2,8=2,9=2,10=2,28=1/1;
 7//1,2,3,16;
 1/14=-1,18=20,19=15/3(2);
 2/9=110/2;
 99//99;
 2/9=110/2;
 3/5=1,6=6,7=1111,11=2,16=1,25=1,30=1,71=1,74=-5/1,2,3;
 4/5=5,16=3/1;
 5/5=2,38=5/2;
 7//1,2,3,16;
 1/14=-1,18=20,19=15/3(-5);
 2/9=110/2;
 6/7=2,8=2,9=2,10=2,19=2,28=1/1;
 99/9=1/99;
 ----------------------------------------------------------------------
 Geom opt of No.52 candidate from the CEPDB database with SMILE code of
  c1occ2c1ccc1[Se]c3c4oc(cc4c4nsnc4c3c21)-c1nccc2nsnc12, HPC, 20131227,
  Shuo Dai, Gaussian09
 ----------------------------------------------------------------------
 Charge =  0 Multiplicity = 1
 Symbolic Z-Matrix:
 C                     1.0078   -0.09029   0.04226 
 O                     2.26237  -0.09029   0.04226 
 C                     2.88965  -1.07433   0.50285 
 C                     4.20369  -1.07433   0.50285 
 C                     4.89565  -2.15465   1.0085 
 C                     6.28395  -2.1626    1.01154 
 C                     6.98708  -1.10273   0.51588 
 C                     6.30649   0.00573  -0.00185 
 Se                    6.71883   1.17484  -0.54854 
 C                     5.67308   1.89812  -0.88789 
 C                     5.52533   3.21562  -1.5049 
 O                     6.44591   4.23677  -1.98916 
 C                     5.69012   5.24738  -2.45661 
 C                     4.36514   4.93529  -2.31089 
 C                     4.23443   3.70286  -1.73358 
 C                     3.17832   2.95199  -1.38137 
 N                     1.98354   3.41329  -1.59684 
 S                     1.79033   4.85512  -2.27206 
 N                     2.23375   1.11938  -0.52255 
 C                     3.30727   1.78112  -0.83303 
 C                     4.51882   1.21716  -0.56948 
 C                     4.90008   0.01307  -0.0057 
 C                     6.1989    6.47345  -3.02498 
 N                     5.65869   7.62217  -2.56338 
 C                     5.98251   8.82738  -3.10157 
 C                     6.86919   8.93662  -4.11597 
 C                     7.46626   7.78876  -4.64075 
 N                     8.3542    7.5442   -5.61793 
 S                     8.56001   6.24424  -5.6762 
 N                     7.83069   5.61769  -4.76462 
 C                     7.12711   6.52281  -4.08607 
 H                     0.01186   0.15462  -0.07237 
 H                     2.37365  -1.88378   0.88172 
 H                     6.78936  -2.97784   1.39229 
 H                     8.01894  -1.11855   0.5228 
 H                     3.5799    5.54158  -2.5952 
 H                     5.54018   9.68089  -2.72621 
 H                     7.10393   9.86486  -4.50107 
 

 GradGradGradGradGradGradGradGradGradGradGradGradGradGradGradGradGradGrad
 Berny optimization.
 Initialization pass.
                           ----------------------------
                           !    Initial Parameters    !
                           ! (Angstroms and Degrees)  !
 --------------------------                            --------------------------
 ! Name  Definition              Value          Derivative Info.                !
 --------------------------------------------------------------------------------
 ! R1    R(1,2)                  1.2546         estimate D2E/DX2                !
 ! R2    R(1,19)                 1.8125         estimate D2E/DX2                !
 ! R3    R(1,32)                 1.032          estimate D2E/DX2                !
 ! R4    R(2,3)                  1.2546         estimate D2E/DX2                !
 ! R5    R(2,19)                 1.3353         estimate D2E/DX2                !
 ! R6    R(3,4)                  1.314          estimate D2E/DX2                !
 ! R7    R(3,33)                 1.032          estimate D2E/DX2                !
 ! R8    R(4,5)                  1.379          estimate D2E/DX2                !
 ! R9    R(4,22)                 1.3878         estimate D2E/DX2                !
 ! R10   R(5,6)                  1.3883         estimate D2E/DX2                !
 ! R11   R(6,7)                  1.3651         estimate D2E/DX2                !
 ! R12   R(6,34)                 1.032          estimate D2E/DX2                !
 ! R13   R(7,8)                  1.4            estimate D2E/DX2                !
 ! R14   R(7,35)                 1.032          estimate D2E/DX2                !
 ! R15   R(8,9)                  1.3549         estimate D2E/DX2                !
 ! R16   R(8,22)                 1.4064         estimate D2E/DX2                !
 ! R17   R(9,10)                 1.316          estimate D2E/DX2                !
 ! R18   R(9,21)                 2.2005         estimate D2E/DX2                !
 ! R19   R(9,22)                 2.2254         estimate D2E/DX2                !
 ! R20   R(10,11)                1.4623         estimate D2E/DX2                !
 ! R21   R(10,21)                1.3775         estimate D2E/DX2                !
 ! R22   R(11,12)                1.4576         estimate D2E/DX2                !
 ! R23   R(11,15)                1.3986         estimate D2E/DX2                !
 ! R24   R(12,13)                1.3458         estimate D2E/DX2                !
 ! R25   R(13,14)                1.369          estimate D2E/DX2                !
 ! R26   R(13,23)                1.444          estimate D2E/DX2                !
 ! R27   R(14,15)                1.3672         estimate D2E/DX2                !
 ! R28   R(14,36)                1.032          estimate D2E/DX2                !
 ! R29   R(15,16)                1.3428         estimate D2E/DX2                !
 ! R30   R(16,17)                1.2987         estimate D2E/DX2                !
 ! R31   R(16,20)                1.2993         estimate D2E/DX2                !
 ! R32   R(17,18)                1.6038         estimate D2E/DX2                !
 ! R33   R(19,20)                1.2987         estimate D2E/DX2                !
 ! R34   R(20,21)                1.3621         estimate D2E/DX2                !
 ! R35   R(21,22)                1.3831         estimate D2E/DX2                !
 ! R36   R(23,24)                1.3507         estimate D2E/DX2                !
 ! R37   R(23,31)                1.4106         estimate D2E/DX2                !
 ! R38   R(24,25)                1.3591         estimate D2E/DX2                !
 ! R39   R(25,26)                1.3517         estimate D2E/DX2                !
 ! R40   R(25,37)                1.032          estimate D2E/DX2                !
 ! R41   R(26,27)                1.3962         estimate D2E/DX2                !
 ! R42   R(26,38)                1.032          estimate D2E/DX2                !
 ! R43   R(27,28)                1.3428         estimate D2E/DX2                !
 ! R44   R(27,29)                2.1573         estimate D2E/DX2                !
 ! R45   R(27,31)                1.4231         estimate D2E/DX2                !
 ! R46   R(28,29)                1.3174         estimate D2E/DX2                !
 ! R47   R(29,30)                1.3249         estimate D2E/DX2                !
 ! R48   R(29,31)                2.1585         estimate D2E/DX2                !
 ! R49   R(30,31)                1.3322         estimate D2E/DX2                !
 ! A1    A(2,1,32)             164.8098         estimate D2E/DX2                !
 ! A2    A(19,1,32)            117.3708         estimate D2E/DX2                !
 ! A3    A(1,2,3)              119.9996         estimate D2E/DX2                !
 ! A4    A(3,2,19)             151.2284         estimate D2E/DX2                !
 ! A5    A(2,3,4)              119.9996         estimate D2E/DX2                !
 ! A6    A(2,3,33)             120.0001         estimate D2E/DX2                !
 ! A7    A(4,3,33)             120.0003         estimate D2E/DX2                !
 ! A8    A(3,4,5)              120.1186         estimate D2E/DX2                !
 ! A9    A(3,4,22)             120.1185         estimate D2E/DX2                !
 ! A10   A(5,4,22)             119.7629         estimate D2E/DX2                !
 ! A11   A(4,5,6)              120.4689         estimate D2E/DX2                !
 ! A12   A(5,6,7)              120.6531         estimate D2E/DX2                !
 ! A13   A(5,6,34)             119.6737         estimate D2E/DX2                !
 ! A14   A(7,6,34)             119.6732         estimate D2E/DX2                !
 ! A15   A(6,7,8)              119.909          estimate D2E/DX2                !
 ! A16   A(6,7,35)             120.0451         estimate D2E/DX2                !
 ! A17   A(8,7,35)             120.0459         estimate D2E/DX2                !
 ! A18   A(7,8,9)              133.1943         estimate D2E/DX2                !
 ! A19   A(7,8,22)             119.4248         estimate D2E/DX2                !
 ! A20   A(8,9,10)             109.6609         estimate D2E/DX2                !
 ! A21   A(8,9,21)              73.511          estimate D2E/DX2                !
 ! A22   A(10,9,22)             72.5654         estimate D2E/DX2                !
 ! A23   A(9,10,11)            133.1781         estimate D2E/DX2                !
 ! A24   A(11,10,21)           117.2757         estimate D2E/DX2                !
 ! A25   A(10,11,12)           135.0354         estimate D2E/DX2                !
 ! A26   A(10,11,15)           118.4325         estimate D2E/DX2                !
 ! A27   A(12,11,15)           106.5315         estimate D2E/DX2                !
 ! A28   A(11,12,13)           106.6662         estimate D2E/DX2                !
 ! A29   A(12,13,14)           109.5955         estimate D2E/DX2                !
 ! A30   A(12,13,23)           125.2023         estimate D2E/DX2                !
 ! A31   A(14,13,23)           125.2022         estimate D2E/DX2                !
 ! A32   A(13,14,15)           110.0578         estimate D2E/DX2                !
 ! A33   A(13,14,36)           124.9712         estimate D2E/DX2                !
 ! A34   A(15,14,36)           124.971          estimate D2E/DX2                !
 ! A35   A(11,15,14)           107.1474         estimate D2E/DX2                !
 ! A36   A(11,15,16)           119.2237         estimate D2E/DX2                !
 ! A37   A(14,15,16)           133.6289         estimate D2E/DX2                !
 ! A38   A(15,16,17)           118.7765         estimate D2E/DX2                !
 ! A39   A(15,16,20)           122.4472         estimate D2E/DX2                !
 ! A40   A(17,16,20)           118.7763         estimate D2E/DX2                !
 ! A41   A(16,17,18)           120.0            estimate D2E/DX2                !
 ! A42   A(2,19,20)            123.0227         estimate D2E/DX2                !
 ! A43   A(16,20,19)           118.5552         estimate D2E/DX2                !
 ! A44   A(16,20,21)           122.89           estimate D2E/DX2                !
 ! A45   A(19,20,21)           118.5548         estimate D2E/DX2                !
 ! A46   A(9,21,20)            154.0348         estimate D2E/DX2                !
 ! A47   A(10,21,20)           119.7309         estimate D2E/DX2                !
 ! A48   A(10,21,22)           107.0739         estimate D2E/DX2                !
 ! A49   A(20,21,22)           133.1952         estimate D2E/DX2                !
 ! A50   A(4,22,8)             119.7812         estimate D2E/DX2                !
 ! A51   A(4,22,9)             155.3048         estimate D2E/DX2                !
 ! A52   A(4,22,21)            133.8807         estimate D2E/DX2                !
 ! A53   A(8,22,21)            106.3381         estimate D2E/DX2                !
 ! A54   A(13,23,24)           116.53           estimate D2E/DX2                !
 ! A55   A(13,23,31)           123.8915         estimate D2E/DX2                !
 ! A56   A(24,23,31)           119.371          estimate D2E/DX2                !
 ! A57   A(23,24,25)           121.5707         estimate D2E/DX2                !
 ! A58   A(24,25,26)           121.6779         estimate D2E/DX2                !
 ! A59   A(24,25,37)           119.1607         estimate D2E/DX2                !
 ! A60   A(26,25,37)           119.1614         estimate D2E/DX2                !
 ! A61   A(25,26,27)           119.7443         estimate D2E/DX2                !
 ! A62   A(25,26,38)           120.1279         estimate D2E/DX2                !
 ! A63   A(27,26,38)           120.1277         estimate D2E/DX2                !
 ! A64   A(26,27,28)           134.9116         estimate D2E/DX2                !
 ! A65   A(26,27,31)           118.8754         estimate D2E/DX2                !
 ! A66   A(28,27,31)           106.213          estimate D2E/DX2                !
 ! A67   A(27,29,30)            74.2914         estimate D2E/DX2                !
 ! A68   A(28,29,30)           110.4992         estimate D2E/DX2                !
 ! A69   A(28,29,31)            74.7146         estimate D2E/DX2                !
 ! A70   A(23,31,27)           118.7581         estimate D2E/DX2                !
 ! A71   A(23,31,30)           134.9818         estimate D2E/DX2                !
 ! A72   A(27,31,30)           106.26           estimate D2E/DX2                !
 ! A73   L(1,19,20,4,-1)       166.8118         estimate D2E/DX2                !
 ! A74   L(26,27,29,1,-1)      189.4366         estimate D2E/DX2                !
 ! A75   L(23,31,29,26,-1)     189.4578         estimate D2E/DX2                !
 ! A76   L(1,19,20,4,-2)       179.9353         estimate D2E/DX2                !
 ! A77   L(26,27,29,1,-2)      177.8814         estimate D2E/DX2                !
 ! A78   L(23,31,29,26,-2)     179.9922         estimate D2E/DX2                !
 ! D1    D(32,1,2,3)           179.9995         estimate D2E/DX2                !
 ! D2    D(32,1,20,16)          -0.03           estimate D2E/DX2                !
 ! D3    D(32,1,20,21)        -179.986          estimate D2E/DX2                !
 ! D4    D(1,2,3,4)            180.0            estimate D2E/DX2                !
 ! D5    D(1,2,3,33)             0.0001         estimate D2E/DX2                !
 ! D6    D(19,2,3,4)            -0.1121         estimate D2E/DX2                !
 ! D7    D(19,2,3,33)          179.888          estimate D2E/DX2                !
 ! D8    D(3,2,19,20)            0.1689         estimate D2E/DX2                !
 ! D9    D(2,3,4,5)           -179.9998         estimate D2E/DX2                !
 ! D10   D(2,3,4,22)             0.0181         estimate D2E/DX2                !
 ! D11   D(33,3,4,5)             0.0001         estimate D2E/DX2                !
 ! D12   D(33,3,4,22)         -179.982          estimate D2E/DX2                !
 ! D13   D(3,4,5,6)            179.9705         estimate D2E/DX2                !
 ! D14   D(22,4,5,6)            -0.0474         estimate D2E/DX2                !
 ! D15   D(3,4,22,8)           179.9823         estimate D2E/DX2                !
 ! D16   D(3,4,22,9)           179.9726         estimate D2E/DX2                !
 ! D17   D(3,4,22,21)           -0.0342         estimate D2E/DX2                !
 ! D18   D(5,4,22,8)             0.0001         estimate D2E/DX2                !
 ! D19   D(5,4,22,9)            -0.0096         estimate D2E/DX2                !
 ! D20   D(5,4,22,21)          179.9836         estimate D2E/DX2                !
 ! D21   D(4,5,6,7)              0.0485         estimate D2E/DX2                !
 ! D22   D(4,5,6,34)          -179.9516         estimate D2E/DX2                !
 ! D23   D(5,6,7,8)             -0.0015         estimate D2E/DX2                !
 ! D24   D(5,6,7,35)           179.9983         estimate D2E/DX2                !
 ! D25   D(34,6,7,8)           179.9987         estimate D2E/DX2                !
 ! D26   D(34,6,7,35)           -0.0015         estimate D2E/DX2                !
 ! D27   D(6,7,8,9)           -179.9942         estimate D2E/DX2                !
 ! D28   D(6,7,8,22)            -0.0453         estimate D2E/DX2                !
 ! D29   D(35,7,8,9)             0.006          estimate D2E/DX2                !
 ! D30   D(35,7,8,22)          179.9549         estimate D2E/DX2                !
 ! D31   D(7,8,9,10)           179.922          estimate D2E/DX2                !
 ! D32   D(7,8,9,21)           179.9412         estimate D2E/DX2                !
 ! D33   D(7,8,22,4)             0.046          estimate D2E/DX2                !
 ! D34   D(7,8,22,21)         -179.9417         estimate D2E/DX2                !
 ! D35   D(8,9,10,11)         -179.9807         estimate D2E/DX2                !
 ! D36   D(22,9,10,11)         179.9994         estimate D2E/DX2                !
 ! D37   D(8,9,21,20)          179.9219         estimate D2E/DX2                !
 ! D38   D(10,9,22,4)          179.9834         estimate D2E/DX2                !
 ! D39   D(9,10,11,12)           0.3378         estimate D2E/DX2                !
 ! D40   D(9,10,11,15)        -179.9872         estimate D2E/DX2                !
 ! D41   D(21,10,11,12)       -179.6749         estimate D2E/DX2                !
 ! D42   D(21,10,11,15)          0.0001         estimate D2E/DX2                !
 ! D43   D(11,10,21,20)         -0.045          estimate D2E/DX2                !
 ! D44   D(11,10,21,22)        179.9915         estimate D2E/DX2                !
 ! D45   D(10,11,12,13)       -179.9159         estimate D2E/DX2                !
 ! D46   D(15,11,12,13)          0.3823         estimate D2E/DX2                !
 ! D47   D(10,11,15,14)       -179.9902         estimate D2E/DX2                !
 ! D48   D(10,11,15,16)          0.0452         estimate D2E/DX2                !
 ! D49   D(12,11,15,14)         -0.2297         estimate D2E/DX2                !
 ! D50   D(12,11,15,16)        179.8056         estimate D2E/DX2                !
 ! D51   D(11,12,13,14)         -0.3894         estimate D2E/DX2                !
 ! D52   D(11,12,13,23)        179.6111         estimate D2E/DX2                !
 ! D53   D(12,13,14,15)          0.2565         estimate D2E/DX2                !
 ! D54   D(12,13,14,36)       -179.7439         estimate D2E/DX2                !
 ! D55   D(23,13,14,15)       -179.744          estimate D2E/DX2                !
 ! D56   D(23,13,14,36)          0.2556         estimate D2E/DX2                !
 ! D57   D(12,13,23,24)       -131.7771         estimate D2E/DX2                !
 ! D58   D(12,13,23,31)         53.5027         estimate D2E/DX2                !
 ! D59   D(14,13,23,24)         48.2235         estimate D2E/DX2                !
 ! D60   D(14,13,23,31)       -126.4967         estimate D2E/DX2                !
 ! D61   D(13,14,15,11)         -0.002          estimate D2E/DX2                !
 ! D62   D(13,14,15,16)        179.9554         estimate D2E/DX2                !
 ! D63   D(36,14,15,11)        179.9985         estimate D2E/DX2                !
 ! D64   D(36,14,15,16)         -0.0442         estimate D2E/DX2                !
 ! D65   D(11,15,16,17)        179.9529         estimate D2E/DX2                !
 ! D66   D(11,15,16,20)         -0.0471         estimate D2E/DX2                !
 ! D67   D(14,15,16,17)         -0.0004         estimate D2E/DX2                !
 ! D68   D(14,15,16,20)        179.9996         estimate D2E/DX2                !
 ! D69   D(15,16,17,18)          0.0            estimate D2E/DX2                !
 ! D70   D(20,16,17,18)       -179.9999         estimate D2E/DX2                !
 ! D71   D(15,16,20,19)        179.9997         estimate D2E/DX2                !
 ! D72   D(15,16,20,21)          0.0003         estimate D2E/DX2                !
 ! D73   D(17,16,20,19)         -0.0004         estimate D2E/DX2                !
 ! D74   D(17,16,20,21)       -179.9998         estimate D2E/DX2                !
 ! D75   D(2,19,20,16)         179.9188         estimate D2E/DX2                !
 ! D76   D(2,19,20,21)          -0.0818         estimate D2E/DX2                !
 ! D77   D(16,20,21,9)           0.1183         estimate D2E/DX2                !
 ! D78   D(16,20,21,10)          0.0476         estimate D2E/DX2                !
 ! D79   D(16,20,21,22)        179.9998         estimate D2E/DX2                !
 ! D80   D(19,20,21,9)        -179.8811         estimate D2E/DX2                !
 ! D81   D(19,20,21,10)       -179.9517         estimate D2E/DX2                !
 ! D82   D(19,20,21,22)          0.0004         estimate D2E/DX2                !
 ! D83   D(10,21,22,4)        -179.9862         estimate D2E/DX2                !
 ! D84   D(10,21,22,8)          -0.001          estimate D2E/DX2                !
 ! D85   D(20,21,22,4)           0.0573         estimate D2E/DX2                !
 ! D86   D(20,21,22,8)        -179.9576         estimate D2E/DX2                !
 ! D87   D(13,23,24,25)       -174.624          estimate D2E/DX2                !
 ! D88   D(31,23,24,25)          0.3476         estimate D2E/DX2                !
 ! D89   D(13,23,29,28)        174.8035         estimate D2E/DX2                !
 ! D90   D(24,23,29,28)         -0.1037         estimate D2E/DX2                !
 ! D91   D(13,23,31,27)        174.5277         estimate D2E/DX2                !
 ! D92   D(13,23,31,30)         -5.4578         estimate D2E/DX2                !
 ! D93   D(24,23,31,27)         -0.0514         estimate D2E/DX2                !
 ! D94   D(24,23,31,30)        179.9632         estimate D2E/DX2                !
 ! D95   D(23,24,25,26)         -0.6085         estimate D2E/DX2                !
 ! D96   D(23,24,25,37)        179.3917         estimate D2E/DX2                !
 ! D97   D(24,25,26,27)          0.5469         estimate D2E/DX2                !
 ! D98   D(24,25,26,38)       -179.453          estimate D2E/DX2                !
 ! D99   D(37,25,26,27)       -179.4534         estimate D2E/DX2                !
 ! D100  D(37,25,26,38)          0.5467         estimate D2E/DX2                !
 ! D101  D(25,26,27,28)        179.7129         estimate D2E/DX2                !
 ! D102  D(25,26,27,31)         -0.2439         estimate D2E/DX2                !
 ! D103  D(38,26,27,28)         -0.2872         estimate D2E/DX2                !
 ! D104  D(38,26,27,31)        179.7559         estimate D2E/DX2                !
 ! D105  D(25,26,29,30)         -0.2331         estimate D2E/DX2                !
 ! D106  D(38,26,29,30)        179.789          estimate D2E/DX2                !
 ! D107  D(26,27,31,23)          0.0023         estimate D2E/DX2                !
 ! D108  D(26,27,31,30)        179.9915         estimate D2E/DX2                !
 ! D109  D(28,27,31,23)       -179.9659         estimate D2E/DX2                !
 ! D110  D(28,27,31,30)          0.0234         estimate D2E/DX2                !
 --------------------------------------------------------------------------------
 Trust Radius=3.00D-01 FncErr=1.00D-07 GrdErr=1.00D-06
 Number of steps in this run=    228 maximum allowed number of steps=    228.
 GradGradGradGradGradGradGradGradGradGradGradGradGradGradGradGradGradGrad

                          Input orientation:                          
 ---------------------------------------------------------------------
 Center     Atomic      Atomic             Coordinates (Angstroms)
 Number     Number       Type             X           Y           Z
 ---------------------------------------------------------------------
      1          6           0        1.007800   -0.090290    0.042260
      2          8           0        2.262370   -0.090290    0.042260
      3          6           0        2.889650   -1.074330    0.502850
      4          6           0        4.203690   -1.074330    0.502850
      5          6           0        4.895650   -2.154650    1.008500
      6          6           0        6.283950   -2.162600    1.011540
      7          6           0        6.987080   -1.102730    0.515880
      8          6           0        6.306490    0.005730   -0.001850
      9         34           0        6.718830    1.174840   -0.548540
     10          6           0        5.673080    1.898120   -0.887890
     11          6           0        5.525330    3.215620   -1.504900
     12          8           0        6.445910    4.236770   -1.989160
     13          6           0        5.690120    5.247380   -2.456610
     14          6           0        4.365140    4.935290   -2.310890
     15          6           0        4.234430    3.702860   -1.733580
     16          6           0        3.178320    2.951990   -1.381370
     17          7           0        1.983540    3.413290   -1.596840
     18         16           0        1.790330    4.855120   -2.272060
     19          7           0        2.233750    1.119380   -0.522550
     20          6           0        3.307270    1.781120   -0.833030
     21          6           0        4.518820    1.217160   -0.569480
     22          6           0        4.900080    0.013070   -0.005700
     23          6           0        6.198900    6.473450   -3.024980
     24          7           0        5.658690    7.622170   -2.563380
     25          6           0        5.982510    8.827380   -3.101570
     26          6           0        6.869190    8.936620   -4.115970
     27          6           0        7.466260    7.788760   -4.640750
     28          7           0        8.354200    7.544200   -5.617930
     29         16           0        8.560010    6.244240   -5.676200
     30          7           0        7.830690    5.617690   -4.764620
     31          6           0        7.127110    6.522810   -4.086070
     32          1           0        0.011860    0.154620   -0.072370
     33          1           0        2.373650   -1.883780    0.881720
     34          1           0        6.789360   -2.977840    1.392290
     35          1           0        8.018940   -1.118550    0.522800
     36          1           0        3.579900    5.541580   -2.595200
     37          1           0        5.540180    9.680890   -2.726210
     38          1           0        7.103930    9.864860   -4.501070
 ---------------------------------------------------------------------
                    Distance matrix (angstroms):
                    1          2          3          4          5
     1  C    0.000000
     2  O    1.254570   0.000000
     3  C    2.172979   1.254575   0.000000
     4  C    3.375528   2.224680   1.314040   0.000000
     5  C    4.506726   3.482724   2.333840   1.378979   0.000000
     6  C    5.750803   4.626778   3.600607   2.402203   1.388326
     7  C    6.082856   4.855125   4.097549   2.783565   2.392340
     8  C    5.299744   4.045500   3.618846   2.417234   2.771014
     9  Se   5.879240   4.670079   4.563640   3.534136   4.102909
    10  C    5.155947   4.056094   4.303150   3.595653   4.541546
    11  C    5.807824   4.895881   5.420474   4.917465   5.962674
    12  O    7.240384   6.352332   6.860385   6.280561   7.227691
    13  C    7.527230   6.817957   7.520974   7.136659   8.211469
    14  C    6.485792   5.934257   6.797774   6.637675   7.846467
    15  C    5.287035   4.629321   5.443491   5.274856   6.501280
    16  C    3.999168   3.481545   4.454758   4.562118   5.893935
    17  N    3.989209   3.878075   5.036712   5.429226   6.802216
    18  S    5.515932   5.480509   6.638299   6.977307   8.339182
    19  N    1.812530   1.335339   2.508787   3.121614   4.488775
    20  C    3.091257   2.315194   3.180028   3.277459   4.626496
    21  C    3.796171   2.678660   3.009155   2.549534   3.741808
    22  C    3.893947   2.640170   2.341557   1.387812   2.393247
    23  C    8.912809   8.245418   8.964692   8.567113   9.613092
    24  N    9.375616   8.820793   9.628004   9.335304  10.436799
    25  C   10.684393  10.161100  10.981871  10.686436  11.776202
    26  C   11.538279  10.954395  11.721321  11.342729  12.376240
    27  C   11.212570  10.539947  11.223027  10.754318  11.721496
    28  N   12.012193  11.288648  11.899761  11.356485  12.244951
    29  S   11.395742  10.606004  11.130818  10.522341  11.342579
    30  N   10.111328   9.310925   9.845976   9.256592  10.116948
    31  C    9.910709   9.189227   9.835181   9.344576  10.306909
    32  H    1.031997   2.266697   3.181646   4.405977   5.509302
    33  H    2.405586   1.983351   1.031992   2.036614   2.539671
    34  H    6.602042   5.536620   4.429694   3.331688   2.100256
    35  H    7.102417   5.867396   5.129519   3.815558   3.326311
    36  H    6.729774   6.356889   7.337890   7.331937   8.599407
    37  H   11.121279  10.671664  11.538063  11.308748  12.427529
    38  H   12.526359  11.966101  12.746186  12.374025  13.405241
                    6          7          8          9         10
     6  C    0.000000
     7  C    1.365062   0.000000
     8  C    2.393559   1.399975   0.000000
     9  Se   3.709646   2.528295   1.354885   0.000000
    10  C    4.524427   3.564024   2.183441   1.316011   0.000000
    11  C    5.986086   4.986824   3.629430   2.550265   1.462306
    12  O    7.069821   5.922698   4.676595   3.394891   2.698026
    13  C    8.202957   7.130337   5.820709   4.613519   3.698475
    14  C    8.068483   7.163999   5.779366   4.773544   3.600005
    15  C    6.792631   5.977529   4.578328   3.737305   2.458046
    16  C    6.444376   5.877667   4.513200   4.048096   2.752815
    17  N    7.509176   7.063529   5.730912   5.341588   4.051056
    18  S    8.956732   8.383006   7.004723   6.387887   5.073019
    19  N    5.434054   5.348856   4.254240   4.485498   3.545264
    20  C    5.274087   4.865917   3.583042   3.476672   2.369337
    21  C    4.127722   3.556994   2.232830   2.200517   1.377464
    22  C    2.771897   2.423350   1.406434   2.225362   2.220181
    23  C    9.533210   8.399846   7.140189   5.871827   5.077134
    24  N   10.436126   9.347210   8.061714   6.837510   5.964245
    25  C   11.738322  10.616129   9.356000   8.100710   7.280850
    26  C   12.240366  11.056965   9.849031   8.543676   7.835283
    27  C   11.505468  10.289754   9.134551   7.813371   7.211040
    28  N   11.935568  10.689342   9.620915   8.303126   7.838361
    29  S   10.980951   9.736218   8.729010   7.441885   7.081740
    30  N    9.812713   8.588329   7.516732   6.224988   5.789604
    31  C   10.106082   8.907660   7.734766   6.425075   5.807781
    32  H    6.773735   7.112008   6.296786   6.800811   5.979488
    33  H    3.922377   4.693359   4.451761   5.502853   5.321703
    34  H    1.032001   2.079237   3.328435   4.584381   5.497298
    35  H    2.083050   1.032004   2.114651   2.845645   4.073500
    36  H    8.926077   8.089162   6.693683   5.754139   4.535539
    37  H   12.441552  11.353023  10.080580   8.859139   7.998037
    38  H   13.255981  12.061155  10.866524   9.554436   8.864048
                   11         12         13         14         15
    11  C    0.000000
    12  O    1.457643   0.000000
    13  C    2.249657   1.345757   0.000000
    14  C    2.225517   2.218343   1.369017   0.000000
    15  C    1.398614   2.289328   2.242175   1.367207   0.000000
    16  C    2.364998   3.563315   3.568486   2.491190   1.342842
    17  N    3.548493   4.554644   4.223959   2.915196   2.273555
    18  S    4.150508   4.704978   3.923810   2.576350   2.755229
    19  N    4.024144   5.441632   5.720792   4.722515   3.484779
    20  C    2.725617   4.149447   4.508763   3.640322   2.315966
    21  C    2.425266   3.853208   4.601725   4.108603   2.759477
    22  C    3.590942   4.915623   5.833449   5.461530   4.128342
    23  C    3.657567   2.477231   1.444005   2.497706   3.633597
    24  N    4.533856   3.522837   2.377397   2.992716   4.251832
    25  C    5.852369   4.746145   3.649365   4.288289   5.584611
    26  C    6.430668   5.176010   4.213570   5.053635   6.325345
    27  C    5.874894   4.548481   3.792592   4.815338   5.965814
    28  N    6.607278   5.267697   4.729339   5.801338   6.842264
    29  S    5.981769   4.700385   4.426710   5.534943   6.380714
    30  N    4.659442   3.395252   3.169555   4.300755   5.078077
    31  C    4.490617   3.176011   2.519286   3.646911   4.674818
    32  H    6.466855   7.857164   7.991461   6.842282   5.760184
    33  H    6.452358   7.892172   8.543820   7.788357   6.443046
    34  H    6.953447   7.975134   9.147492   9.066863   7.805798
    35  H    5.395803   6.120769   7.404414   7.617679   6.531444
    36  H    3.222350   3.206841   2.135132   1.031999   2.133469
    37  H    6.579630   5.567947   4.444230   4.906519   6.198963
    38  H    7.461997   6.198232   5.244025   6.049671   7.339160
                   16         17         18         19         20
    16  C    0.000000
    17  N    1.298739   0.000000
    18  S    2.518283   1.603785   0.000000
    19  N    2.233438   2.545334   4.148875   0.000000
    20  C    1.299323   2.235989   3.717713   1.298747   0.000000
    21  C    2.337892   3.508005   4.855738   2.287643   1.362117
    22  C    3.673442   4.753886   6.184851   2.932639   2.519428
    23  C    4.921995   5.401243   4.756193   7.116926   5.931621
    24  N    5.418484   5.670591   4.765044   7.627678   6.530019
    25  C    6.733705   6.896981   5.834493   8.950855   7.871020
    26  C    7.544293   7.792481   6.771519   9.772881   8.640958
    27  C    7.239084   7.646590   6.814185   9.424402   8.239397
    28  N    8.113357   8.591792   7.842856  10.232356   9.032157
    29  S    7.631976   8.240474   7.703661   9.635656   8.424192
    30  N    6.340101   7.005953   6.578778   8.340005   7.116038
    31  C    5.971524   6.505513   5.878184   8.114228   6.903410
    32  H    4.423260   4.102494   5.486009   2.463781   3.752843
    33  H    5.399420   5.861262   7.463201   3.318210   4.152530
    34  H    7.476342   8.536823   9.988645   6.419300   6.302753
    35  H    6.605056   7.839420   9.071469   6.290430   5.696156
    36  H    2.888014   2.841603   1.943761   5.065950   4.161806
    37  H    7.257071   7.294380   6.128269   9.438647   8.424748
    38  H    8.539948   8.733596   7.635465  10.771755   9.654843
                   21         22         23         24         25
    21  C    0.000000
    22  C    1.383127   0.000000
    23  C    6.039928   7.248413   0.000000
    24  N    6.804344   8.063226   1.350725   0.000000
    25  C    8.152872   9.404686   2.365096   1.359058   0.000000
    26  C    8.814300  10.020053   2.776104   2.367198   1.351718
    27  C    8.273365   9.409055   2.438638   2.758718   2.376830
    28  N    8.957032  10.007297   3.537685   4.074571   3.688297
    29  S    8.226867   9.185703   3.557576   4.472806   4.465964
    30  N    6.923319   7.915021   2.534050   3.685238   4.060002
    31  C    6.878917   7.999112   1.410646   2.383995   2.755067
    32  H    4.657123   4.890723   9.323357   9.687937  10.956344
    33  H    4.040243   3.281524   9.986898  10.631241  11.984132
    34  H    5.157705   3.803853  10.449297  11.370398  12.657370
    35  H    4.347351   3.359637   8.575416   9.565327  10.779825
    36  H    4.866798   6.246023   2.812873   2.941298   4.101881
    37  H    8.793713  10.063680   3.287985   2.068547   1.032003
    38  H    9.844943  11.050931   3.807832   3.297426   2.071846
                   26         27         28         29         30
    26  C    0.000000
    27  C    1.396234   0.000000
    28  N    2.529817   1.342806   0.000000
    29  S    3.541483   2.157310   1.317440   0.000000
    30  N    3.515754   2.204926   2.171092   1.324934   0.000000
    31  C    2.427735   1.423138   2.212596   2.158545   1.332178
    32  H   11.853151  11.606820  12.448043  11.897783  10.629979
    33  H   12.738440  12.247056  12.918949  12.138454  10.859673
    34  H   13.126373  12.360236  12.739907  11.753532  10.624267
    35  H   11.133129  10.310571  10.623756   9.640074   8.565581
    36  H    4.965729   4.933344   5.995108   5.898117   4.772986
    37  H    2.061950   3.309895   4.565764   5.443563   5.090299
    38  H    1.032005   2.112104   2.862868   4.075535   4.316954
                   31         32         33         34         35
    31  C    0.000000
    32  H   10.358109   0.000000
    33  H   10.860252   3.262425   0.000000
    34  H   10.972185   7.608682   4.577788   0.000000
    35  H    8.968134   8.129485   5.708213   2.392664   0.000000
    36  H    3.970920   6.936492   8.287339   9.938875   8.589781
    37  H    3.786956  11.329387  12.521408  13.370338  11.546784
    38  H    3.367798  12.814039  13.761559  14.133846  12.112465
                   36         37         38
    36  H    0.000000
    37  H    4.581894   0.000000
    38  H    5.894224   2.372612   0.000000
 Stoichiometry    C21H7N5O2S2Se
 Framework group  C1[X(C21H7N5O2S2Se)]
 Deg. of freedom   108
 Full point group                 C1      NOp   1
 Largest Abelian subgroup         C1      NOp   1
 Largest concise Abelian subgroup C1      NOp   1
                         Standard orientation:                         
 ---------------------------------------------------------------------
 Center     Atomic      Atomic             Coordinates (Angstroms)
 Number     Number       Type             X           Y           Z
 ---------------------------------------------------------------------
      1          6           0        4.784409    2.942111    0.667939
      2          8           0        4.413927    1.763745    0.448521
      3          6           0        5.261423    0.840664    0.388266
      4          6           0        4.873379   -0.393559    0.158447
      5          6           0        5.802816   -1.410061    0.091723
      6          6           0        5.400853   -2.716737   -0.150091
      7          6           0        4.081105   -3.017520   -0.326698
      8          6           0        3.119313   -2.002140   -0.264327
      9         34           0        1.770841   -1.992729   -0.395654
     10          6           0        1.320188   -0.765083   -0.248399
     11          6           0       -0.019043   -0.179258   -0.288473
     12          8           0       -1.365666   -0.697476   -0.495306
     13          6           0       -2.200362    0.355370   -0.418771
     14          6           0       -1.481730    1.493968   -0.171043
     15          6           0       -0.149489    1.198555   -0.086645
     16          6           0        0.950784    1.935737    0.135138
     17          7           0        0.819701    3.214476    0.320527
     18         16           0       -0.636597    3.885187    0.282170
     19          7           0        3.153530    2.201102    0.391524
     20          6           0        2.141662    1.417324    0.171164
     21          6           0        2.375547    0.088000   -0.012024
     22          6           0        3.526728   -0.678670   -0.018361
     23          6           0       -3.634650    0.293567   -0.574168
     24          7           0       -4.190700    1.198851   -1.408272
     25          6           0       -5.538464    1.303861   -1.548064
     26          6           0       -6.387286    0.500294   -0.869150
     27          6           0       -5.879712   -0.458613    0.009676
     28          7           0       -6.420549   -1.384456    0.818032
     29         16           0       -5.443965   -2.024273    1.428416
     30          7           0       -4.267850   -1.546839    1.048600
     31          6           0       -4.469530   -0.569932    0.165608
     32          1           0        4.821488    3.960658    0.829814
     33          1           0        6.263305    1.050660    0.519192
     34          1           0        6.106777   -3.468080   -0.196790
     35          1           0        3.792756   -3.992075   -0.505948
     36          1           0       -1.886396    2.437232   -0.063716
     37          1           0       -5.923641    2.015219   -2.188875
     38          1           0       -7.406570    0.595182   -0.999882
 ---------------------------------------------------------------------
 Rotational constants (GHZ):      0.2423209      0.0700194      0.0568575
 Standard basis: 6-31++G(d,p) (6D, 7F)
 There are   654 symmetry adapted basis functions of A   symmetry.
 Integral buffers will be    131072 words long.
 Raffenetti 2 integral format.
 Two-electron integral symmetry is turned on.
   654 basis functions,  1151 primitive gaussians,   654 cartesian basis functions
   125 alpha electrons      125 beta electrons
       nuclear repulsion energy      3885.2449069927 Hartrees.
 NAtoms=   38 NActive=   38 NUniq=   38 SFac= 1.00D+00 NAtFMM=   60 NAOKFM=F Big=F
 One-electron integrals computed using PRISM.
 NBasis=   654 RedAO= T  NBF=   654
 NBsUse=   643 1.00D-06 NBFU=   643
 Harris functional with IExCor=  402 diagonalized for initial guess.
 ExpMin= 3.00D-02 ExpMax= 5.61D+05 ExpMxC= 5.42D+03 IAcc=3 IRadAn=         5 AccDes= 0.00D+00
 HarFok:  IExCor=  402 AccDes= 0.00D+00 IRadAn=         5 IDoV= 1
 ScaDFX=  1.000000  1.000000  1.000000  1.000000
 FoFCou: FMM=F IPFlag=           0 FMFlag=      100000 FMFlg1=           0
         NFxFlg=           0 DoJE=T BraDBF=F KetDBF=T FulRan=T
         Omega=  0.000000  0.000000  1.000000  0.000000  0.000000 ICntrl=     500 IOpCl=  0
         NMat0=    1 NMatS0=    1 NMatT0=    0 NMatD0=    1 NMtDS0=    0 NMtDT0=    0
         I1Cent=           4 NGrid=           0.
 Petite list used in FoFCou.
 Initial guess orbital symmetries:
       Occupied  (A) (A) (A) (A) (A) (A) (A) (A) (A) (A) (A) (A)
                 (A) (A) (A) (A) (A) (A) (A) (A) (A) (A) (A) (A)
                 (A) (A) (A) (A) (A) (A) (A) (A) (A) (A) (A) (A)
                 (A) (A) (A) (A) (A) (A) (A) (A) (A) (A) (A) (A)
                 (A) (A) (A) (A) (A) (A) (A) (A) (A) (A) (A) (A)
                 (A) (A) (A) (A) (A) (A) (A) (A) (A) (A) (A) (A)
                 (A) (A) (A) (A) (A) (A) (A) (A) (A) (A) (A) (A)
                 (A) (A) (A) (A) (A) (A) (A) (A) (A) (A) (A) (A)
                 (A) (A) (A) (A) (A) (A) (A) (A) (A) (A) (A) (A)
                 (A) (A) (A) (A) (A) (A) (A) (A) (A) (A) (A) (A)
                 (A) (A) (A) (A) (A)
       Virtual   (A) (A) (A) (A) (A) (A) (A) (A) (A) (A) (A) (A)
                 (A) (A) (A) (A) (A) (A) (A) (A) (A) (A) (A) (A)
                 (A) (A) (A) (A) (A) (A) (A) (A) (A) (A) (A) (A)
                 (A) (A) (A) (A) (A) (A) (A) (A) (A) (A) (A) (A)
                 (A) (A) (A) (A) (A) (A) (A) (A) (A) (A) (A) (A)
                 (A) (A) (A) (A) (A) (A) (A) (A) (A) (A) (A) (A)
                 (A) (A) (A) (A) (A) (A) (A) (A) (A) (A) (A) (A)
                 (A) (A) (A) (A) (A) (A) (A) (A) (A) (A) (A) (A)
                 (A) (A) (A) (A) (A) (A) (A) (A) (A) (A) (A) (A)
                 (A) (A) (A) (A) (A) (A) (A) (A) (A) (A) (A) (A)
                 (A) (A) (A) (A) (A) (A) (A) (A) (A) (A) (A) (A)
                 (A) (A) (A) (A) (A) (A) (A) (A) (A) (A) (A) (A)
                 (A) (A) (A) (A) (A) (A) (A) (A) (A) (A) (A) (A)
                 (A) (A) (A) (A) (A) (A) (A) (A) (A) (A) (A) (A)
                 (A) (A) (A) (A) (A) (A) (A) (A) (A) (A) (A) (A)
                 (A) (A) (A) (A) (A) (A) (A) (A) (A) (A) (A) (A)
                 (A) (A) (A) (A) (A) (A) (A) (A) (A) (A) (A) (A)
                 (A) (A) (A) (A) (A) (A) (A) (A) (A) (A) (A) (A)
                 (A) (A) (A) (A) (A) (A) (A) (A) (A) (A) (A) (A)
                 (A) (A) (A) (A) (A) (A) (A) (A) (A) (A) (A) (A)
                 (A) (A) (A) (A) (A) (A) (A) (A) (A) (A) (A) (A)
                 (A) (A) (A) (A) (A) (A) (A) (A) (A) (A) (A) (A)
                 (A) (A) (A) (A) (A) (A) (A) (A) (A) (A) (A) (A)
                 (A) (A) (A) (A) (A) (A) (A) (A) (A) (A) (A) (A)
                 (A) (A) (A) (A) (A) (A) (A) (A) (A) (A) (A) (A)
                 (A) (A) (A) (A) (A) (A) (A) (A) (A) (A) (A) (A)
                 (A) (A) (A) (A) (A) (A) (A) (A) (A) (A) (A) (A)
                 (A) (A) (A) (A) (A) (A) (A) (A) (A) (A) (A) (A)
                 (A) (A) (A) (A) (A) (A) (A) (A) (A) (A) (A) (A)
                 (A) (A) (A) (A) (A) (A) (A) (A) (A) (A) (A) (A)
                 (A) (A) (A) (A) (A) (A) (A) (A) (A) (A) (A) (A)
                 (A) (A) (A) (A) (A) (A) (A) (A) (A) (A) (A) (A)
                 (A) (A) (A) (A) (A) (A) (A) (A) (A) (A) (A) (A)
                 (A) (A) (A) (A) (A) (A) (A) (A) (A) (A) (A) (A)
                 (A) (A) (A) (A) (A) (A) (A) (A) (A) (A) (A) (A)
                 (A) (A) (A) (A) (A) (A) (A) (A) (A) (A) (A) (A)
                 (A) (A) (A) (A) (A) (A) (A) (A) (A) (A) (A) (A)
                 (A) (A) (A) (A) (A) (A) (A) (A) (A) (A) (A) (A)
                 (A) (A) (A) (A) (A) (A) (A) (A) (A) (A) (A) (A)
                 (A) (A) (A) (A) (A) (A) (A) (A) (A) (A) (A) (A)
                 (A) (A) (A) (A) (A) (A) (A) (A) (A) (A) (A) (A)
                 (A) (A) (A) (A) (A) (A) (A) (A) (A) (A) (A) (A)
                 (A) (A) (A) (A) (A) (A) (A) (A) (A) (A) (A) (A)
                 (A) (A)
 The electronic state of the initial guess is 1-A.
 Requested convergence on RMS density matrix=1.00D-08 within 128 cycles.
 Requested convergence on MAX density matrix=1.00D-06.
 Requested convergence on             energy=1.00D-06.
 No special actions if energy rises.
 EnCoef did     4 forward-backward iterations
 EnCoef did     4 forward-backward iterations
 EnCoef did     8 forward-backward iterations
 EnCoef did     1 forward-backward iterations
 EnCoef did   100 forward-backward iterations
 EnCoef did     5 forward-backward iterations
 EnCoef did     2 forward-backward iterations
 EnCoef did     8 forward-backward iterations
 Restarting incremental Fock formation.
 SCF Done:  E(RB3LYP) =  -4422.87692749     A.U. after   32 cycles
             Convg  =    0.6773D-08             -V/T =  2.0031

 **********************************************************************

            Population analysis using the SCF density.

 **********************************************************************

 Orbital symmetries:
       Occupied  (A) (A) (A) (A) (A) (A) (A) (A) (A) (A) (A) (A)
                 (A) (A) (A) (A) (A) (A) (A) (A) (A) (A) (A) (A)
                 (A) (A) (A) (A) (A) (A) (A) (A) (A) (A) (A) (A)
                 (A) (A) (A) (A) (A) (A) (A) (A) (A) (A) (A) (A)
                 (A) (A) (A) (A) (A) (A) (A) (A) (A) (A) (A) (A)
                 (A) (A) (A) (A) (A) (A) (A) (A) (A) (A) (A) (A)
                 (A) (A) (A) (A) (A) (A) (A) (A) (A) (A) (A) (A)
                 (A) (A) (A) (A) (A) (A) (A) (A) (A) (A) (A) (A)
                 (A) (A) (A) (A) (A) (A) (A) (A) (A) (A) (A) (A)
                 (A) (A) (A) (A) (A) (A) (A) (A) (A) (A) (A) (A)
                 (A) (A) (A) (A) (A)
       Virtual   (A) (A) (A) (A) (A) (A) (A) (A) (A) (A) (A) (A)
                 (A) (A) (A) (A) (A) (A) (A) (A) (A) (A) (A) (A)
                 (A) (A) (A) (A) (A) (A) (A) (A) (A) (A) (A) (A)
                 (A) (A) (A) (A) (A) (A) (A) (A) (A) (A) (A) (A)
                 (A) (A) (A) (A) (A) (A) (A) (A) (A) (A) (A) (A)
                 (A) (A) (A) (A) (A) (A) (A) (A) (A) (A) (A) (A)
                 (A) (A) (A) (A) (A) (A) (A) (A) (A) (A) (A) (A)
                 (A) (A) (A) (A) (A) (A) (A) (A) (A) (A) (A) (A)
                 (A) (A) (A) (A) (A) (A) (A) (A) (A) (A) (A) (A)
                 (A) (A) (A) (A) (A) (A) (A) (A) (A) (A) (A) (A)
                 (A) (A) (A) (A) (A) (A) (A) (A) (A) (A) (A) (A)
                 (A) (A) (A) (A) (A) (A) (A) (A) (A) (A) (A) (A)
                 (A) (A) (A) (A) (A) (A) (A) (A) (A) (A) (A) (A)
                 (A) (A) (A) (A) (A) (A) (A) (A) (A) (A) (A) (A)
                 (A) (A) (A) (A) (A) (A) (A) (A) (A) (A) (A) (A)
                 (A) (A) (A) (A) (A) (A) (A) (A) (A) (A) (A) (A)
                 (A) (A) (A) (A) (A) (A) (A) (A) (A) (A) (A) (A)
                 (A) (A) (A) (A) (A) (A) (A) (A) (A) (A) (A) (A)
                 (A) (A) (A) (A) (A) (A) (A) (A) (A) (A) (A) (A)
                 (A) (A) (A) (A) (A) (A) (A) (A) (A) (A) (A) (A)
                 (A) (A) (A) (A) (A) (A) (A) (A) (A) (A) (A) (A)
                 (A) (A) (A) (A) (A) (A) (A) (A) (A) (A) (A) (A)
                 (A) (A) (A) (A) (A) (A) (A) (A) (A) (A) (A) (A)
                 (A) (A) (A) (A) (A) (A) (A) (A) (A) (A) (A) (A)
                 (A) (A) (A) (A) (A) (A) (A) (A) (A) (A) (A) (A)
                 (A) (A) (A) (A) (A) (A) (A) (A) (A) (A) (A) (A)
                 (A) (A) (A) (A) (A) (A) (A) (A) (A) (A) (A) (A)
                 (A) (A) (A) (A) (A) (A) (A) (A) (A) (A) (A) (A)
                 (A) (A) (A) (A) (A) (A) (A) (A) (A) (A) (A) (A)
                 (A) (A) (A) (A) (A) (A) (A) (A) (A) (A) (A) (A)
                 (A) (A) (A) (A) (A) (A) (A) (A) (A) (A) (A) (A)
                 (A) (A) (A) (A) (A) (A) (A) (A) (A) (A) (A) (A)
                 (A) (A) (A) (A) (A) (A) (A) (A) (A) (A) (A) (A)
                 (A) (A) (A) (A) (A) (A) (A) (A) (A) (A) (A) (A)
                 (A) (A) (A) (A) (A) (A) (A) (A) (A) (A) (A) (A)
                 (A) (A) (A) (A) (A) (A) (A) (A) (A) (A) (A) (A)
                 (A) (A) (A) (A) (A) (A) (A) (A) (A) (A) (A) (A)
                 (A) (A) (A) (A) (A) (A) (A) (A) (A) (A) (A) (A)
                 (A) (A) (A) (A) (A) (A) (A) (A) (A) (A) (A) (A)
                 (A) (A) (A) (A) (A) (A) (A) (A) (A) (A) (A) (A)
                 (A) (A) (A) (A) (A) (A) (A) (A) (A) (A) (A) (A)
                 (A) (A) (A) (A) (A) (A) (A) (A) (A) (A) (A) (A)
                 (A) (A) (A) (A) (A) (A) (A) (A) (A) (A) (A) (A)
                 (A) (A)
 The electronic state is 1-A.
 Alpha  occ. eigenvalues -- -453.92594 -88.97958 -88.87985 -57.53588 -52.20708
 Alpha  occ. eigenvalues --  -52.20522 -52.20370 -19.44530 -19.24935 -14.45307
 Alpha  occ. eigenvalues --  -14.38264 -14.36014 -14.35859 -14.35812 -10.31213
 Alpha  occ. eigenvalues --  -10.29990 -10.28175 -10.27900 -10.27091 -10.26548
 Alpha  occ. eigenvalues --  -10.26531 -10.26171 -10.24214 -10.24136 -10.23233
 Alpha  occ. eigenvalues --  -10.22706 -10.22489 -10.22340 -10.21780 -10.21731
 Alpha  occ. eigenvalues --  -10.20966 -10.20905 -10.18909 -10.18420 -10.16565
 Alpha  occ. eigenvalues --   -8.05365  -7.94088  -7.80520  -6.01784  -6.01160
 Alpha  occ. eigenvalues --   -6.00955  -5.90579  -5.90168  -5.89615  -5.85013
 Alpha  occ. eigenvalues --   -5.84029  -5.83725  -2.21611  -2.20981  -2.20100
 Alpha  occ. eigenvalues --   -2.19542  -2.19352  -1.38659  -1.17865  -1.12433
 Alpha  occ. eigenvalues --   -1.07310  -1.03967  -0.98907  -0.97945  -0.96727
 Alpha  occ. eigenvalues --   -0.94299  -0.89501  -0.85817  -0.84678  -0.83008
 Alpha  occ. eigenvalues --   -0.82846  -0.82257  -0.79933  -0.77404  -0.75978
 Alpha  occ. eigenvalues --   -0.73031  -0.70578  -0.69228  -0.68676  -0.66786
 Alpha  occ. eigenvalues --   -0.66316  -0.65539  -0.63303  -0.62857  -0.61814
 Alpha  occ. eigenvalues --   -0.60870  -0.59849  -0.58835  -0.57636  -0.56064
 Alpha  occ. eigenvalues --   -0.55109  -0.55003  -0.54267  -0.53279  -0.51512
 Alpha  occ. eigenvalues --   -0.49402  -0.48806  -0.48082  -0.47940  -0.46677
 Alpha  occ. eigenvalues --   -0.46451  -0.45911  -0.45128  -0.44852  -0.44149
 Alpha  occ. eigenvalues --   -0.41753  -0.41230  -0.40183  -0.39932  -0.39396
 Alpha  occ. eigenvalues --   -0.38743  -0.38455  -0.38226  -0.37861  -0.36019
 Alpha  occ. eigenvalues --   -0.33822  -0.33748  -0.32574  -0.31494  -0.31436
 Alpha  occ. eigenvalues --   -0.30633  -0.29821  -0.28241  -0.28082  -0.26022
 Alpha  occ. eigenvalues --   -0.25100  -0.22123  -0.20552  -0.18492  -0.17819
 Alpha virt. eigenvalues --   -0.15002  -0.13401  -0.10884  -0.08246  -0.03672
 Alpha virt. eigenvalues --   -0.03010  -0.01988  -0.01888  -0.01163  -0.00728
 Alpha virt. eigenvalues --   -0.00418  -0.00178   0.00139   0.00362   0.00623
 Alpha virt. eigenvalues --    0.01093   0.01564   0.01935   0.02069   0.02696
 Alpha virt. eigenvalues --    0.02982   0.03188   0.03417   0.03611   0.03854
 Alpha virt. eigenvalues --    0.04366   0.04799   0.05227   0.05502   0.06058
 Alpha virt. eigenvalues --    0.06338   0.06399   0.06766   0.07000   0.07271
 Alpha virt. eigenvalues --    0.07587   0.07869   0.08173   0.08509   0.09045
 Alpha virt. eigenvalues --    0.09214   0.09472   0.09678   0.09912   0.10463
 Alpha virt. eigenvalues --    0.10853   0.10894   0.11073   0.11100   0.11610
 Alpha virt. eigenvalues --    0.11813   0.11932   0.12189   0.12673   0.12844
 Alpha virt. eigenvalues --    0.13065   0.13213   0.13325   0.13410   0.13539
 Alpha virt. eigenvalues --    0.13656   0.14046   0.14303   0.14410   0.14892
 Alpha virt. eigenvalues --    0.15284   0.15338   0.15695   0.15823   0.16046
 Alpha virt. eigenvalues --    0.16156   0.16472   0.16607   0.16932   0.17171
 Alpha virt. eigenvalues --    0.17626   0.17844   0.18290   0.18506   0.18603
 Alpha virt. eigenvalues --    0.18934   0.19117   0.19400   0.19561   0.19789
 Alpha virt. eigenvalues --    0.20113   0.20344   0.20645   0.20862   0.21127
 Alpha virt. eigenvalues --    0.21536   0.21898   0.22149   0.22358   0.22623
 Alpha virt. eigenvalues --    0.23243   0.23302   0.23474   0.23841   0.24018
 Alpha virt. eigenvalues --    0.24382   0.24531   0.24792   0.24978   0.25003
 Alpha virt. eigenvalues --    0.25416   0.25827   0.26046   0.26407   0.26544
 Alpha virt. eigenvalues --    0.26788   0.27057   0.27232   0.27765   0.27895
 Alpha virt. eigenvalues --    0.28211   0.28460   0.28797   0.29081   0.29235
 Alpha virt. eigenvalues --    0.29537   0.30058   0.30316   0.30480   0.30887
 Alpha virt. eigenvalues --    0.31016   0.31253   0.31422   0.32076   0.32262
 Alpha virt. eigenvalues --    0.32569   0.32668   0.32829   0.33408   0.33566
 Alpha virt. eigenvalues --    0.34029   0.34564   0.34771   0.35188   0.35895
 Alpha virt. eigenvalues --    0.36029   0.36375   0.36739   0.37159   0.37612
 Alpha virt. eigenvalues --    0.37970   0.38221   0.38438   0.38917   0.39270
 Alpha virt. eigenvalues --    0.40226   0.40784   0.40952   0.41426   0.41774
 Alpha virt. eigenvalues --    0.42440   0.43261   0.43553   0.44008   0.44918
 Alpha virt. eigenvalues --    0.45356   0.45945   0.46438   0.46777   0.47479
 Alpha virt. eigenvalues --    0.48112   0.49005   0.49869   0.50160   0.51185
 Alpha virt. eigenvalues --    0.51288   0.52304   0.53082   0.54830   0.55190
 Alpha virt. eigenvalues --    0.56118   0.56436   0.58314   0.58473   0.59245
 Alpha virt. eigenvalues --    0.60791   0.61686   0.62170   0.62622   0.62926
 Alpha virt. eigenvalues --    0.64245   0.64436   0.64576   0.66501   0.67210
 Alpha virt. eigenvalues --    0.67797   0.68290   0.68583   0.68715   0.69346
 Alpha virt. eigenvalues --    0.69826   0.70771   0.71182   0.71312   0.72123
 Alpha virt. eigenvalues --    0.73031   0.73348   0.74202   0.74463   0.74999
 Alpha virt. eigenvalues --    0.75430   0.75526   0.75812   0.76114   0.76945
 Alpha virt. eigenvalues --    0.77778   0.77946   0.78084   0.78429   0.78828
 Alpha virt. eigenvalues --    0.79362   0.79938   0.80257   0.81189   0.81290
 Alpha virt. eigenvalues --    0.81574   0.82132   0.82411   0.82849   0.83145
 Alpha virt. eigenvalues --    0.84094   0.85025   0.86293   0.87080   0.87327
 Alpha virt. eigenvalues --    0.87723   0.88958   0.89461   0.90242   0.90933
 Alpha virt. eigenvalues --    0.91445   0.92364   0.92827   0.93337   0.95249
 Alpha virt. eigenvalues --    0.95556   0.95870   0.95969   0.96472   0.96995
 Alpha virt. eigenvalues --    0.97820   0.98049   0.98654   0.99157   0.99406
 Alpha virt. eigenvalues --    1.00951   1.01561   1.02760   1.03855   1.04940
 Alpha virt. eigenvalues --    1.05206   1.05453   1.06630   1.07544   1.08263
 Alpha virt. eigenvalues --    1.08429   1.08734   1.09970   1.10660   1.10959
 Alpha virt. eigenvalues --    1.11406   1.12930   1.13608   1.14298   1.14919
 Alpha virt. eigenvalues --    1.15838   1.16480   1.16533   1.17546   1.18538
 Alpha virt. eigenvalues --    1.18976   1.19602   1.19963   1.20136   1.20401
 Alpha virt. eigenvalues --    1.21000   1.21047   1.21783   1.22825   1.23253
 Alpha virt. eigenvalues --    1.23470   1.24089   1.24545   1.24930   1.25700
 Alpha virt. eigenvalues --    1.27353   1.27788   1.28658   1.29099   1.30402
 Alpha virt. eigenvalues --    1.30543   1.31470   1.31723   1.32459   1.32802
 Alpha virt. eigenvalues --    1.33832   1.34079   1.35825   1.35956   1.36164
 Alpha virt. eigenvalues --    1.37183   1.37864   1.38858   1.39260   1.40057
 Alpha virt. eigenvalues --    1.40528   1.41458   1.43207   1.43658   1.44501
 Alpha virt. eigenvalues --    1.45247   1.46116   1.46394   1.47221   1.48260
 Alpha virt. eigenvalues --    1.49365   1.49852   1.50826   1.52808   1.53848
 Alpha virt. eigenvalues --    1.55550   1.58031   1.60320   1.61126   1.61977
 Alpha virt. eigenvalues --    1.62281   1.63536   1.63790   1.65631   1.67532
 Alpha virt. eigenvalues --    1.68168   1.69727   1.71386   1.73309   1.73898
 Alpha virt. eigenvalues --    1.74821   1.75559   1.77623   1.78470   1.79531
 Alpha virt. eigenvalues --    1.80743   1.80921   1.82027   1.82752   1.83477
 Alpha virt. eigenvalues --    1.84160   1.84551   1.85771   1.86397   1.86656
 Alpha virt. eigenvalues --    1.86872   1.87713   1.89818   1.90266   1.91560
 Alpha virt. eigenvalues --    1.93508   1.93694   1.94073   1.94937   1.95160
 Alpha virt. eigenvalues --    1.96591   1.98081   1.99760   2.00462   2.01333
 Alpha virt. eigenvalues --    2.01719   2.02480   2.02765   2.03002   2.03366
 Alpha virt. eigenvalues --    2.04924   2.05587   2.07504   2.07972   2.08758
 Alpha virt. eigenvalues --    2.10819   2.12092   2.12662   2.12977   2.14186
 Alpha virt. eigenvalues --    2.15034   2.16249   2.17153   2.17937   2.20516
 Alpha virt. eigenvalues --    2.21738   2.22349   2.23179   2.23595   2.25442
 Alpha virt. eigenvalues --    2.26603   2.27327   2.27589   2.30093   2.31533
 Alpha virt. eigenvalues --    2.32171   2.32740   2.33657   2.33888   2.34321
 Alpha virt. eigenvalues --    2.35899   2.37090   2.38237   2.39398   2.40331
 Alpha virt. eigenvalues --    2.42090   2.42557   2.43408   2.44776   2.45949
 Alpha virt. eigenvalues --    2.47723   2.48397   2.48869   2.49731   2.50438
 Alpha virt. eigenvalues --    2.51144   2.52358   2.52510   2.53832   2.54227
 Alpha virt. eigenvalues --    2.56590   2.58321   2.59172   2.59858   2.61263
 Alpha virt. eigenvalues --    2.62787   2.63466   2.64853   2.65786   2.67474
 Alpha virt. eigenvalues --    2.67780   2.69598   2.70853   2.72201   2.72909
 Alpha virt. eigenvalues --    2.73575   2.74408   2.75246   2.75901   2.76019
 Alpha virt. eigenvalues --    2.77692   2.78623   2.80059   2.80826   2.81679
 Alpha virt. eigenvalues --    2.82918   2.84795   2.85296   2.87740   2.88591
 Alpha virt. eigenvalues --    2.89302   2.91695   2.92909   2.95777   2.97539
 Alpha virt. eigenvalues --    2.99353   3.01727   3.03571   3.05422   3.07725
 Alpha virt. eigenvalues --    3.11752   3.12636   3.17642   3.19500   3.21499
 Alpha virt. eigenvalues --    3.23449   3.27809   3.32648   3.34192   3.38381
 Alpha virt. eigenvalues --    3.40280   3.45519   3.45631   3.47130   3.56750
 Alpha virt. eigenvalues --    3.61524   3.73579   3.76478   3.81880   3.82501
 Alpha virt. eigenvalues --    3.84950   3.97035   4.00929   4.17226   4.18291
 Alpha virt. eigenvalues --    4.27177   4.32959   4.33229   4.34244   4.35478
 Alpha virt. eigenvalues --    4.37632   4.39002   4.40084   4.43636   4.44519
 Alpha virt. eigenvalues --    4.47906   4.48314   4.49230   4.52282   4.55484
 Alpha virt. eigenvalues --    4.57224   4.58851   4.61244   4.69532   4.76033
 Alpha virt. eigenvalues --    4.79740   4.83862   4.89912   4.93510   5.11893
 Alpha virt. eigenvalues --    5.20766   8.52684  84.21839
          Condensed to atoms (all electrons):
              1          2          3          4          5          6
     1  C    6.089803  -0.044320   0.083579  -0.459693   0.332433  -0.050553
     2  O   -0.044320   9.673455  -0.505200   0.454886  -0.156251   0.008139
     3  C    0.083579  -0.505200  17.485755  -8.658033   3.130177  -0.448058
     4  C   -0.459693   0.454886  -8.658033  20.834285  -9.827805   0.576814
     5  C    0.332433  -0.156251   3.130177  -9.827805  21.463870  -0.621251
     6  C   -0.050553   0.008139  -0.448058   0.576814  -0.621251   7.656380
     7  C   -0.084209   0.052219  -3.193066   1.962079  -5.015169   0.843365
     8  C    0.133316  -0.017134  -1.410929  -3.553065   5.500640  -2.275310
     9  Se   0.005847  -0.022578   0.287726   0.242542   0.212987   0.196360
    10  C    0.149547   0.030372   1.526255  -1.929713   1.323528  -0.033375
    11  C    0.008926  -0.000205  -0.402882  -0.847936  -0.245784   0.006479
    12  O   -0.000233  -0.000059  -0.001890  -0.008422  -0.002406   0.003457
    13  C   -0.008254   0.004212  -0.128238   0.010866   0.019705   0.003639
    14  C   -0.012801  -0.034284   0.042812   0.024364   0.025463   0.003141
    15  C   -0.121384   0.162854  -0.248145   0.241848  -0.169005   0.051646
    16  C    0.142774  -0.253828   1.118779  -0.390667   0.411354  -0.103274
    17  N   -0.006219  -0.151476  -0.022297  -0.021747  -0.020396  -0.002723
    18  S   -0.000099  -0.010898   0.014704  -0.038325  -0.006574  -0.001422
    19  N   -0.005985  -2.731381   0.527164  -0.215414   0.083603   0.004003
    20  C   -0.120723   0.819661   0.230012   0.635270  -0.895955   0.085002
    21  C   -0.180858  -0.164441  -0.347088   1.075760  -2.907063  -0.294105
    22  C   -0.324047   0.121557  -3.805079   5.723943  -5.438869   0.471853
    23  C    0.001120  -0.000063   0.009991   0.017171   0.005426  -0.000343
    24  N   -0.000006   0.000001  -0.000005  -0.000231  -0.000027   0.000003
    25  C   -0.000001  -0.000003   0.000124   0.000153  -0.000008   0.000007
    26  C   -0.000000   0.000001  -0.000097  -0.000042   0.000010  -0.000007
    27  C    0.000017   0.000012  -0.000490   0.002520   0.000218   0.000032
    28  N   -0.000000  -0.000000   0.000003  -0.000021  -0.000001   0.000000
    29  S   -0.000004   0.000001   0.000092  -0.000312  -0.000068   0.000045
    30  N    0.000002   0.000000   0.000159  -0.000553  -0.000072  -0.000003
    31  C   -0.000357   0.000099  -0.002652  -0.003231  -0.000559   0.000721
    32  H    0.414400  -0.110970  -0.001102  -0.029406   0.003349  -0.000390
    33  H   -0.060276  -0.183896   0.305517   0.101917  -0.062094   0.016456
    34  H    0.000688  -0.000609   0.015475   0.047132  -0.141359   0.625431
    35  H   -0.002757  -0.000339   0.030255   0.109184  -0.185011  -0.302712
    36  H    0.001773   0.002171  -0.000110   0.010048   0.003471   0.000459
    37  H   -0.000001  -0.000000   0.000006   0.000006   0.000000  -0.000000
    38  H    0.000000   0.000000  -0.000001   0.000002   0.000000   0.000000
              7          8          9         10         11         12
     1  C   -0.084209   0.133316   0.005847   0.149547   0.008926  -0.000233
     2  O    0.052219  -0.017134  -0.022578   0.030372  -0.000205  -0.000059
     3  C   -3.193066  -1.410929   0.287726   1.526255  -0.402882  -0.001890
     4  C    1.962079  -3.553065   0.242542  -1.929713  -0.847936  -0.008422
     5  C   -5.015169   5.500640   0.212987   1.323528  -0.245784  -0.002406
     6  C    0.843365  -2.275310   0.196360  -0.033375   0.006479   0.003457
     7  C   14.312623  -1.577990  -1.038380  -0.114960   0.789213   0.018061
     8  C   -1.577990  17.777973  -1.222518   1.508394   2.964925  -0.024374
     9  Se  -1.038380  -1.222518  35.120281  -1.013857  -1.210577  -0.062271
    10  C   -0.114960   1.508394  -1.013857  15.474875   1.649693  -0.380104
    11  C    0.789213   2.964925  -1.210577   1.649693  16.500913   0.078059
    12  O    0.018061  -0.024374  -0.062271  -0.380104   0.078059   8.566569
    13  C    0.113499  -0.237834   0.022314   0.865313  -0.341308  -0.872376
    14  C   -0.031401   0.123593   0.113070  -1.168178  -3.693059   0.298680
    15  C   -0.162672  -0.685532   0.325042  -3.278990  -2.580697   0.585425
    16  C   -0.354948  -0.373277  -0.134909   1.267836   0.774400   0.092602
    17  N    0.009764   0.029719   0.003011   0.000463   0.075767   0.006133
    18  S    0.001495  -0.006409   0.000002   0.089265   0.021660  -0.001342
    19  N   -0.100080  -0.201931   0.088464  -0.348199  -0.222350  -0.000687
    20  C   -0.038395  -1.373148   0.146048   0.866422   0.491249   0.030228
    21  C   -0.922093  -4.340407   1.280003  -4.122998  -4.200969  -0.033982
    22  C    0.812408  -4.749891   0.991227  -5.492684  -2.071393   0.011608
    23  C   -0.014132  -0.128679  -0.028250   0.116250   1.906395  -0.361236
    24  N    0.000082   0.001053  -0.000838  -0.020428  -0.260984   0.024290
    25  C   -0.000001  -0.002851  -0.001042  -0.025762   0.194290  -0.006013
    26  C    0.000012   0.002614   0.001950   0.024895  -0.235043   0.035010
    27  C    0.000675   0.004051  -0.009123  -0.031211   0.451895   0.123680
    28  N   -0.000002  -0.000204  -0.000038   0.001029  -0.009129  -0.005137
    29  S    0.000200  -0.000872  -0.002876  -0.034993  -0.075928  -0.000481
    30  N   -0.000097   0.000624  -0.000147  -0.015654   0.003470   0.007830
    31  C    0.006809   0.038051  -0.008893  -0.628015  -2.645695   0.135585
    32  H   -0.001102   0.004832   0.000352   0.010598   0.003686  -0.000005
    33  H    0.003332  -0.026339  -0.001135  -0.009523   0.007221   0.000019
    34  H   -0.201652  -0.246289  -0.003280  -0.015199   0.001264   0.000003
    35  H    0.151340   0.080673  -0.093202  -0.079487  -0.031005  -0.000030
    36  H   -0.001794   0.006518  -0.003930  -0.033746   0.027135   0.031235
    37  H   -0.000001  -0.000145   0.000075  -0.000514   0.010461  -0.000647
    38  H   -0.000000   0.000014  -0.000015   0.000090  -0.000196   0.000456
             13         14         15         16         17         18
     1  C   -0.008254  -0.012801  -0.121384   0.142774  -0.006219  -0.000099
     2  O    0.004212  -0.034284   0.162854  -0.253828  -0.151476  -0.010898
     3  C   -0.128238   0.042812  -0.248145   1.118779  -0.022297   0.014704
     4  C    0.010866   0.024364   0.241848  -0.390667  -0.021747  -0.038325
     5  C    0.019705   0.025463  -0.169005   0.411354  -0.020396  -0.006574
     6  C    0.003639   0.003141   0.051646  -0.103274  -0.002723  -0.001422
     7  C    0.113499  -0.031401  -0.162672  -0.354948   0.009764   0.001495
     8  C   -0.237834   0.123593  -0.685532  -0.373277   0.029719  -0.006409
     9  Se   0.022314   0.113070   0.325042  -0.134909   0.003011   0.000002
    10  C    0.865313  -1.168178  -3.278990   1.267836   0.000463   0.089265
    11  C   -0.341308  -3.693059  -2.580697   0.774400   0.075767   0.021660
    12  O   -0.872376   0.298680   0.585425   0.092602   0.006133  -0.001342
    13  C   22.879205  -3.821949  -6.427658  -2.392566  -0.186296  -0.190316
    14  C   -3.821949  14.258866   3.639899  -0.845887   0.114926  -0.303896
    15  C   -6.427658   3.639899  16.023635  -1.091800  -0.574204  -0.032318
    16  C   -2.392566  -0.845887  -1.091800  10.884609   0.532786  -0.064435
    17  N   -0.186296   0.114926  -0.574204   0.532786   7.617513  -0.339249
    18  S   -0.190316  -0.303896  -0.032318  -0.064435  -0.339249  16.928969
    19  N    0.045441   0.096940   0.344432   0.041569   0.172826  -0.068547
    20  C   -1.396184  -0.872817  -1.294238   0.326924  -0.079235   0.220762
    21  C    1.469965  -0.371892   0.597934  -1.794570   0.091397  -0.160837
    22  C    0.651884   0.087146   0.906571  -1.109365   0.014388  -0.027704
    23  C    5.698273  -3.834092  -0.512267  -0.327958  -0.006453  -0.108897
    24  N   -0.927539   0.588054  -0.021881   0.014190  -0.000061   0.006128
    25  C    0.195734  -0.863954   0.025456   0.008355  -0.002486   0.003955
    26  C   -2.214963   0.936397   0.002500   0.035058   0.001012   0.000201
    27  C   -3.292063  -1.837167  -0.086494   0.235216  -0.004260  -0.027171
    28  N    0.294984   0.016128  -0.018448  -0.006615   0.000015   0.000291
    29  S   -0.188084   0.057259   0.028694  -0.001567  -0.000103   0.000853
    30  N   -0.572492   0.121149   0.055223   0.003934   0.000540   0.001873
    31  C   -3.062200   2.637444  -0.729893   0.084216  -0.016540   0.021046
    32  H   -0.001018  -0.002043  -0.021684   0.025566   0.001487   0.002560
    33  H   -0.001327  -0.000417  -0.008534   0.011532   0.001154   0.000264
    34  H   -0.000110   0.000083   0.000562  -0.002759  -0.000097  -0.000043
    35  H   -0.000886   0.000481   0.008702   0.002284  -0.000166   0.000151
    36  H   -0.007418   0.168685  -0.109400  -0.136734   0.110776  -0.133722
    37  H    0.077608  -0.049486  -0.003310  -0.002204  -0.000123   0.000262
    38  H   -0.013826   0.002296   0.000769   0.000561   0.000014  -0.000223
             19         20         21         22         23         24
     1  C   -0.005985  -0.120723  -0.180858  -0.324047   0.001120  -0.000006
     2  O   -2.731381   0.819661  -0.164441   0.121557  -0.000063   0.000001
     3  C    0.527164   0.230012  -0.347088  -3.805079   0.009991  -0.000005
     4  C   -0.215414   0.635270   1.075760   5.723943   0.017171  -0.000231
     5  C    0.083603  -0.895955  -2.907063  -5.438869   0.005426  -0.000027
     6  C    0.004003   0.085002  -0.294105   0.471853  -0.000343   0.000003
     7  C   -0.100080  -0.038395  -0.922093   0.812408  -0.014132   0.000082
     8  C   -0.201931  -1.373148  -4.340407  -4.749891  -0.128679   0.001053
     9  Se   0.088464   0.146048   1.280003   0.991227  -0.028250  -0.000838
    10  C   -0.348199   0.866422  -4.122998  -5.492684   0.116250  -0.020428
    11  C   -0.222350   0.491249  -4.200969  -2.071393   1.906395  -0.260984
    12  O   -0.000687   0.030228  -0.033982   0.011608  -0.361236   0.024290
    13  C    0.045441  -1.396184   1.469965   0.651884   5.698273  -0.927539
    14  C    0.096940  -0.872817  -0.371892   0.087146  -3.834092   0.588054
    15  C    0.344432  -1.294238   0.597934   0.906571  -0.512267  -0.021881
    16  C    0.041569   0.326924  -1.794570  -1.109365  -0.327958   0.014190
    17  N    0.172826  -0.079235   0.091397   0.014388  -0.006453  -0.000061
    18  S   -0.068547   0.220762  -0.160837  -0.027704  -0.108897   0.006128
    19  N   11.550883  -1.061813   0.091662  -0.013907  -0.002842   0.000041
    20  C   -1.061813  10.255431  -0.515296  -0.573536   0.111879  -0.004652
    21  C    0.091662  -0.515296  16.613137   4.413860   0.045478  -0.007272
    22  C   -0.013907  -0.573536   4.413860  14.828377  -0.036270  -0.000691
    23  C   -0.002842   0.111879   0.045478  -0.036270  20.855637  -0.390934
    24  N    0.000041  -0.004652  -0.007272  -0.000691  -0.390934   7.086858
    25  C   -0.000138   0.008445   0.006497  -0.000603  -0.020149  -0.364991
    26  C    0.000079  -0.004728   0.002320   0.001116  -2.665371   0.456353
    27  C   -0.000443   0.025449   0.088190   0.006583  -2.002550  -0.268454
    28  N    0.000001  -0.000536  -0.001442  -0.000094   0.646155  -0.006278
    29  S    0.000054  -0.002051  -0.010942  -0.002147  -0.982148   0.051167
    30  N    0.000023   0.000575  -0.017995  -0.002692  -1.186465   0.036060
    31  C    0.002946  -0.127902  -0.154412  -0.026013  -9.718586   1.300071
    32  H    0.061864  -0.045905   0.001928  -0.025700   0.000004   0.000000
    33  H    0.135189  -0.064806   0.062418   0.017787  -0.000059  -0.000000
    34  H    0.000523   0.003584  -0.023337   0.112825   0.000001  -0.000000
    35  H    0.000788  -0.000218   0.187508   0.233972  -0.000423   0.000004
    36  H    0.007343   0.012969   0.003252  -0.006092   0.188351  -0.023246
    37  H   -0.000012   0.000206   0.000240   0.000014   0.056021  -0.144773
    38  H    0.000000   0.000008   0.000095   0.000007   0.032522   0.017135
             25         26         27         28         29         30
     1  C   -0.000001  -0.000000   0.000017  -0.000000  -0.000004   0.000002
     2  O   -0.000003   0.000001   0.000012  -0.000000   0.000001   0.000000
     3  C    0.000124  -0.000097  -0.000490   0.000003   0.000092   0.000159
     4  C    0.000153  -0.000042   0.002520  -0.000021  -0.000312  -0.000553
     5  C   -0.000008   0.000010   0.000218  -0.000001  -0.000068  -0.000072
     6  C    0.000007  -0.000007   0.000032   0.000000   0.000045  -0.000003
     7  C   -0.000001   0.000012   0.000675  -0.000002   0.000200  -0.000097
     8  C   -0.002851   0.002614   0.004051  -0.000204  -0.000872   0.000624
     9  Se  -0.001042   0.001950  -0.009123  -0.000038  -0.002876  -0.000147
    10  C   -0.025762   0.024895  -0.031211   0.001029  -0.034993  -0.015654
    11  C    0.194290  -0.235043   0.451895  -0.009129  -0.075928   0.003470
    12  O   -0.006013   0.035010   0.123680  -0.005137  -0.000481   0.007830
    13  C    0.195734  -2.214963  -3.292063   0.294984  -0.188084  -0.572492
    14  C   -0.863954   0.936397  -1.837167   0.016128   0.057259   0.121149
    15  C    0.025456   0.002500  -0.086494  -0.018448   0.028694   0.055223
    16  C    0.008355   0.035058   0.235216  -0.006615  -0.001567   0.003934
    17  N   -0.002486   0.001012  -0.004260   0.000015  -0.000103   0.000540
    18  S    0.003955   0.000201  -0.027171   0.000291   0.000853   0.001873
    19  N   -0.000138   0.000079  -0.000443   0.000001   0.000054   0.000023
    20  C    0.008445  -0.004728   0.025449  -0.000536  -0.002051   0.000575
    21  C    0.006497   0.002320   0.088190  -0.001442  -0.010942  -0.017995
    22  C   -0.000603   0.001116   0.006583  -0.000094  -0.002147  -0.002692
    23  C   -0.020149  -2.665371  -2.002550   0.646155  -0.982148  -1.186465
    24  N   -0.364991   0.456353  -0.268454  -0.006278   0.051167   0.036060
    25  C    8.311148  -2.582961   4.287108  -0.098641   0.099201   0.153060
    26  C   -2.582961  24.156700  -3.552417  -1.738016  -0.563552   0.923852
    27  C    4.287108  -3.552417  37.108862  -2.712053  -0.647363   3.454873
    28  N   -0.098641  -1.738016  -2.712053   8.298772  -0.077853  -0.809529
    29  S    0.099201  -0.563552  -0.647363  -0.077853  16.612407  -0.241775
    30  N    0.153060   0.923852   3.454873  -0.809529  -0.241775   8.376749
    31  C   -3.886763  -7.033404 -24.909804   3.592352   0.961730  -2.914924
    32  H   -0.000001   0.000001   0.000003  -0.000000  -0.000001  -0.000000
    33  H   -0.000001   0.000000  -0.000005   0.000000   0.000000   0.000001
    34  H    0.000000  -0.000000   0.000002  -0.000000   0.000000  -0.000000
    35  H    0.000007  -0.000005  -0.000031   0.000001   0.000009  -0.000004
    36  H    0.007208  -0.032061  -0.032730  -0.000622   0.003118  -0.004143
    37  H    0.626133  -0.535252   0.263936   0.000553  -0.000370  -0.001271
    38  H   -0.142038   0.684951  -0.143543  -0.030636  -0.018806   0.005556
             31         32         33         34         35         36
     1  C   -0.000357   0.414400  -0.060276   0.000688  -0.002757   0.001773
     2  O    0.000099  -0.110970  -0.183896  -0.000609  -0.000339   0.002171
     3  C   -0.002652  -0.001102   0.305517   0.015475   0.030255  -0.000110
     4  C   -0.003231  -0.029406   0.101917   0.047132   0.109184   0.010048
     5  C   -0.000559   0.003349  -0.062094  -0.141359  -0.185011   0.003471
     6  C    0.000721  -0.000390   0.016456   0.625431  -0.302712   0.000459
     7  C    0.006809  -0.001102   0.003332  -0.201652   0.151340  -0.001794
     8  C    0.038051   0.004832  -0.026339  -0.246289   0.080673   0.006518
     9  Se  -0.008893   0.000352  -0.001135  -0.003280  -0.093202  -0.003930
    10  C   -0.628015   0.010598  -0.009523  -0.015199  -0.079487  -0.033746
    11  C   -2.645695   0.003686   0.007221   0.001264  -0.031005   0.027135
    12  O    0.135585  -0.000005   0.000019   0.000003  -0.000030   0.031235
    13  C   -3.062200  -0.001018  -0.001327  -0.000110  -0.000886  -0.007418
    14  C    2.637444  -0.002043  -0.000417   0.000083   0.000481   0.168685
[...]
 ---------------------------------------------------------------------
                    Distance matrix (angstroms):
                    1          2          3          4          5
     1  C    0.000000
     2  O    1.418736   0.000000
     3  C    2.747733   1.361566   0.000000
     4  C    3.690075   2.302860   1.374864   0.000000
     5  C    4.981807   3.563277   2.308591   1.458980   0.000000
     6  C    6.112017   4.717051   3.594516   2.422155   1.409256
     7  C    6.249114   4.961491   4.124918   2.761968   2.436377
     8  C    5.293797   4.166814   3.691930   2.379839   2.849806
     9  Se   6.186586   5.370565   5.268402   4.100825   4.749295
    10  C    4.742370   4.267566   4.629520   3.855065   4.990626
    11  C    5.228519   5.119591   5.750453   5.164772   6.383664
    12  O    6.603474   6.495969   7.066269   6.366954   7.478603
    13  C    6.976770   7.135916   7.899228   7.375275   8.590556
    14  C    6.017441   6.404788   7.347965   7.055463   8.391697
    15  C    4.719954   4.994516   5.911940   5.642117   7.003413
    16  C    3.329568   3.802763   4.893841   4.917997   6.359794
    17  N    2.932295   3.872327   5.156579   5.516344   6.973604
    18  S    4.252881   5.384837   6.710778   7.143894   8.598936
    19  N    1.200991   1.780912   3.071198   3.588267   5.017853
    20  C    2.469303   2.509290   3.483068   3.486666   4.936730
    21  C    3.444294   2.846405   3.261219   2.698539   4.024846
    22  C    3.874204   2.766321   2.505458   1.456258   2.602778
    23  C    8.429517   8.589998   9.321906   8.732423   9.888123
    24  N    9.058259   9.338559  10.148896   9.638674  10.832958
    25  C   10.418448  10.699857  11.493442  10.944167  12.103841
    26  C   11.230992  11.423816  12.140313  11.495712  12.585395
    27  C   10.733661  10.813690  11.443102  10.723425  11.751887
    28  N   11.578331  11.571363  12.112813  11.316717  12.254109
    29  S   10.744949  10.615378  11.053037  10.202436  11.063273
    30  N    9.167989   9.076644   9.579496   8.790258   9.749931
    31  C    9.324845   9.371145   9.993678   9.287836  10.341130
    32  H    1.080245   2.438747   3.693718   4.737884   5.978787
    33  H    3.276892   2.107711   1.081390   2.198073   2.547617
    34  H    7.094166   5.682670   4.472298   3.426640   2.167553
    35  H    7.289234   6.027819   5.209665   3.846976   3.415500
    36  H    6.372620   6.959373   8.015041   7.860393   9.240599
    37  H   10.938305  11.297546  12.141393  11.652791  12.839535
    38  H   12.297556  12.502740  13.218308  12.562567  13.636055
                    6          7          8          9         10
     6  C    0.000000
     7  C    1.378682   0.000000
     8  C    2.435918   1.423377   0.000000
     9  Se   4.220295   2.944595   1.900848   0.000000
    10  C    4.991893   4.034162   2.625171   1.883680   0.000000
    11  C    6.432736   5.451319   4.055669   2.957049   1.440914
    12  O    7.331974   6.195660   4.896826   3.353176   2.512917
    13  C    8.569137   7.492349   6.149037   4.708241   3.611173
    14  C    8.596934   7.681867   6.271856   5.172946   3.648105
    15  C    7.296161   6.481795   5.058555   4.264920   2.503422
    16  C    6.915198   6.351229   4.968915   4.725339   2.843267
    17  N    7.729910   7.344903   6.023388   5.997367   4.129527
    18  S    9.364702   8.950379   7.604327   7.397733   5.514533
    19  N    5.938376   5.809964   4.666834   5.261787   3.668430
    20  C    5.576125   5.158596   3.855364   4.103642   2.399162
    21  C    4.386951   3.788660   2.433182   2.765918   1.425028
    22  C    2.926688   2.513807   1.421490   2.763613   2.423012
    23  C    9.749328   8.586981   7.313437   5.685938   4.901795
    24  N   10.746737   9.610625   8.323130   6.741606   5.873027
    25  C   11.945936  10.760889   9.518840   7.846679   7.137839
    26  C   12.315716  11.070391   9.897243   8.125798   7.641984
    27  C   11.416533  10.150450   9.026040   7.227212   6.896182
    28  N   11.816290  10.521985   9.499655   7.679241   7.582183
    29  S   10.582863   9.304505   8.350136   6.589074   6.649120
    30  N    9.387618   8.142744   7.056896   5.320256   5.122386
    31  C   10.059873   8.826350   7.654461   5.906265   5.467029
    32  H    7.155422   7.326654   6.365604   7.184856   5.642014
    33  H    3.952806   4.764426   4.577488   6.260003   5.707415
    34  H    1.087563   2.121931   3.410069   5.066524   6.015459
    35  H    2.138563   1.085188   2.171187   3.083435   4.564164
    36  H    9.535438   8.675207   7.256812   6.228929   4.646593
    37  H   12.728088  11.570686  10.315756   8.692329   7.910702
    38  H   13.333975  12.070671  10.925280   9.128560   8.707686
                   11         12         13         14         15
    11  C    0.000000
    12  O    1.385954   0.000000
    13  C    2.212852   1.376162   0.000000
    14  C    2.250671   2.262416   1.378637   0.000000
    15  C    1.395028   2.286197   2.266889   1.436633   0.000000
    16  C    2.411466   3.615281   3.703110   2.689384   1.441398
    17  N    3.727210   4.855798   4.717402   3.489347   2.582428
    18  S    4.797642   5.654105   5.116341   3.743142   3.440726
    19  N    4.040884   5.410091   5.782448   4.862177   3.533071
    20  C    2.764751   4.146242   4.647482   3.905392   2.486342
    21  C    2.509372   3.805151   4.701390   4.370437   2.980188
    22  C    3.786152   4.934375   5.997150   5.804224   4.440014
    23  C    3.583731   2.422114   1.459514   2.595714   3.711546
    24  N    4.517688   3.488590   2.380641   3.126223   4.405688
    25  C    5.812522   4.678324   3.656788   4.446701   5.754130
    26  C    6.390751   5.129139   4.289853   5.267026   6.513788
    27  C    5.748945   4.441785   3.844872   4.979187   6.065595
    28  N    6.573547   5.272503   4.893765   6.055749   7.025152
    29  S    5.837774   4.646631   4.609892   5.773086   6.468286
    30  N    4.214235   3.033591   3.025441   4.194869   4.829677
    31  C    4.320417   3.036404   2.535649   3.744964   4.699960
    32  H    5.945757   7.285792   7.488569   6.394609   5.226450
    33  H    6.828358   8.147454   8.967588   8.377846   6.945212
    34  H    7.454447   8.287906   9.557856   9.642815   8.361379
    35  H    5.903229   6.436588   7.787980   8.153682   7.065715
    36  H    3.287724   3.286417   2.180014   1.065998   2.246257
    37  H    6.571466   5.526491   4.450386   5.053837   6.386432
    38  H    7.468173   6.195910   5.367733   6.314601   7.583598
                   16         17         18         19         20
    16  C    0.000000
    17  N    1.334017   0.000000
    18  S    2.689668   1.635733   0.000000
    19  N    2.176676   2.093811   3.644099   0.000000
    20  C    1.442504   2.187489   3.807078   1.305179   0.000000
    21  C    2.568036   3.592422   5.172725   2.499859   1.450466
    22  C    3.990137   4.870539   6.494496   3.308375   2.687497
    23  C    5.136140   6.073284   6.257996   7.237646   6.106144
    24  N    5.749592   6.521841   6.451949   7.891001   6.846703
    25  C    7.101684   7.840868   7.659762   9.252089   8.204615
    26  C    7.913538   8.738301   8.642552  10.046780   8.936767
    27  C    7.484449   8.424205   8.528192   9.543770   8.377882
    28  N    8.421595   9.405911   9.585850  10.399374   9.210418
    29  S    7.789663   8.855211   9.255958   9.596150   8.392537
    30  N    6.165485   7.255812   7.724225   8.003720   6.793842
    31  C    6.117642   7.122813   7.385208   8.134500   6.952102
    32  H    3.786018   3.004715   3.969521   1.974669   3.270915
    33  H    5.859103   5.976361   7.459223   3.888005   4.484267
    34  H    8.002541   8.810259  10.445642   6.989236   6.661775
    35  H    7.116098   8.193906   9.768534   6.782867   6.025859
    36  H    3.156628   3.578240   3.344712   5.293103   4.532061
    37  H    7.658988   8.285574   7.952674   9.800216   8.819822
    38  H    8.975414   9.769081   9.600158  11.116220  10.013931
                   21         22         23         24         25
    21  C    0.000000
    22  C    1.474222   0.000000
    23  C    6.093023   7.321484   0.000000
    24  N    6.981797   8.258612   1.319920   0.000000
    25  C    8.300495   9.543702   2.336146   1.371835   0.000000
    26  C    8.895510  10.062290   2.834045   2.436977   1.370707
    27  C    8.197264   9.281979   2.489398   2.801861   2.372696
    28  N    8.908966   9.883114   3.679250   4.149870   3.664637
    29  S    7.952840   8.803616   3.796146   4.709150   4.677881
    30  N    6.418438   7.373398   2.494094   3.661896   4.083604
    31  C    6.753801   7.852608   1.439638   2.391626   2.736877
    32  H    4.421865   4.948015   8.913860   9.441442  10.785549
    33  H    4.342470   3.516498  10.395392  11.209487  12.558562
    34  H    5.469867   4.013383  10.691970  11.701008  12.869283
    35  H    4.602195   3.475800   8.747715   9.791992  10.858552
    36  H    5.222482   6.685890   2.990237   3.164613   4.377606
    37  H    9.009697  10.280911   3.273338   2.071553   1.084609
    38  H    9.971335  11.125291   3.913180   3.410812   2.148296
                   26         27         28         29         30
    26  C    0.000000
    27  C    1.420241   0.000000
    28  N    2.482434   1.355349   0.000000
    29  S    3.782435   2.378536   1.647948   0.000000
    30  N    3.664478   2.362418   2.572719   1.647309   0.000000
    31  C    2.477694   1.454929   2.359293   2.373049   1.350599
    32  H   11.660144  11.248111  12.142662  11.389003   9.806204
    33  H   13.216713  12.519753  13.180031  12.098264  10.639389
    34  H   13.192320  12.263426  12.599867  11.332833  10.219565
    35  H   11.065315  10.101380  10.372724   9.135685   8.111932
    36  H    5.308124   5.230177   6.368398   6.278958   4.806435
    37  H    2.132542   3.372390   4.591668   5.722198   5.167126
    38  H    1.080181   2.188443   2.802940   4.345544   4.546872
                   31         32         33         34         35
    31  C    0.000000
    32  H    9.876512   0.000000
    33  H   11.069195   4.033895   0.000000
    34  H   10.938715   8.116153   4.641368   0.000000
    35  H    8.853577   8.368213   5.826487   2.435586   0.000000
    36  H    4.184424   6.580893   9.005234  10.595269   9.184902
    37  H    3.818951  11.234571  13.192380  13.662112  11.694971
    38  H    3.471496  12.708910  14.295164  14.191537  12.023040
                   36         37         38
    36  H    0.000000
    37  H    4.826880   0.000000
    38  H    6.289814   2.487775   0.000000
 Stoichiometry    C21H7N5O2S2Se
 Framework group  C1[X(C21H7N5O2S2Se)]
 Deg. of freedom   108
 Full point group                 C1      NOp   1
 Largest Abelian subgroup         C1      NOp   1
 Largest concise Abelian subgroup C1      NOp   1
                         Standard orientation:                         
 ---------------------------------------------------------------------
 Center     Atomic      Atomic             Coordinates (Angstroms)
 Number     Number       Type             X           Y           Z
 ---------------------------------------------------------------------
      1          6           0        4.356767    2.733248    0.525499
      2          8           0        4.775733    1.386034    0.376188
      3          6           0        5.547192    0.265858    0.313579
      4          6           0        4.848801   -0.899114    0.100644
      5          6           0        5.786608   -2.015914    0.057078
      6          6           0        5.203630   -3.281777   -0.152033
      7          6           0        3.842352   -3.439262   -0.303312
      8          6           0        2.969548   -2.316064   -0.251906
      9         34           0        1.082054   -2.424300   -0.449080
     10          6           0        1.023666   -0.554055   -0.232224
     11          6           0       -0.174423    0.245929   -0.261253
     12          8           0       -1.459782   -0.237325   -0.448835
     13          6           0       -2.296604    0.854543   -0.411754
     14          6           0       -1.572371    2.008831   -0.202601
     15          6           0       -0.189780    1.631733   -0.101831
     16          6           0        1.086634    2.268341    0.105832
     17          7           0        1.538072    3.508853    0.298020
     18         16           0        0.711017    4.917967    0.375483
     19          7           0        3.250636    2.304855    0.337526
     20          6           0        2.278741    1.456774    0.138357
     21          6           0        2.313745    0.016566   -0.030253
     22          6           0        3.402262   -0.977490   -0.047918
     23          6           0       -3.725426    0.608992   -0.580147
     24          7           0       -4.391033    1.393731   -1.406790
     25          6           0       -5.752112    1.276088   -1.531514
     26          6           0       -6.535743    0.373657   -0.860412
     27          6           0       -5.866986   -0.499256    0.038404
     28          7           0       -6.431748   -1.460203    0.809505
     29         16           0       -5.164166   -2.123943    1.627073
     30          7           0       -3.880577   -1.254395    1.070375
     31          6           0       -4.424429   -0.386201    0.190271
     32          1           0        4.511574    3.798272    0.618699
     33          1           0        6.616593    0.361685    0.442436
     34          1           0        5.832439   -4.167952   -0.197705
     35          1           0        3.425418   -4.428300   -0.463316
     36          1           0       -1.976736    2.992491   -0.130112
     37          1           0       -6.201219    1.972955   -2.230841
     38          1           0       -7.604992    0.324537   -1.005620
 ---------------------------------------------------------------------
 Rotational constants (GHZ):      0.1843616      0.0717941      0.0541761
 Standard basis: 6-31++G(d,p) (6D, 7F)
 There are   654 symmetry adapted basis functions of A   symmetry.
 Integral buffers will be    131072 words long.
 Raffenetti 2 integral format.
 Two-electron integral symmetry is turned on.
   654 basis functions,  1151 primitive gaussians,   654 cartesian basis functions
   125 alpha electrons      125 beta electrons
       nuclear repulsion energy      3654.1783032496 Hartrees.
 NAtoms=   38 NActive=   38 NUniq=   38 SFac= 1.00D+00 NAtFMM=   60 NAOKFM=F Big=F
 One-electron integrals computed using PRISM.
 NBasis=   654 RedAO= T  NBF=   654
 NBsUse=   644 1.00D-06 NBFU=   644
 Initial guess read from the read-write file.
 B after Tr=    -0.000000    0.000000   -0.000000
         Rot=    1.000000   -0.000000   -0.000000    0.000000 Ang=   0.00 deg.
 Initial guess orbital symmetries:
       Occupied  (A) (A) (A) (A) (A) (A) (A) (A) (A) (A) (A) (A)
                 (A) (A) (A) (A) (A) (A) (A) (A) (A) (A) (A) (A)
                 (A) (A) (A) (A) (A) (A) (A) (A) (A) (A) (A) (A)
                 (A) (A) (A) (A) (A) (A) (A) (A) (A) (A) (A) (A)
                 (A) (A) (A) (A) (A) (A) (A) (A) (A) (A) (A) (A)
                 (A) (A) (A) (A) (A) (A) (A) (A) (A) (A) (A) (A)
                 (A) (A) (A) (A) (A) (A) (A) (A) (A) (A) (A) (A)
                 (A) (A) (A) (A) (A) (A) (A) (A) (A) (A) (A) (A)
                 (A) (A) (A) (A) (A) (A) (A) (A) (A) (A) (A) (A)
                 (A) (A) (A) (A) (A) (A) (A) (A) (A) (A) (A) (A)
                 (A) (A) (A) (A) (A)
       Virtual   (A) (A) (A) (A) (A) (A) (A) (A) (A) (A) (A) (A)
                 (A) (A) (A) (A) (A) (A) (A) (A) (A) (A) (A) (A)
                 (A) (A) (A) (A) (A) (A) (A) (A) (A) (A) (A) (A)
                 (A) (A) (A) (A) (A) (A) (A) (A) (A) (A) (A) (A)
                 (A) (A) (A) (A) (A) (A) (A) (A) (A) (A) (A) (A)
                 (A) (A) (A) (A) (A) (A) (A) (A) (A) (A) (A) (A)
                 (A) (A) (A) (A) (A) (A) (A) (A) (A) (A) (A) (A)
                 (A) (A) (A) (A) (A) (A) (A) (A) (A) (A) (A) (A)
                 (A) (A) (A) (A) (A) (A) (A) (A) (A) (A) (A) (A)
                 (A) (A) (A) (A) (A) (A) (A) (A) (A) (A) (A) (A)
                 (A) (A) (A) (A) (A) (A) (A) (A) (A) (A) (A) (A)
                 (A) (A) (A) (A) (A) (A) (A) (A) (A) (A) (A) (A)
                 (A) (A) (A) (A) (A) (A) (A) (A) (A) (A) (A) (A)
                 (A) (A) (A) (A) (A) (A) (A) (A) (A) (A) (A) (A)
                 (A) (A) (A) (A) (A) (A) (A) (A) (A) (A) (A) (A)
                 (A) (A) (A) (A) (A) (A) (A) (A) (A) (A) (A) (A)
                 (A) (A) (A) (A) (A) (A) (A) (A) (A) (A) (A) (A)
                 (A) (A) (A) (A) (A) (A) (A) (A) (A) (A) (A) (A)
                 (A) (A) (A) (A) (A) (A) (A) (A) (A) (A) (A) (A)
                 (A) (A) (A) (A) (A) (A) (A) (A) (A) (A) (A) (A)
                 (A) (A) (A) (A) (A) (A) (A) (A) (A) (A) (A) (A)
                 (A) (A) (A) (A) (A) (A) (A) (A) (A) (A) (A) (A)
                 (A) (A) (A) (A) (A) (A) (A) (A) (A) (A) (A) (A)
                 (A) (A) (A) (A) (A) (A) (A) (A) (A) (A) (A) (A)
                 (A) (A) (A) (A) (A) (A) (A) (A) (A) (A) (A) (A)
                 (A) (A) (A) (A) (A) (A) (A) (A) (A) (A) (A) (A)
                 (A) (A) (A) (A) (A) (A) (A) (A) (A) (A) (A) (A)
                 (A) (A) (A) (A) (A) (A) (A) (A) (A) (A) (A) (A)
                 (A) (A) (A) (A) (A) (A) (A) (A) (A) (A) (A) (A)
                 (A) (A) (A) (A) (A) (A) (A) (A) (A) (A) (A) (A)
                 (A) (A) (A) (A) (A) (A) (A) (A) (A) (A) (A) (A)
                 (A) (A) (A) (A) (A) (A) (A) (A) (A) (A) (A) (A)
                 (A) (A) (A) (A) (A) (A) (A) (A) (A) (A) (A) (A)
                 (A) (A) (A) (A) (A) (A) (A) (A) (A) (A) (A) (A)
                 (A) (A) (A) (A) (A) (A) (A) (A) (A) (A) (A) (A)
                 (A) (A) (A) (A) (A) (A) (A) (A) (A) (A) (A) (A)
                 (A) (A) (A) (A) (A) (A) (A) (A) (A) (A) (A) (A)
                 (A) (A) (A) (A) (A) (A) (A) (A) (A) (A) (A) (A)
                 (A) (A) (A) (A) (A) (A) (A) (A) (A) (A) (A) (A)
                 (A) (A) (A) (A) (A) (A) (A) (A) (A) (A) (A) (A)
                 (A) (A) (A) (A) (A) (A) (A) (A) (A) (A) (A) (A)
                 (A) (A) (A) (A) (A) (A) (A) (A) (A) (A) (A) (A)
                 (A) (A) (A) (A) (A) (A) (A) (A) (A) (A) (A) (A)
                 (A) (A) (A)
 Harris functional with IExCor=  402 diagonalized for initial guess.
 ExpMin= 3.00D-02 ExpMax= 5.61D+05 ExpMxC= 5.42D+03 IAcc=3 IRadAn=         5 AccDes= 0.00D+00
 HarFok:  IExCor=  402 AccDes= 0.00D+00 IRadAn=         5 IDoV= 1
 ScaDFX=  1.000000  1.000000  1.000000  1.000000
 FoFCou: FMM=F IPFlag=           0 FMFlag=      100000 FMFlg1=           0
         NFxFlg=           0 DoJE=T BraDBF=F KetDBF=T FulRan=T
         Omega=  0.000000  0.000000  1.000000  0.000000  0.000000 ICntrl=     500 IOpCl=  0
         NMat0=    1 NMatS0=    1 NMatT0=    0 NMatD0=    1 NMtDS0=    0 NMtDT0=    0
         I1Cent=           4 NGrid=           0.
 Petite list used in FoFCou.
 Requested convergence on RMS density matrix=1.00D-08 within 128 cycles.
 Requested convergence on MAX density matrix=1.00D-06.
 Requested convergence on             energy=1.00D-06.
 No special actions if energy rises.
 Restarting incremental Fock formation.
 Restarting incremental Fock formation.
 Restarting incremental Fock formation.
 Restarting incremental Fock formation.
 Restarting incremental Fock formation.
 Restarting incremental Fock formation.
 >>>>>>>>>> Convergence criterion not met.
 SCF Done:  E(RB3LYP) =  -4424.04921298     A.U. after  129 cycles
             Convg  =    0.9584D-05             -V/T =  2.0055
 Convergence failure -- run terminated.
 Error termination via Lnk1e in /opt/gaussian/g09/l502.exe at Sun Dec 29 14:41:34 2013.
 Job cpu time:  2 days  4 hours 52 minutes 51.2 seconds.
 File lengths (MBytes):  RWF=    259 Int=      0 D2E=      0 Chk=     28 Scr=      1
