 Entering Gaussian System, Link 0=g09
 Initial command:
 /opt/gaussian/g09/l1.exe /panfs/panfs.cluster/home/shuo/Gau-31584.inp -scrdir=/panfs/panfs.cluster/home/shuo/
 Default is to use a total of  12 processors:
                               12 via shared-memory
                                1 via Linda
 Entering Link 1 = /opt/gaussian/g09/l1.exe PID=     31585.
  
 Copyright (c) 1988,1990,1992,1993,1995,1998,2003,2009,2011,
            Gaussian, Inc.  All Rights Reserved.
  
 This is part of the Gaussian(R) 09 program.  It is based on
 the Gaussian(R) 03 system (copyright 2003, Gaussian, Inc.),
 the Gaussian(R) 98 system (copyright 1998, Gaussian, Inc.),
 the Gaussian(R) 94 system (copyright 1995, Gaussian, Inc.),
 the Gaussian 92(TM) system (copyright 1992, Gaussian, Inc.),
 the Gaussian 90(TM) system (copyright 1990, Gaussian, Inc.),
 the Gaussian 88(TM) system (copyright 1988, Gaussian, Inc.),
 the Gaussian 86(TM) system (copyright 1986, Carnegie Mellon
 University), and the Gaussian 82(TM) system (copyright 1983,
 Carnegie Mellon University). Gaussian is a federally registered
 trademark of Gaussian, Inc.
  
 This software contains proprietary and confidential information,
 including trade secrets, belonging to Gaussian, Inc.
  
 This software is provided under written license and may be
 used, copied, transmitted, or stored only in accord with that
 written license.
  
 The following legend is applicable only to US Government
 contracts under FAR:
  
                    RESTRICTED RIGHTS LEGEND
  
 Use, reproduction and disclosure by the US Government is
 subject to restrictions as set forth in subparagraphs (a)
 and (c) of the Commercial Computer Software - Restricted
 Rights clause in FAR 52.227-19.
  
 Gaussian, Inc.
 340 Quinnipiac St., Bldg. 40, Wallingford CT 06492
  
  
 ---------------------------------------------------------------
 Warning -- This program may not be used in any manner that
 competes with the business of Gaussian, Inc. or will provide
 assistance to any competitor of Gaussian, Inc.  The licensee
 of this program is prohibited from giving any competitor of
 Gaussian, Inc. access to this program.  By using this program,
 the user acknowledges that Gaussian, Inc. is engaged in the
 business of creating and licensing software in the field of
 computational chemistry and represents and warrants to the
 licensee that it is not a competitor of Gaussian, Inc. and that
 it will not use this program in any manner prohibited above.
 ---------------------------------------------------------------
  

 Cite this work as:
 Gaussian 09, Revision C.01,
 M. J. Frisch, G. W. Trucks, H. B. Schlegel, G. E. Scuseria, 
 M. A. Robb, J. R. Cheeseman, G. Scalmani, V. Barone, B. Mennucci, 
 G. A. Petersson, H. Nakatsuji, M. Caricato, X. Li, H. P. Hratchian, 
 A. F. Izmaylov, J. Bloino, G. Zheng, J. L. Sonnenberg, M. Hada, 
 M. Ehara, K. Toyota, R. Fukuda, J. Hasegawa, M. Ishida, T. Nakajima, 
 Y. Honda, O. Kitao, H. Nakai, T. Vreven, J. A. Montgomery, Jr., 
 J. E. Peralta, F. Ogliaro, M. Bearpark, J. J. Heyd, E. Brothers, 
 K. N. Kudin, V. N. Staroverov, T. Keith, R. Kobayashi, J. Normand, 
 K. Raghavachari, A. Rendell, J. C. Burant, S. S. Iyengar, J. Tomasi, 
 M. Cossi, N. Rega, J. M. Millam, M. Klene, J. E. Knox, J. B. Cross, 
 V. Bakken, C. Adamo, J. Jaramillo, R. Gomperts, R. E. Stratmann, 
 O. Yazyev, A. J. Austin, R. Cammi, C. Pomelli, J. W. Ochterski, 
 R. L. Martin, K. Morokuma, V. G. Zakrzewski, G. A. Voth, 
 P. Salvador, J. J. Dannenberg, S. Dapprich, A. D. Daniels, 
 O. Farkas, J. B. Foresman, J. V. Ortiz, J. Cioslowski, 
 and D. J. Fox, Gaussian, Inc., Wallingford CT, 2010.
 
 ******************************************
 Gaussian 09:  EM64L-G09RevC.01 23-Sep-2011
                30-Dec-2013 
 ******************************************
 %chk=94_C20H9N5OSSe.chk
 %NProcShared=12
 Will use up to   12 processors via shared memory.
 %Mem=8000MB
 Default route:  MaxDisk=100GB
 --------------------------------------------
 #B3LYP/6-31++G(d,p) opt scf=direct freq test
 --------------------------------------------
 1/14=-1,18=20,19=15,26=3,38=1/1,3;
 2/9=110,12=2,17=6,18=5,40=1/2;
 3/5=1,6=6,7=1111,11=2,16=1,25=1,30=1,71=1,74=-5/1,2,3;
 4//1;
 5/5=2,38=5/2;
 6/7=2,8=2,9=2,10=2,28=1/1;
 7//1,2,3,16;
 1/14=-1,18=20,19=15/3(2);
 2/9=110/2;
 99//99;
 2/9=110/2;
 3/5=1,6=6,7=1111,11=2,16=1,25=1,30=1,71=1,74=-5/1,2,3;
 4/5=5,16=3/1;
 5/5=2,38=5/2;
 7//1,2,3,16;
 1/14=-1,18=20,19=15/3(-5);
 2/9=110/2;
 6/7=2,8=2,9=2,10=2,19=2,28=1/1;
 99/9=1/99;
 ----------------------------------------------------------------------
 Geom opt of No.94 candidate from the CEPDB database with SMILE code of
  [SiH2]1cccc1-c1sc(-c2ccc(cn2)-c2cncc3nsnc23)c2nccnc12, HPC, 20131227,
  Shuo Dai, Gaussian09
 ----------------------------------------------------------------------
 Charge =  0 Multiplicity = 1
 Symbolic Z-Matrix:
 Si                    0.37538   1.63789  -0.17325 
 H                     0.48417   2.34444   1.12574 
 H                     0.16004   2.28464  -1.49328 
 C                     1.50569   0.17477  -0.19505 
 C                     0.83126  -0.98498  -0.2246 
 C                    -0.62561  -0.85745  -0.1641 
 C                    -1.04922   0.41541   0.05524 
 C                    -2.04599   0.77081   1.00788 
 S                    -2.99293  -0.4572    1.70442 
 C                    -3.2637    0.45861   3.13016 
 C                    -3.78575  -0.27753   4.25393 
 C                    -3.46522  -1.6104    4.38267 
 C                    -4.26798  -2.37937   5.17505 
 C                    -5.26082  -1.80524   5.96329 
 C                    -5.37125  -0.41453   5.88238 
 N                    -4.69459   0.35497   5.00898 
 C                    -6.09044  -2.62685   6.83659 
 C                    -7.0684   -2.11783   7.70344 
 N                    -7.84128  -2.80801   8.59548 
 C                    -7.71697  -4.15741   8.7168 
 C                    -6.80292  -4.8262    7.88911 
 N                    -6.56372  -6.14803   7.87124 
 S                    -5.41267  -6.41044   6.71484 
 N                    -5.18356  -4.86749   6.2044 
 C                    -5.97991  -4.04981   6.91992 
 C                    -3.02342   1.77603   2.91117 
 N                    -3.30504   2.78398   3.79495 
 C                    -2.88791   3.98235   3.33018 
 C                    -2.20888   4.17591   2.12688 
 N                    -1.91056   3.19796   1.22965 
 C                    -2.34676   1.97521   1.65031 
 H                     2.56056   0.33089  -0.0528 
 H                     1.30739  -1.94992  -0.08631 
 H                    -1.19193  -1.76178   0.04201 
 H                    -2.69619  -2.11023   3.80427 
 H                    -4.06399  -3.43528   5.10394 
 H                    -6.02439   0.17271   6.51913 
 H                    -7.28593  -1.04914   7.72379 
 H                    -8.33344  -4.6584    9.44496 
 H                    -3.12225   4.82898   3.96956 
 H                    -1.86504   5.16637   1.84922 
 

 GradGradGradGradGradGradGradGradGradGradGradGradGradGradGradGradGradGrad
 Berny optimization.
 Initialization pass.
                           ----------------------------
                           !    Initial Parameters    !
                           ! (Angstroms and Degrees)  !
 --------------------------                            --------------------------
 ! Name  Definition              Value          Derivative Info.                !
 --------------------------------------------------------------------------------
 ! R1    R(1,2)                  1.4827         estimate D2E/DX2                !
 ! R2    R(1,3)                  1.4856         estimate D2E/DX2                !
 ! R3    R(1,4)                  1.849          estimate D2E/DX2                !
 ! R4    R(1,7)                  1.8911         estimate D2E/DX2                !
 ! R5    R(4,5)                  1.3419         estimate D2E/DX2                !
 ! R6    R(4,32)                 1.0758         estimate D2E/DX2                !
 ! R7    R(5,6)                  1.4637         estimate D2E/DX2                !
 ! R8    R(5,33)                 1.0849         estimate D2E/DX2                !
 ! R9    R(6,7)                  1.3593         estimate D2E/DX2                !
 ! R10   R(6,34)                 1.0867         estimate D2E/DX2                !
 ! R11   R(7,8)                  1.4239         estimate D2E/DX2                !
 ! R12   R(8,9)                  1.7            estimate D2E/DX2                !
 ! R13   R(8,31)                 1.3978         estimate D2E/DX2                !
 ! R14   R(9,10)                 1.716          estimate D2E/DX2                !
 ! R15   R(10,11)                1.4413         estimate D2E/DX2                !
 ! R16   R(10,26)                1.3569         estimate D2E/DX2                !
 ! R17   R(11,12)                1.3769         estimate D2E/DX2                !
 ! R18   R(11,16)                1.3402         estimate D2E/DX2                !
 ! R19   R(12,13)                1.3651         estimate D2E/DX2                !
 ! R20   R(12,35)                1.0843         estimate D2E/DX2                !
 ! R21   R(13,14)                1.3916         estimate D2E/DX2                !
 ! R22   R(13,36)                1.0778         estimate D2E/DX2                !
 ! R23   R(14,15)                1.3974         estimate D2E/DX2                !
 ! R24   R(14,17)                1.4581         estimate D2E/DX2                !
 ! R25   R(15,16)                1.3464         estimate D2E/DX2                !
 ! R26   R(15,37)                1.0848         estimate D2E/DX2                !
 ! R27   R(17,18)                1.4025         estimate D2E/DX2                !
 ! R28   R(17,25)                1.4297         estimate D2E/DX2                !
 ! R29   R(18,19)                1.3673         estimate D2E/DX2                !
 ! R30   R(18,38)                1.0908         estimate D2E/DX2                !
 ! R31   R(19,20)                1.3605         estimate D2E/DX2                !
 ! R32   R(20,21)                1.4028         estimate D2E/DX2                !
 ! R33   R(20,39)                1.0776         estimate D2E/DX2                !
 ! R34   R(21,22)                1.3434         estimate D2E/DX2                !
 ! R35   R(21,25)                1.4898         estimate D2E/DX2                !
 ! R36   R(22,23)                1.6526         estimate D2E/DX2                !
 ! R37   R(23,24)                1.6413         estimate D2E/DX2                !
 ! R38   R(24,25)                1.3471         estimate D2E/DX2                !
 ! R39   R(26,27)                1.3698         estimate D2E/DX2                !
 ! R40   R(26,31)                1.4448         estimate D2E/DX2                !
 ! R41   R(27,28)                1.3513         estimate D2E/DX2                !
 ! R42   R(28,29)                1.3952         estimate D2E/DX2                !
 ! R43   R(28,40)                1.0865         estimate D2E/DX2                !
 ! R44   R(29,30)                1.3603         estimate D2E/DX2                !
 ! R45   R(29,41)                1.0846         estimate D2E/DX2                !
 ! R46   R(30,31)                1.3647         estimate D2E/DX2                !
 ! A1    A(2,1,3)              125.5643         estimate D2E/DX2                !
 ! A2    A(2,1,4)              110.0325         estimate D2E/DX2                !
 ! A3    A(2,1,7)              104.9199         estimate D2E/DX2                !
 ! A4    A(3,1,4)              114.9997         estimate D2E/DX2                !
 ! A5    A(3,1,7)              106.2354         estimate D2E/DX2                !
 ! A6    A(4,1,7)               87.1572         estimate D2E/DX2                !
 ! A7    A(1,4,5)              112.1422         estimate D2E/DX2                !
 ! A8    A(1,4,32)             118.8828         estimate D2E/DX2                !
 ! A9    A(5,4,32)             128.3991         estimate D2E/DX2                !
 ! A10   A(4,5,6)              115.0894         estimate D2E/DX2                !
 ! A11   A(4,5,33)             123.0469         estimate D2E/DX2                !
 ! A12   A(6,5,33)             120.6017         estimate D2E/DX2                !
 ! A13   A(5,6,7)              113.4807         estimate D2E/DX2                !
 ! A14   A(5,6,34)             117.0021         estimate D2E/DX2                !
 ! A15   A(7,6,34)             125.8892         estimate D2E/DX2                !
 ! A16   A(1,7,6)              110.553          estimate D2E/DX2                !
 ! A17   A(1,7,8)              116.5417         estimate D2E/DX2                !
 ! A18   A(6,7,8)              124.0452         estimate D2E/DX2                !
 ! A19   A(7,8,9)              118.9327         estimate D2E/DX2                !
 ! A20   A(7,8,31)             132.3155         estimate D2E/DX2                !
 ! A21   A(9,8,31)             108.316          estimate D2E/DX2                !
 ! A22   A(8,9,10)              92.4532         estimate D2E/DX2                !
 ! A23   A(9,10,11)            115.6186         estimate D2E/DX2                !
 ! A24   A(9,10,26)            110.8616         estimate D2E/DX2                !
 ! A25   A(11,10,26)           133.3024         estimate D2E/DX2                !
 ! A26   A(10,11,12)           118.8817         estimate D2E/DX2                !
 ! A27   A(10,11,16)           116.35           estimate D2E/DX2                !
 ! A28   A(12,11,16)           124.1969         estimate D2E/DX2                !
 ! A29   A(11,12,13)           117.5587         estimate D2E/DX2                !
 ! A30   A(11,12,35)           124.1554         estimate D2E/DX2                !
 ! A31   A(13,12,35)           117.8406         estimate D2E/DX2                !
 ! A32   A(12,13,14)           121.0579         estimate D2E/DX2                !
 ! A33   A(12,13,36)           113.7199         estimate D2E/DX2                !
 ! A34   A(14,13,36)           125.2105         estimate D2E/DX2                !
 ! A35   A(13,14,15)           115.7314         estimate D2E/DX2                !
 ! A36   A(13,14,17)           120.8442         estimate D2E/DX2                !
 ! A37   A(15,14,17)           123.4011         estimate D2E/DX2                !
 ! A38   A(14,15,16)           124.5144         estimate D2E/DX2                !
 ! A39   A(14,15,37)           123.525          estimate D2E/DX2                !
 ! A40   A(16,15,37)           111.9594         estimate D2E/DX2                !
 ! A41   A(11,16,15)           115.8835         estimate D2E/DX2                !
 ! A42   A(14,17,18)           124.2248         estimate D2E/DX2                !
 ! A43   A(14,17,25)           123.4882         estimate D2E/DX2                !
 ! A44   A(18,17,25)           112.2794         estimate D2E/DX2                !
 ! A45   A(17,18,19)           127.8949         estimate D2E/DX2                !
 ! A46   A(17,18,38)           120.4097         estimate D2E/DX2                !
 ! A47   A(19,18,38)           111.6945         estimate D2E/DX2                !
 ! A48   A(18,19,20)           120.4765         estimate D2E/DX2                !
 ! A49   A(19,20,21)           118.6707         estimate D2E/DX2                !
 ! A50   A(19,20,39)           117.9752         estimate D2E/DX2                !
 ! A51   A(21,20,39)           123.3534         estimate D2E/DX2                !
 ! A52   A(20,21,22)           126.3674         estimate D2E/DX2                !
 ! A53   A(20,21,25)           119.693          estimate D2E/DX2                !
 ! A54   A(22,21,25)           113.9382         estimate D2E/DX2                !
 ! A55   A(21,22,23)           106.8317         estimate D2E/DX2                !
 ! A56   A(22,23,24)            99.5309         estimate D2E/DX2                !
 ! A57   A(23,24,25)           108.8393         estimate D2E/DX2                !
 ! A58   A(17,25,21)           120.9242         estimate D2E/DX2                !
 ! A59   A(17,25,24)           128.234          estimate D2E/DX2                !
 ! A60   A(21,25,24)           110.8418         estimate D2E/DX2                !
 ! A61   A(10,26,27)           125.0212         estimate D2E/DX2                !
 ! A62   A(10,26,31)           110.9545         estimate D2E/DX2                !
 ! A63   A(27,26,31)           123.9117         estimate D2E/DX2                !
 ! A64   A(26,27,28)           111.5419         estimate D2E/DX2                !
 ! A65   A(27,28,29)           124.7436         estimate D2E/DX2                !
 ! A66   A(27,28,40)           114.9637         estimate D2E/DX2                !
 ! A67   A(29,28,40)           120.2923         estimate D2E/DX2                !
 ! A68   A(28,29,30)           125.1609         estimate D2E/DX2                !
 ! A69   A(28,29,41)           120.1186         estimate D2E/DX2                !
 ! A70   A(30,29,41)           114.7178         estimate D2E/DX2                !
 ! A71   A(29,30,31)           111.7614         estimate D2E/DX2                !
 ! A72   A(8,31,26)            112.5258         estimate D2E/DX2                !
 ! A73   A(8,31,30)            124.166          estimate D2E/DX2                !
 ! A74   A(26,31,30)           122.8366         estimate D2E/DX2                !
 ! D1    D(2,1,4,5)            112.9196         estimate D2E/DX2                !
 ! D2    D(2,1,4,32)           -59.1045         estimate D2E/DX2                !
 ! D3    D(3,1,4,5)            -98.5313         estimate D2E/DX2                !
 ! D4    D(3,1,4,32)            89.4446         estimate D2E/DX2                !
 ! D5    D(7,1,4,5)              8.07           estimate D2E/DX2                !
 ! D6    D(7,1,4,32)          -163.9541         estimate D2E/DX2                !
 ! D7    D(2,1,7,6)           -121.6178         estimate D2E/DX2                !
 ! D8    D(2,1,7,8)             27.2107         estimate D2E/DX2                !
 ! D9    D(3,1,7,6)            103.5931         estimate D2E/DX2                !
 ! D10   D(3,1,7,8)           -107.5785         estimate D2E/DX2                !
 ! D11   D(4,1,7,6)            -11.6366         estimate D2E/DX2                !
 ! D12   D(4,1,7,8)            137.1918         estimate D2E/DX2                !
 ! D13   D(1,4,5,6)             -2.9922         estimate D2E/DX2                !
 ! D14   D(1,4,5,33)          -170.2031         estimate D2E/DX2                !
 ! D15   D(32,4,5,6)           168.0893         estimate D2E/DX2                !
 ! D16   D(32,4,5,33)            0.8784         estimate D2E/DX2                !
 ! D17   D(4,5,6,7)             -6.5922         estimate D2E/DX2                !
 ! D18   D(4,5,6,34)          -166.4277         estimate D2E/DX2                !
 ! D19   D(33,5,6,7)           160.9585         estimate D2E/DX2                !
 ! D20   D(33,5,6,34)            1.123          estimate D2E/DX2                !
 ! D21   D(5,6,7,1)             12.5263         estimate D2E/DX2                !
 ! D22   D(5,6,7,8)           -133.4982         estimate D2E/DX2                !
 ! D23   D(34,6,7,1)           170.2475         estimate D2E/DX2                !
 ! D24   D(34,6,7,8)            24.223          estimate D2E/DX2                !
 ! D25   D(1,7,8,9)           -156.8559         estimate D2E/DX2                !
 ! D26   D(1,7,8,31)            14.5821         estimate D2E/DX2                !
 ! D27   D(6,7,8,9)            -12.6527         estimate D2E/DX2                !
 ! D28   D(6,7,8,31)           158.7853         estimate D2E/DX2                !
 ! D29   D(7,8,9,10)           152.9639         estimate D2E/DX2                !
 ! D30   D(31,8,9,10)          -20.3769         estimate D2E/DX2                !
 ! D31   D(7,8,31,26)         -155.0812         estimate D2E/DX2                !
 ! D32   D(7,8,31,30)           17.2148         estimate D2E/DX2                !
 ! D33   D(9,8,31,26)           17.03           estimate D2E/DX2                !
 ! D34   D(9,8,31,30)         -170.6741         estimate D2E/DX2                !
 ! D35   D(8,9,10,11)         -165.3775         estimate D2E/DX2                !
 ! D36   D(8,9,10,26)           19.2589         estimate D2E/DX2                !
 ! D37   D(9,10,11,12)          29.8923         estimate D2E/DX2                !
 ! D38   D(9,10,11,16)        -141.8068         estimate D2E/DX2                !
 ! D39   D(26,10,11,12)       -156.0652         estimate D2E/DX2                !
 ! D40   D(26,10,11,16)         32.2358         estimate D2E/DX2                !
 ! D41   D(9,10,26,27)         171.4891         estimate D2E/DX2                !
 ! D42   D(9,10,26,31)         -12.2526         estimate D2E/DX2                !
 ! D43   D(11,10,26,27)         -2.7629         estimate D2E/DX2                !
 ! D44   D(11,10,26,31)        173.4953         estimate D2E/DX2                !
 ! D45   D(10,11,12,13)       -160.0754         estimate D2E/DX2                !
 ! D46   D(10,11,12,35)         12.0844         estimate D2E/DX2                !
 ! D47   D(16,11,12,13)         10.9257         estimate D2E/DX2                !
 ! D48   D(16,11,12,35)       -176.9144         estimate D2E/DX2                !
 ! D49   D(10,11,16,15)        167.1327         estimate D2E/DX2                !
 ! D50   D(12,11,16,15)         -4.0757         estimate D2E/DX2                !
 ! D51   D(11,12,13,14)         -8.4682         estimate D2E/DX2                !
 ! D52   D(11,12,13,36)        170.3485         estimate D2E/DX2                !
 ! D53   D(35,12,13,14)        178.8661         estimate D2E/DX2                !
 ! D54   D(35,12,13,36)         -2.3172         estimate D2E/DX2                !
 ! D55   D(12,13,14,15)          0.0602         estimate D2E/DX2                !
 ! D56   D(12,13,14,17)       -178.2428         estimate D2E/DX2                !
 ! D57   D(36,13,14,15)       -178.6139         estimate D2E/DX2                !
 ! D58   D(36,13,14,17)          3.0832         estimate D2E/DX2                !
 ! D59   D(13,14,15,16)          7.3482         estimate D2E/DX2                !
 ! D60   D(13,14,15,37)       -173.0836         estimate D2E/DX2                !
 ! D61   D(17,14,15,16)       -174.3971         estimate D2E/DX2                !
 ! D62   D(17,14,15,37)          5.1712         estimate D2E/DX2                !
 ! D63   D(13,14,17,18)        177.0267         estimate D2E/DX2                !
 ! D64   D(13,14,17,25)         -1.8919         estimate D2E/DX2                !
 ! D65   D(15,14,17,18)         -1.1421         estimate D2E/DX2                !
 ! D66   D(15,14,17,25)        179.9393         estimate D2E/DX2                !
 ! D67   D(14,15,16,11)         -5.4335         estimate D2E/DX2                !
 ! D68   D(37,15,16,11)        174.9545         estimate D2E/DX2                !
 ! D69   D(14,17,18,19)       -176.6585         estimate D2E/DX2                !
 ! D70   D(14,17,18,38)          2.9738         estimate D2E/DX2                !
 ! D71   D(25,17,18,19)          2.3669         estimate D2E/DX2                !
 ! D72   D(25,17,18,38)       -178.0008         estimate D2E/DX2                !
 ! D73   D(14,17,25,21)        176.4607         estimate D2E/DX2                !
 ! D74   D(14,17,25,24)         -3.4292         estimate D2E/DX2                !
 ! D75   D(18,17,25,21)         -2.573          estimate D2E/DX2                !
 ! D76   D(18,17,25,24)        177.5371         estimate D2E/DX2                !
 ! D77   D(17,18,19,20)         -0.41           estimate D2E/DX2                !
 ! D78   D(38,18,19,20)        179.9313         estimate D2E/DX2                !
 ! D79   D(18,19,20,21)         -1.3759         estimate D2E/DX2                !
 ! D80   D(18,19,20,39)        178.9139         estimate D2E/DX2                !
 ! D81   D(19,20,21,22)       -179.4758         estimate D2E/DX2                !
 ! D82   D(19,20,21,25)          0.9815         estimate D2E/DX2                !
 ! D83   D(39,20,21,22)          0.2179         estimate D2E/DX2                !
 ! D84   D(39,20,21,25)       -179.3248         estimate D2E/DX2                !
 ! D85   D(20,21,22,23)        179.6589         estimate D2E/DX2                !
 ! D86   D(25,21,22,23)         -0.7757         estimate D2E/DX2                !
 ! D87   D(20,21,25,17)          1.1219         estimate D2E/DX2                !
 ! D88   D(20,21,25,24)       -178.9707         estimate D2E/DX2                !
 ! D89   D(22,21,25,17)       -178.4753         estimate D2E/DX2                !
 ! D90   D(22,21,25,24)          1.4322         estimate D2E/DX2                !
 ! D91   D(21,22,23,24)         -0.0066         estimate D2E/DX2                !
 ! D92   D(22,23,24,25)          0.8401         estimate D2E/DX2                !
 ! D93   D(23,24,25,17)        178.5616         estimate D2E/DX2                !
 ! D94   D(23,24,25,21)         -1.3374         estimate D2E/DX2                !
 ! D95   D(10,26,27,28)        176.639          estimate D2E/DX2                !
 ! D96   D(31,26,27,28)          0.8503         estimate D2E/DX2                !
 ! D97   D(10,26,31,8)          -3.1758         estimate D2E/DX2                !
 ! D98   D(10,26,31,30)       -175.5899         estimate D2E/DX2                !
 ! D99   D(27,26,31,8)         173.1319         estimate D2E/DX2                !
 ! D100  D(27,26,31,30)          0.7178         estimate D2E/DX2                !
 ! D101  D(26,27,28,29)         -2.3002         estimate D2E/DX2                !
 ! D102  D(26,27,28,40)        177.4769         estimate D2E/DX2                !
 ! D103  D(27,28,29,30)          2.3981         estimate D2E/DX2                !
 ! D104  D(27,28,29,41)       -176.9709         estimate D2E/DX2                !
 ! D105  D(40,28,29,30)       -177.3678         estimate D2E/DX2                !
 ! D106  D(40,28,29,41)          3.2632         estimate D2E/DX2                !
 ! D107  D(28,29,30,31)         -0.6002         estimate D2E/DX2                !
 ! D108  D(41,29,30,31)        178.799          estimate D2E/DX2                !
 ! D109  D(29,30,31,8)        -172.347          estimate D2E/DX2                !
 ! D110  D(29,30,31,26)         -0.8219         estimate D2E/DX2                !
 --------------------------------------------------------------------------------
 Trust Radius=3.00D-01 FncErr=1.00D-07 GrdErr=1.00D-06
 Number of steps in this run=    240 maximum allowed number of steps=    246.
 GradGradGradGradGradGradGradGradGradGradGradGradGradGradGradGradGradGrad

                          Input orientation:                          
 ---------------------------------------------------------------------
 Center     Atomic      Atomic             Coordinates (Angstroms)
 Number     Number       Type             X           Y           Z
 ---------------------------------------------------------------------
      1         14           0        0.375380    1.637890   -0.173250
      2          1           0        0.484170    2.344440    1.125740
      3          1           0        0.160040    2.284640   -1.493280
      4          6           0        1.505690    0.174770   -0.195050
      5          6           0        0.831260   -0.984980   -0.224600
      6          6           0       -0.625610   -0.857450   -0.164100
      7          6           0       -1.049220    0.415410    0.055240
      8          6           0       -2.045990    0.770810    1.007880
      9         16           0       -2.992930   -0.457200    1.704420
     10          6           0       -3.263700    0.458610    3.130160
     11          6           0       -3.785750   -0.277530    4.253930
     12          6           0       -3.465220   -1.610400    4.382670
     13          6           0       -4.267980   -2.379370    5.175050
     14          6           0       -5.260820   -1.805240    5.963290
     15          6           0       -5.371250   -0.414530    5.882380
     16          7           0       -4.694590    0.354970    5.008980
     17          6           0       -6.090440   -2.626850    6.836590
     18          6           0       -7.068400   -2.117830    7.703440
     19          7           0       -7.841280   -2.808010    8.595480
     20          6           0       -7.716970   -4.157410    8.716800
     21          6           0       -6.802920   -4.826200    7.889110
     22          7           0       -6.563720   -6.148030    7.871240
     23         16           0       -5.412670   -6.410440    6.714840
     24          7           0       -5.183560   -4.867490    6.204400
     25          6           0       -5.979910   -4.049810    6.919920
     26          6           0       -3.023420    1.776030    2.911170
     27          7           0       -3.305040    2.783980    3.794950
     28          6           0       -2.887910    3.982350    3.330180
     29          6           0       -2.208880    4.175910    2.126880
     30          7           0       -1.910560    3.197960    1.229650
     31          6           0       -2.346760    1.975210    1.650310
     32          1           0        2.560560    0.330890   -0.052800
     33          1           0        1.307390   -1.949920   -0.086310
     34          1           0       -1.191930   -1.761780    0.042010
     35          1           0       -2.696190   -2.110230    3.804270
     36          1           0       -4.063990   -3.435280    5.103940
     37          1           0       -6.024390    0.172710    6.519130
     38          1           0       -7.285930   -1.049140    7.723790
     39          1           0       -8.333440   -4.658400    9.444960
     40          1           0       -3.122250    4.828980    3.969560
     41          1           0       -1.865040    5.166370    1.849220
 ---------------------------------------------------------------------
                    Distance matrix (angstroms):
                    1          2          3          4          5
     1  Si   0.000000
     2  H    1.482708   0.000000
     3  H    1.485643   2.639678   0.000000
     4  C    1.848999   2.737783   2.819171   0.000000
     5  C    2.662689   3.609561   3.570784   1.341920   0.000000
     6  C    2.688640   3.625934   3.500956   2.368307   1.463692
     7  C    1.891071   2.686710   2.711871   2.578394   2.361272
     8  C    2.830182   2.981931   3.662520   3.796938   3.588924
     9  S    4.388685   4.502697   5.261577   4.923917   4.315565
    10  C    5.054317   4.649794   6.035941   5.821054   5.486990
    11  C    6.370538   5.906989   7.427274   6.928011   6.471051
    12  C    6.786605   6.468851   7.927209   6.989442   6.330705
    13  C    8.142695   7.829063   9.264285   8.288358   7.556639
    14  C    9.015488   8.580597  10.085300   9.361156   8.722170
    15  C    8.596909   8.032651   9.606303   9.196452   8.723058
    16  N    7.362472   6.771787   8.340890   8.096782   7.727926
    17  C   10.446659  10.027613  11.514251  10.723536  10.023277
    18  C   11.469853  10.964456  12.498470  11.880959  11.249080
    19  N   12.812890  12.314945  13.846995  13.173316  12.503208
    20  C   13.345584  12.928919  14.415028  13.536850  12.770481
    21  C   12.582293  12.258178  13.677577  12.625226  11.784225
    22  N   13.171389  12.934318  14.283316  13.044471  12.119630
    23  S   12.071575  11.943981  13.192147  11.788778  10.797134
    24  N   10.672216  10.484650  11.788185  10.541509   9.622057
    25  C   11.092912  10.781618  12.190413  11.158140  10.335830
    26  C    4.591794   3.976687   5.458231   5.720618   5.684610
    27  N    5.532235   4.655748   6.342042   6.772828   6.889907
    28  C    5.331001   4.348934   5.952981   6.799164   7.151437
    29  C    4.290751   3.407210   4.721678   5.932833   6.434803
    30  N    3.102816   2.544411   3.540605   4.779143   5.208590
    31  C    3.293813   2.902700   4.032611   4.635548   4.730520
    32  H    2.549072   3.123257   3.413886   1.075806   2.179795
    33  H    3.707908   4.537431   4.607328   2.136693   1.084865
    34  H    3.749740   4.565613   4.534143   3.329201   2.183529
    35  H    6.269259   6.093710   7.452313   6.234708   5.471826
    36  H    8.561179   8.361638   9.699651   8.493120   7.639423
    37  H    9.375060   8.727338  10.339542  10.088723   9.685973
    38  H   11.326034  10.743608  12.308978  11.895317  11.360889
    39  H   14.422093  13.999980  15.491614  14.597870  13.819773
    40  H    6.291212   5.221735   6.862195   7.773254   8.186779
    41  H    4.643279   3.742392   4.855679   6.360576   7.029215
                    6          7          8          9         10
     6  C    0.000000
     7  C    1.359312   0.000000
     8  C    2.458098   1.423862   0.000000
     9  S    3.042330   2.694300   1.699962   0.000000
    10  C    4.420824   3.789581   2.466649   1.716030   0.000000
    11  C    5.462763   5.059423   3.829180   2.675976   1.441283
    12  C    5.413265   5.354214   4.367331   2.953972   2.426972
    13  C    6.640002   6.662107   5.676811   4.167225   3.639270
    14  C    7.741343   7.587748   6.444164   5.009841   4.140064
    15  C    7.699169   7.302349   6.018566   4.807658   3.574752
    16  N    6.692333   6.150765   4.816306   3.804653   2.363927
    17  C    9.055650   8.980866   7.866100   6.375039   5.590004
    18  C   10.246770  10.056977   8.854342   7.440120   6.482953
    19  N   11.515243  11.377971  10.196323   8.747543   7.841860
    20  C   11.834167  11.848721  10.764516   9.229387   8.505869
    21  C   10.897905  11.043055  10.065100   8.476708   7.943733
    22  N   11.305666  11.600789  10.741785   9.119526   8.775857
    23  S   10.053430  10.487240   9.771094   8.148651   8.040637
    24  N    8.798473   9.100218   8.284841   6.670782   6.442372
    25  C    9.436261   9.558960   8.582909   7.002167   6.485825
    26  C    4.705528   3.728953   2.363969   2.538600   1.356940
    27  N    6.009445   4.968328   3.661396   3.869493   2.418884
    28  C    6.383703   5.179679   4.051653   4.729030   3.549362
    29  C    5.752395   4.447231   3.587952   4.717935   3.992184
    30  N    4.476604   3.140658   2.441020   3.841500   3.598189
    31  C    3.778677   2.580859   1.397769   2.517356   2.308855
    32  H    3.402384   3.612385   4.747512   5.877938   6.638490
    33  H    2.221718   3.341921   4.454748   4.891593   6.086178
    34  H    1.086744   2.181902   2.841889   2.776533   4.331170
    35  H    4.648088   4.811091   4.067302   2.688853   2.715774
    36  H    6.798523   7.028942   6.208158   4.644660   4.438316
    37  H    8.652954   8.160459   6.823435   5.724331   4.380441
    38  H   10.325474   9.992403   8.710490   7.417079   6.289124
    39  H   12.891544  12.921697  11.840298  10.299859   9.579288
    40  H    7.460284   6.252916   5.137959   5.752502   4.452498
    41  H    6.471171   5.143496   4.479011   5.737390   5.075437
                   11         12         13         14         15
    11  C    0.000000
    12  C    1.376901   0.000000
    13  C    2.344939   1.365139   0.000000
    14  C    2.726104   2.400104   1.391646   0.000000
    15  C    2.276934   2.704105   2.361804   1.397432   0.000000
    16  N    1.340204   2.401311   2.772398   2.428545   1.346412
    17  C    4.183424   3.734525   2.478573   1.458069   2.514381
    18  C    5.105058   4.926247   3.781998   2.528474   3.016257
    19  N    6.457531   6.191279   4.965032   3.820045   4.380720
    20  C    7.101068   6.584020   5.253661   4.375751   5.248380
    21  C    6.558067   5.811775   4.447361   3.900392   5.053660
    22  N    7.434031   6.508526   5.171331   4.919110   6.184705
    23  S    6.805552   5.680842   4.464392   4.668592   6.053564
    24  N    5.179376   4.108531   2.844045   3.072699   4.468532
    25  C    5.113896   4.325740   2.960683   2.543684   3.829127
    26  C    2.569292   3.718657   4.892998   5.210268   4.374808
    27  N    3.132824   4.436400   5.430664   5.439459   4.342471
    28  C    4.450394   5.720129   6.766064   6.786764   5.658026
    29  C    5.181118   6.336274   7.516843   7.733468   6.721347
    30  N    4.974097   5.956411   7.227048   7.659217   6.831863
    31  C    3.731537   4.644711   5.922605   6.433144   5.724405
    32  H    7.693747   7.729943   9.016922  10.096057   9.934567
    33  H    6.897438   6.547126   7.677961   8.930844   9.087734
    34  H    5.164414   4.902254   6.015946   7.184658   7.306964
    35  H    2.179019   1.084336   2.102855   3.366261   3.788124
    36  H    3.281969   2.051571   1.077782   2.197252   3.382281
    37  H    3.216420   3.780647   3.377076   2.191868   1.084847
    38  H    4.988644   5.106459   4.168166   2.787852   2.731212
    39  H    8.174368   7.656151   6.320924   5.450096   6.283071
    40  H    5.157281   6.461726   7.397717   7.249918   6.017581
    41  H    6.253623   7.409693   8.589148   8.778396   7.726987
                   16         17         18         19         20
    16  N    0.000000
    17  C    3.765608   0.000000
    18  C    4.360026   1.402475   0.000000
    19  N    5.724429   2.488364   1.367270   0.000000
    20  C    6.576039   2.919487   2.368001   1.360534   0.000000
    21  C    6.291639   2.540190   2.727677   2.377024   1.402797
    22  N    7.346781   3.700433   4.065141   3.648618   2.451025
    23  S    7.014012   3.845744   4.705876   4.734179   3.793914
    24  N    5.379796   2.498512   3.655184   4.125797   3.637930
    25  C    4.970496   1.429677   2.351863   2.795401   2.501546
    26  C    3.035297   6.648375   7.381725   8.748519   9.536271
    27  N    3.050378   6.803463   7.312107   8.654069   9.585021
    28  C    4.386382   8.138343   8.591513   9.918077  10.889958
    29  C    5.393036   9.139224   9.712061  11.060825  11.967052
    30  N    5.487873   9.101516   9.837220  11.202704  11.994719
    31  C    4.406603   7.879822   8.699842  10.065005  10.788117
    32  H    8.846434  11.447782  12.604458  13.886818  14.236514
    33  H    8.203552  10.154441  11.439504  12.641517  12.798704
    34  H    6.435841   8.420811   9.662152  10.884406  11.116077
    35  H    3.394428   4.580698   5.858311   7.065022   7.316565
    36  H    3.843523   2.786061   4.185637   5.181915   5.188303
    37  H    2.020431   2.818276   2.781927   4.061651   5.142424
    38  H    4.007089   2.169214   1.090794   2.040069   3.291384
    39  H    7.619254   3.995227   3.329822   2.094703   1.077610
    40  H    4.854834   8.521703   8.818851  10.099109  11.153607
    41  H    6.414048  10.171634  10.696094  12.034044  12.974653
                   21         22         23         24         25
    21  C    0.000000
    22  N    1.343417   0.000000
    23  S    2.412783   1.652585   0.000000
    24  N    2.337152   2.514554   1.641260   0.000000
    25  C    1.489784   2.376630   2.436471   1.347124   0.000000
    26  C    9.091422   9.996337   9.337811   7.723207   7.664941
    27  N    9.322669  10.344851   9.874473   8.238888   7.976281
    28  C   10.663100  11.694332  11.217862   9.583883   9.325357
    29  C   11.633851  12.591507  11.974325  10.356543  10.239940
    30  N   11.518278  12.373768  11.604888  10.025575  10.073180
    31  C   10.248862  11.066605  10.264911   8.695385   8.790303
    32  H   13.317067  13.712013  12.442623  11.231523  11.863768
    33  H   11.732751  11.954125  10.550407   9.498299  10.324802
    34  H   10.121801  10.459071   9.162497   7.972051   8.687087
    35  H    6.397472   6.913889   5.860246   4.421551   4.924638
    36  H    4.146513   4.611465   3.642185   2.125012   2.710384
    37  H    5.241379   6.486203   6.614406   5.119538   4.241732
    38  H    3.811405   5.151894   5.768069   4.616092   3.369854
    39  H    2.188908   2.797767   4.365100   4.524013   3.505041
    40  H   11.051367  12.147492  11.794369  10.161941   9.782830
    41  H   12.677318  13.651299  13.049232  11.430596  11.295226
                   26         27         28         29         30
    26  C    0.000000
    27  N    1.369796   0.000000
    28  C    2.249840   1.351332   0.000000
    29  C    2.652925   2.433412   1.395162   0.000000
    30  N    2.467357   2.949020   2.445957   1.360295   0.000000
    31  C    1.444752   2.484329   2.672717   2.255928   1.364677
    32  H    6.484935   7.431561   7.379942   6.502518   5.464035
    33  H    6.451628   7.664757   8.028996   7.401902   6.211894
    34  H    4.909433   6.262086   6.832528   6.374718   5.150334
    35  H    4.000965   4.931945   6.114004   6.524313   5.951703
    36  H    5.748807   6.400676   7.716905   8.380605   7.977923
    37  H    4.959217   4.651317   5.875395   7.062265   7.352165
    38  H    7.022242   6.780566   7.997642   9.187110   9.439614
    39  H   10.596632  10.611147  11.904070  13.004213  13.056305
    40  H    3.232717   2.060564   1.086510   2.157826   3.411089
    41  H    3.736842   3.396358   2.154393   1.084588   2.064117
                   31         32         33         34         35
    31  C    0.000000
    32  H    5.448501   0.000000
    33  H    5.636959   2.602624   0.000000
    34  H    4.229108   4.297608   2.509674   0.000000
    35  H    4.631681   6.962002   5.584887   4.066794   0.000000
    36  H    6.644535   9.201123   7.615557   6.055780   2.305597
    37  H    6.362341  10.812800  10.094176   8.309513   4.864072
    38  H    8.392214  12.622726  11.647069   9.831299   6.128153
    39  H   11.857558  15.289856  13.824854  12.157592   8.371926
    40  H    3.758232   8.288940   9.056781   7.911378   6.954242
    41  H    3.233438   6.825356   8.028211   7.191547   7.580365
                   36         37         38         39         40
    36  H    0.000000
    37  H    4.343216   0.000000
    38  H    4.789382   2.129696   0.000000
    39  H    6.210369   6.101788   4.133577   0.000000
    40  H    8.394742   6.050089   8.122978  12.130412   0.000000
    41  H    9.456054   8.002805  10.125670  14.002199   2.488021
                   41
    41  H    0.000000
 Stoichiometry    C20H12N6S2Si
 Framework group  C1[X(C20H12N6S2Si)]
 Deg. of freedom   117
 Full point group                 C1      NOp   1
 Largest Abelian subgroup         C1      NOp   1
 Largest concise Abelian subgroup C1      NOp   1
                         Standard orientation:                         
 ---------------------------------------------------------------------
 Center     Atomic      Atomic             Coordinates (Angstroms)
 Number     Number       Type             X           Y           Z
 ---------------------------------------------------------------------
      1         14           0       -6.170428   -1.086562   -0.339002
      2          1           0       -5.799927   -0.069832   -1.352616
      3          1           0       -7.260350   -0.951997    0.661547
      4          6           0       -5.956650   -2.784955   -1.037969
      5          6           0       -4.966272   -3.459516   -0.433924
      6          6           0       -4.230815   -2.704785    0.581890
      7          6           0       -4.584774   -1.393864    0.644571
      8          6           0       -3.653257   -0.318528    0.702104
      9         16           0       -2.018977   -0.662263    1.019667
     10          6           0       -1.485455    0.737118    0.181904
     11          6           0       -0.080825    0.773677   -0.138992
     12          6           0        0.582641   -0.412963   -0.357063
     13          6           0        1.943205   -0.405590   -0.245638
     14          6           0        2.644919    0.786933   -0.096761
     15          6           0        1.868409    1.948440   -0.069385
     16          7           0        0.522581    1.965718   -0.033702
     17          6           0        4.100757    0.792621   -0.016329
     18          6           0        4.881273    1.954368    0.073527
     19          7           0        6.245052    2.050695    0.089508
     20          6           0        7.016661    0.932199    0.021410
     21          6           0        6.384763   -0.318913   -0.035718
     22          7           0        6.991717   -1.515891   -0.095896
     23         16           0        5.796854   -2.656835   -0.135748
     24          7           0        4.482316   -1.675810   -0.078173
     25          6           0        4.896918   -0.394559   -0.042907
     26          6           0       -2.493552    1.636038    0.051638
     27          7           0       -2.350780    2.914634   -0.418627
     28          6           0       -3.541413    3.548200   -0.502803
     29          6           0       -4.773831    2.968183   -0.200804
     30          7           0       -4.950866    1.702080    0.264000
     31          6           0       -3.764482    1.040291    0.393883
     32          1           0       -6.510826   -3.057957   -1.918718
     33          1           0       -4.586092   -4.406954   -0.801016
     34          1           0       -3.291529   -3.128281    0.927441
     35          1           0        0.090601   -1.370068   -0.489846
     36          1           0        2.385105   -1.388430   -0.264705
     37          1           0        2.287155    2.949211   -0.067739
     38          1           0        4.407047    2.934702    0.135860
     39          1           0        8.087140    1.055945    0.019040
     40          1           0       -3.488112    4.582978   -0.829756
     41          1           0       -5.689714    3.531765   -0.341750
 ---------------------------------------------------------------------
 Rotational constants (GHZ):      0.3180459      0.0582771      0.0501129
 Standard basis: 6-31++G(d,p) (6D, 7F)
 There are   635 symmetry adapted basis functions of A   symmetry.
 Integral buffers will be    131072 words long.
 Raffenetti 2 integral format.
 Two-electron integral symmetry is turned on.
   635 basis functions,  1096 primitive gaussians,   635 cartesian basis functions
   110 alpha electrons      110 beta electrons
       nuclear repulsion energy      2853.8087092900 Hartrees.
 NAtoms=   41 NActive=   41 NUniq=   41 SFac= 1.00D+00 NAtFMM=   60 NAOKFM=F Big=F
 One-electron integrals computed using PRISM.
 NBasis=   635 RedAO= T  NBF=   635
 NBsUse=   629 1.00D-06 NBFU=   629
 Harris functional with IExCor=  402 diagonalized for initial guess.
 ExpMin= 3.31D-02 ExpMax= 2.19D+04 ExpMxC= 3.30D+03 IAcc=3 IRadAn=         5 AccDes= 0.00D+00
 HarFok:  IExCor=  402 AccDes= 0.00D+00 IRadAn=         5 IDoV= 1
 ScaDFX=  1.000000  1.000000  1.000000  1.000000
 FoFCou: FMM=F IPFlag=           0 FMFlag=      100000 FMFlg1=           0
         NFxFlg=           0 DoJE=T BraDBF=F KetDBF=T FulRan=T
         Omega=  0.000000  0.000000  1.000000  0.000000  0.000000 ICntrl=     500 IOpCl=  0
         NMat0=    1 NMatS0=    1 NMatT0=    0 NMatD0=    1 NMtDS0=    0 NMtDT0=    0
         I1Cent=           4 NGrid=           0.
 Petite list used in FoFCou.
 Initial guess orbital symmetries:
       Occupied  (A) (A) (A) (A) (A) (A) (A) (A) (A) (A) (A) (A)
                 (A) (A) (A) (A) (A) (A) (A) (A) (A) (A) (A) (A)
                 (A) (A) (A) (A) (A) (A) (A) (A) (A) (A) (A) (A)
                 (A) (A) (A) (A) (A) (A) (A) (A) (A) (A) (A) (A)
                 (A) (A) (A) (A) (A) (A) (A) (A) (A) (A) (A) (A)
                 (A) (A) (A) (A) (A) (A) (A) (A) (A) (A) (A) (A)
                 (A) (A) (A) (A) (A) (A) (A) (A) (A) (A) (A) (A)
                 (A) (A) (A) (A) (A) (A) (A) (A) (A) (A) (A) (A)
                 (A) (A) (A) (A) (A) (A) (A) (A) (A) (A) (A) (A)
                 (A) (A)
       Virtual   (A) (A) (A) (A) (A) (A) (A) (A) (A) (A) (A) (A)
                 (A) (A) (A) (A) (A) (A) (A) (A) (A) (A) (A) (A)
                 (A) (A) (A) (A) (A) (A) (A) (A) (A) (A) (A) (A)
                 (A) (A) (A) (A) (A) (A) (A) (A) (A) (A) (A) (A)
                 (A) (A) (A) (A) (A) (A) (A) (A) (A) (A) (A) (A)
                 (A) (A) (A) (A) (A) (A) (A) (A) (A) (A) (A) (A)
                 (A) (A) (A) (A) (A) (A) (A) (A) (A) (A) (A) (A)
                 (A) (A) (A) (A) (A) (A) (A) (A) (A) (A) (A) (A)
                 (A) (A) (A) (A) (A) (A) (A) (A) (A) (A) (A) (A)
                 (A) (A) (A) (A) (A) (A) (A) (A) (A) (A) (A) (A)
                 (A) (A) (A) (A) (A) (A) (A) (A) (A) (A) (A) (A)
                 (A) (A) (A) (A) (A) (A) (A) (A) (A) (A) (A) (A)
                 (A) (A) (A) (A) (A) (A) (A) (A) (A) (A) (A) (A)
                 (A) (A) (A) (A) (A) (A) (A) (A) (A) (A) (A) (A)
                 (A) (A) (A) (A) (A) (A) (A) (A) (A) (A) (A) (A)
                 (A) (A) (A) (A) (A) (A) (A) (A) (A) (A) (A) (A)
                 (A) (A) (A) (A) (A) (A) (A) (A) (A) (A) (A) (A)
                 (A) (A) (A) (A) (A) (A) (A) (A) (A) (A) (A) (A)
                 (A) (A) (A) (A) (A) (A) (A) (A) (A) (A) (A) (A)
                 (A) (A) (A) (A) (A) (A) (A) (A) (A) (A) (A) (A)
                 (A) (A) (A) (A) (A) (A) (A) (A) (A) (A) (A) (A)
                 (A) (A) (A) (A) (A) (A) (A) (A) (A) (A) (A) (A)
                 (A) (A) (A) (A) (A) (A) (A) (A) (A) (A) (A) (A)
                 (A) (A) (A) (A) (A) (A) (A) (A) (A) (A) (A) (A)
                 (A) (A) (A) (A) (A) (A) (A) (A) (A) (A) (A) (A)
                 (A) (A) (A) (A) (A) (A) (A) (A) (A) (A) (A) (A)
                 (A) (A) (A) (A) (A) (A) (A) (A) (A) (A) (A) (A)
                 (A) (A) (A) (A) (A) (A) (A) (A) (A) (A) (A) (A)
                 (A) (A) (A) (A) (A) (A) (A) (A) (A) (A) (A) (A)
                 (A) (A) (A) (A) (A) (A) (A) (A) (A) (A) (A) (A)
                 (A) (A) (A) (A) (A) (A) (A) (A) (A) (A) (A) (A)
                 (A) (A) (A) (A) (A) (A) (A) (A) (A) (A) (A) (A)
                 (A) (A) (A) (A) (A) (A) (A) (A) (A) (A) (A) (A)
                 (A) (A) (A) (A) (A) (A) (A) (A) (A) (A) (A) (A)
                 (A) (A) (A) (A) (A) (A) (A) (A) (A) (A) (A) (A)
                 (A) (A) (A) (A) (A) (A) (A) (A) (A) (A) (A) (A)
                 (A) (A) (A) (A) (A) (A) (A) (A) (A) (A) (A) (A)
                 (A) (A) (A) (A) (A) (A) (A) (A) (A) (A) (A) (A)
                 (A) (A) (A) (A) (A) (A) (A) (A) (A) (A) (A) (A)
                 (A) (A) (A) (A) (A) (A) (A) (A) (A) (A) (A) (A)
                 (A) (A) (A) (A) (A) (A) (A) (A) (A) (A) (A) (A)
                 (A) (A) (A) (A) (A) (A) (A) (A) (A) (A) (A) (A)
                 (A) (A) (A) (A) (A) (A) (A) (A) (A) (A) (A) (A)
                 (A) (A) (A)
 The electronic state of the initial guess is 1-A.
 Requested convergence on RMS density matrix=1.00D-08 within 128 cycles.
 Requested convergence on MAX density matrix=1.00D-06.
 Requested convergence on             energy=1.00D-06.
 No special actions if energy rises.
 EnCoef did     2 forward-backward iterations
 Restarting incremental Fock formation.
 SCF Done:  E(RB3LYP) =  -2183.63345269     A.U. after   24 cycles
             Convg  =    0.3066D-08             -V/T =  2.0062

 **********************************************************************

            Population analysis using the SCF density.

 **********************************************************************

 Orbital symmetries:
       Occupied  (A) (A) (A) (A) (A) (A) (A) (A) (A) (A) (A) (A)
                 (A) (A) (A) (A) (A) (A) (A) (A) (A) (A) (A) (A)
                 (A) (A) (A) (A) (A) (A) (A) (A) (A) (A) (A) (A)
                 (A) (A) (A) (A) (A) (A) (A) (A) (A) (A) (A) (A)
                 (A) (A) (A) (A) (A) (A) (A) (A) (A) (A) (A) (A)
                 (A) (A) (A) (A) (A) (A) (A) (A) (A) (A) (A) (A)
                 (A) (A) (A) (A) (A) (A) (A) (A) (A) (A) (A) (A)
                 (A) (A) (A) (A) (A) (A) (A) (A) (A) (A) (A) (A)
                 (A) (A) (A) (A) (A) (A) (A) (A) (A) (A) (A) (A)
                 (A) (A)
       Virtual   (A) (A) (A) (A) (A) (A) (A) (A) (A) (A) (A) (A)
                 (A) (A) (A) (A) (A) (A) (A) (A) (A) (A) (A) (A)
                 (A) (A) (A) (A) (A) (A) (A) (A) (A) (A) (A) (A)
                 (A) (A) (A) (A) (A) (A) (A) (A) (A) (A) (A) (A)
                 (A) (A) (A) (A) (A) (A) (A) (A) (A) (A) (A) (A)
                 (A) (A) (A) (A) (A) (A) (A) (A) (A) (A) (A) (A)
                 (A) (A) (A) (A) (A) (A) (A) (A) (A) (A) (A) (A)
                 (A) (A) (A) (A) (A) (A) (A) (A) (A) (A) (A) (A)
                 (A) (A) (A) (A) (A) (A) (A) (A) (A) (A) (A) (A)
                 (A) (A) (A) (A) (A) (A) (A) (A) (A) (A) (A) (A)
                 (A) (A) (A) (A) (A) (A) (A) (A) (A) (A) (A) (A)
                 (A) (A) (A) (A) (A) (A) (A) (A) (A) (A) (A) (A)
                 (A) (A) (A) (A) (A) (A) (A) (A) (A) (A) (A) (A)
                 (A) (A) (A) (A) (A) (A) (A) (A) (A) (A) (A) (A)
                 (A) (A) (A) (A) (A) (A) (A) (A) (A) (A) (A) (A)
                 (A) (A) (A) (A) (A) (A) (A) (A) (A) (A) (A) (A)
                 (A) (A) (A) (A) (A) (A) (A) (A) (A) (A) (A) (A)
                 (A) (A) (A) (A) (A) (A) (A) (A) (A) (A) (A) (A)
                 (A) (A) (A) (A) (A) (A) (A) (A) (A) (A) (A) (A)
                 (A) (A) (A) (A) (A) (A) (A) (A) (A) (A) (A) (A)
                 (A) (A) (A) (A) (A) (A) (A) (A) (A) (A) (A) (A)
                 (A) (A) (A) (A) (A) (A) (A) (A) (A) (A) (A) (A)
                 (A) (A) (A) (A) (A) (A) (A) (A) (A) (A) (A) (A)
                 (A) (A) (A) (A) (A) (A) (A) (A) (A) (A) (A) (A)
                 (A) (A) (A) (A) (A) (A) (A) (A) (A) (A) (A) (A)
                 (A) (A) (A) (A) (A) (A) (A) (A) (A) (A) (A) (A)
                 (A) (A) (A) (A) (A) (A) (A) (A) (A) (A) (A) (A)
                 (A) (A) (A) (A) (A) (A) (A) (A) (A) (A) (A) (A)
                 (A) (A) (A) (A) (A) (A) (A) (A) (A) (A) (A) (A)
                 (A) (A) (A) (A) (A) (A) (A) (A) (A) (A) (A) (A)
                 (A) (A) (A) (A) (A) (A) (A) (A) (A) (A) (A) (A)
                 (A) (A) (A) (A) (A) (A) (A) (A) (A) (A) (A) (A)
                 (A) (A) (A) (A) (A) (A) (A) (A) (A) (A) (A) (A)
                 (A) (A) (A) (A) (A) (A) (A) (A) (A) (A) (A) (A)
                 (A) (A) (A) (A) (A) (A) (A) (A) (A) (A) (A) (A)
                 (A) (A) (A) (A) (A) (A) (A) (A) (A) (A) (A) (A)
                 (A) (A) (A) (A) (A) (A) (A) (A) (A) (A) (A) (A)
                 (A) (A) (A) (A) (A) (A) (A) (A) (A) (A) (A) (A)
                 (A) (A) (A) (A) (A) (A) (A) (A) (A) (A) (A) (A)
                 (A) (A) (A) (A) (A) (A) (A) (A) (A) (A) (A) (A)
                 (A) (A) (A) (A) (A) (A) (A) (A) (A) (A) (A) (A)
                 (A) (A) (A) (A) (A) (A) (A) (A) (A) (A) (A) (A)
                 (A) (A) (A) (A) (A) (A) (A) (A) (A) (A) (A) (A)
                 (A) (A) (A)
 The electronic state is 1-A.
 Alpha  occ. eigenvalues --  -89.00371 -88.93018 -66.13298 -14.40066 -14.39633
 Alpha  occ. eigenvalues --  -14.37328 -14.36674 -14.36622 -14.34661 -10.27607
 Alpha  occ. eigenvalues --  -10.26942 -10.25782 -10.25047 -10.24900 -10.24682
 Alpha  occ. eigenvalues --  -10.24631 -10.24461 -10.24418 -10.24143 -10.24136
 Alpha  occ. eigenvalues --  -10.24056 -10.22948 -10.22796 -10.21210 -10.21145
 Alpha  occ. eigenvalues --  -10.21062 -10.20659 -10.19861 -10.17855  -8.05638
 Alpha  occ. eigenvalues --   -7.99112  -6.02197  -6.01607  -6.01408  -5.95492
 Alpha  occ. eigenvalues --   -5.95142  -5.94854  -5.28220  -3.64163  -3.64037
 Alpha  occ. eigenvalues --   -3.63971  -1.04023  -0.99121  -0.96596  -0.95414
 Alpha  occ. eigenvalues --   -0.92030  -0.91723  -0.90795  -0.85082  -0.84295
 Alpha  occ. eigenvalues --   -0.81581  -0.80649  -0.78520  -0.77536  -0.75276
 Alpha  occ. eigenvalues --   -0.71395  -0.69378  -0.68809  -0.66613  -0.66374
 Alpha  occ. eigenvalues --   -0.64800  -0.63627  -0.61468  -0.60692  -0.58449
 Alpha  occ. eigenvalues --   -0.54955  -0.54313  -0.53985  -0.53148  -0.52746
 Alpha  occ. eigenvalues --   -0.52058  -0.50604  -0.50097  -0.49816  -0.48213
 Alpha  occ. eigenvalues --   -0.47594  -0.47440  -0.46612  -0.45637  -0.44714
 Alpha  occ. eigenvalues --   -0.43021  -0.42614  -0.42063  -0.41491  -0.41063
 Alpha  occ. eigenvalues --   -0.40867  -0.40102  -0.39827  -0.39235  -0.39001
 Alpha  occ. eigenvalues --   -0.37809  -0.36960  -0.36116  -0.35108  -0.34545
 Alpha  occ. eigenvalues --   -0.33906  -0.32990  -0.32101  -0.31789  -0.31353
 Alpha  occ. eigenvalues --   -0.30556  -0.29810  -0.29510  -0.28431  -0.28181
 Alpha  occ. eigenvalues --   -0.27257  -0.26794  -0.26063  -0.24537  -0.19395
 Alpha virt. eigenvalues --   -0.12670  -0.11557  -0.06862  -0.05508  -0.04602
 Alpha virt. eigenvalues --   -0.02982  -0.02610  -0.01389  -0.01244  -0.00913
 Alpha virt. eigenvalues --   -0.00435  -0.00260  -0.00017   0.00580   0.01080
 Alpha virt. eigenvalues --    0.01258   0.01448   0.01898   0.01958   0.02429
 Alpha virt. eigenvalues --    0.02658   0.03141   0.03261   0.03516   0.03792
 Alpha virt. eigenvalues --    0.03975   0.04676   0.04778   0.04940   0.05532
 Alpha virt. eigenvalues --    0.05630   0.05902   0.06148   0.06626   0.07355
 Alpha virt. eigenvalues --    0.07495   0.07934   0.08065   0.08230   0.08695
 Alpha virt. eigenvalues --    0.09223   0.09490   0.09809   0.09926   0.10080
 Alpha virt. eigenvalues --    0.10177   0.10489   0.10661   0.10822   0.11016
 Alpha virt. eigenvalues --    0.11249   0.11421   0.11826   0.12045   0.12085
 Alpha virt. eigenvalues --    0.12283   0.12667   0.12759   0.12942   0.13023
 Alpha virt. eigenvalues --    0.13086   0.13284   0.13566   0.13883   0.13957
 Alpha virt. eigenvalues --    0.14225   0.14493   0.14587   0.14797   0.14983
 Alpha virt. eigenvalues --    0.15108   0.15678   0.16039   0.16339   0.16513
 Alpha virt. eigenvalues --    0.16708   0.16915   0.17199   0.17619   0.17802
 Alpha virt. eigenvalues --    0.18199   0.18332   0.18629   0.19055   0.19171
 Alpha virt. eigenvalues --    0.19357   0.19594   0.19860   0.20044   0.20520
 Alpha virt. eigenvalues --    0.20567   0.20785   0.20957   0.21482   0.21639
 Alpha virt. eigenvalues --    0.21877   0.22069   0.22427   0.22560   0.22720
 Alpha virt. eigenvalues --    0.23007   0.23057   0.23342   0.23593   0.23689
 Alpha virt. eigenvalues --    0.24025   0.24211   0.24643   0.24817   0.24942
 Alpha virt. eigenvalues --    0.25301   0.25530   0.25767   0.26022   0.26080
 Alpha virt. eigenvalues --    0.26365   0.26528   0.27038   0.27229   0.27351
 Alpha virt. eigenvalues --    0.27504   0.28042   0.28127   0.28637   0.28876
 Alpha virt. eigenvalues --    0.28925   0.29008   0.29320   0.29537   0.29707
 Alpha virt. eigenvalues --    0.29852   0.30235   0.30435   0.30633   0.30944
 Alpha virt. eigenvalues --    0.31610   0.31744   0.32064   0.32250   0.32654
 Alpha virt. eigenvalues --    0.32812   0.33220   0.33370   0.33946   0.34012
 Alpha virt. eigenvalues --    0.34516   0.34681   0.35143   0.35333   0.35694
 Alpha virt. eigenvalues --    0.36259   0.36544   0.36727   0.36968   0.37243
 Alpha virt. eigenvalues --    0.37694   0.38008   0.38641   0.39288   0.39358
 Alpha virt. eigenvalues --    0.39397   0.40114   0.40589   0.40959   0.41261
 Alpha virt. eigenvalues --    0.41970   0.42778   0.43162   0.43516   0.44033
 Alpha virt. eigenvalues --    0.45586   0.46551   0.46896   0.47533   0.48071
 Alpha virt. eigenvalues --    0.49107   0.49948   0.50252   0.51009   0.51902
 Alpha virt. eigenvalues --    0.52295   0.54581   0.54663   0.56241   0.57385
 Alpha virt. eigenvalues --    0.58178   0.59903   0.60186   0.62349   0.62577
 Alpha virt. eigenvalues --    0.63829   0.64087   0.64468   0.64924   0.65638
 Alpha virt. eigenvalues --    0.66033   0.66607   0.67277   0.67858   0.68254
 Alpha virt. eigenvalues --    0.68532   0.69141   0.69685   0.70510   0.70644
 Alpha virt. eigenvalues --    0.71316   0.71753   0.72493   0.72934   0.74065
 Alpha virt. eigenvalues --    0.74304   0.74714   0.74963   0.76150   0.76390
 Alpha virt. eigenvalues --    0.77202   0.77818   0.77860   0.78399   0.78651
 Alpha virt. eigenvalues --    0.79656   0.79887   0.80693   0.81163   0.81513
 Alpha virt. eigenvalues --    0.81948   0.82700   0.84185   0.85005   0.85352
 Alpha virt. eigenvalues --    0.86306   0.86624   0.87023   0.88751   0.88965
 Alpha virt. eigenvalues --    0.89452   0.90587   0.90712   0.91636   0.92197
 Alpha virt. eigenvalues --    0.93153   0.93633   0.94034   0.94113   0.94971
 Alpha virt. eigenvalues --    0.95528   0.95995   0.97029   0.97478   0.97882
 Alpha virt. eigenvalues --    0.98691   0.99061   0.99759   0.99951   1.00249
 Alpha virt. eigenvalues --    1.01349   1.02184   1.02313   1.03575   1.03651
 Alpha virt. eigenvalues --    1.03989   1.04991   1.05416   1.05884   1.06145
 Alpha virt. eigenvalues --    1.07320   1.07553   1.08520   1.08969   1.09764
 Alpha virt. eigenvalues --    1.10178   1.11029   1.12330   1.12762   1.13531
 Alpha virt. eigenvalues --    1.13668   1.13813   1.14623   1.15108   1.15159
 Alpha virt. eigenvalues --    1.16536   1.17020   1.17956   1.18658   1.18741
 Alpha virt. eigenvalues --    1.19431   1.20001   1.20448   1.21093   1.21930
 Alpha virt. eigenvalues --    1.22108   1.22420   1.22965   1.23623   1.24325
 Alpha virt. eigenvalues --    1.24934   1.25071   1.25863   1.26247   1.26949
 Alpha virt. eigenvalues --    1.27037   1.28294   1.28445   1.30129   1.30807
 Alpha virt. eigenvalues --    1.31120   1.32100   1.32560   1.33545   1.35086
 Alpha virt. eigenvalues --    1.35618   1.35989   1.36335   1.36756   1.37550
 Alpha virt. eigenvalues --    1.37935   1.39179   1.40358   1.40506   1.41042
 Alpha virt. eigenvalues --    1.43165   1.43426   1.45004   1.45455   1.45890
 Alpha virt. eigenvalues --    1.47207   1.47455   1.48920   1.50665   1.51547
 Alpha virt. eigenvalues --    1.53112   1.54340   1.54884   1.56598   1.57703
 Alpha virt. eigenvalues --    1.58829   1.62550   1.63522   1.65358   1.67472
 Alpha virt. eigenvalues --    1.69947   1.70600   1.70985   1.72530   1.73348
 Alpha virt. eigenvalues --    1.74766   1.76001   1.76837   1.77777   1.80088
 Alpha virt. eigenvalues --    1.81464   1.81730   1.82325   1.82681   1.83487
 Alpha virt. eigenvalues --    1.83828   1.84531   1.86056   1.86451   1.87440
 Alpha virt. eigenvalues --    1.88648   1.89679   1.90093   1.91330   1.92223
 Alpha virt. eigenvalues --    1.92861   1.94182   1.94730   1.95201   1.96837
 Alpha virt. eigenvalues --    1.97159   1.98014   2.00756   2.01454   2.02533
 Alpha virt. eigenvalues --    2.03372   2.04452   2.05505   2.06797   2.06903
 Alpha virt. eigenvalues --    2.08410   2.08931   2.10608   2.12261   2.13149
 Alpha virt. eigenvalues --    2.14793   2.16199   2.16790   2.17382   2.17636
 Alpha virt. eigenvalues --    2.18654   2.19607   2.21133   2.22437   2.22814
 Alpha virt. eigenvalues --    2.24292   2.24976   2.25678   2.26582   2.26903
 Alpha virt. eigenvalues --    2.27404   2.28266   2.28578   2.28801   2.29650
 Alpha virt. eigenvalues --    2.31598   2.32114   2.33294   2.34843   2.36720
 Alpha virt. eigenvalues --    2.37137   2.38154   2.38495   2.39083   2.40825
 Alpha virt. eigenvalues --    2.40942   2.42086   2.42430   2.43097   2.44006
 Alpha virt. eigenvalues --    2.44799   2.46218   2.46952   2.48008   2.49433
 Alpha virt. eigenvalues --    2.50162   2.51005   2.51582   2.52509   2.54204
 Alpha virt. eigenvalues --    2.55481   2.57521   2.58131   2.58372   2.58975
 Alpha virt. eigenvalues --    2.60271   2.61390   2.62345   2.62757   2.63513
 Alpha virt. eigenvalues --    2.64360   2.64518   2.65283   2.66612   2.67195
 Alpha virt. eigenvalues --    2.68571   2.68978   2.69438   2.69919   2.71087
 Alpha virt. eigenvalues --    2.71683   2.72864   2.73778   2.75716   2.76787
 Alpha virt. eigenvalues --    2.79083   2.79364   2.80455   2.82271   2.84594
 Alpha virt. eigenvalues --    2.86090   2.87418   2.89089   2.90551   2.91039
 Alpha virt. eigenvalues --    2.95861   2.97814   3.00278   3.03365   3.04499
 Alpha virt. eigenvalues --    3.07135   3.08739   3.11697   3.13570   3.15649
 Alpha virt. eigenvalues --    3.17995   3.24149   3.26750   3.29676   3.31603
 Alpha virt. eigenvalues --    3.33431   3.34840   3.36624   3.42024   3.44032
 Alpha virt. eigenvalues --    3.44087   3.51517   3.61896   3.69091   3.71322
 Alpha virt. eigenvalues --    3.80751   3.94186   3.98254   4.12216   4.19411
 Alpha virt. eigenvalues --    4.19814   4.27922   4.31164   4.31622   4.34616
 Alpha virt. eigenvalues --    4.36316   4.36705   4.38047   4.39261   4.41155
 Alpha virt. eigenvalues --    4.42941   4.44753   4.48469   4.51807   4.53498
 Alpha virt. eigenvalues --    4.54856   4.55573   4.59235   4.61280   4.65383
 Alpha virt. eigenvalues --    4.67865   4.71411   4.81302   4.88768
          Condensed to atoms (all electrons):
              1          2          3          4          5          6
     1  Si  12.840607   0.279190   0.348704  -0.225554   0.159653  -0.658918
     2  H    0.279190   0.894140  -0.071081   0.023442   0.052959  -0.028467
     3  H    0.348704  -0.071081   0.784888   0.024043  -0.068984   0.022363
     4  C   -0.225554   0.023442   0.024043   6.711762  -0.759589   1.495573
     5  C    0.159653   0.052959  -0.068984  -0.759589   7.851161  -2.830551
     6  C   -0.658918  -0.028467   0.022363   1.495573  -2.830551  12.367668
     7  C    0.751796  -0.106985  -0.004352  -1.380737   1.414623  -4.469128
     8  C   -0.303890  -0.031273   0.051158   0.311022   0.004796   1.104321
     9  S    0.174856  -0.089049   0.038982   0.015414  -0.208086  -0.840789
    10  C    0.022546   0.081988  -0.014395  -0.036345   0.122650  -0.453974
    11  C    0.073937   0.012647   0.003097  -0.014507  -0.086325  -0.717794
    12  C   -0.040595   0.011440  -0.001119   0.000771   0.046370   0.001848
    13  C   -0.027340   0.003744  -0.000081   0.013044  -0.007785   0.151510
    14  C   -0.009304   0.002418  -0.000171   0.003582  -0.006807   0.034061
    15  C    0.006239  -0.002081   0.000213  -0.000327  -0.003462  -0.008853
    16  N   -0.001950   0.000397  -0.000096   0.000749  -0.000617   0.005904
    17  C   -0.001427   0.000249  -0.000016   0.000284  -0.000086   0.005460
    18  C   -0.000028   0.000006   0.000000   0.000006  -0.000033  -0.000176
    19  N   -0.000000   0.000000  -0.000000   0.000000   0.000000   0.000000
    20  C    0.000001   0.000000   0.000000  -0.000000  -0.000000  -0.000009
    21  C   -0.000039   0.000005  -0.000000   0.000006  -0.000012   0.000245
    22  N   -0.000000   0.000000   0.000000   0.000000  -0.000000  -0.000000
    23  S   -0.000005   0.000001  -0.000000   0.000001   0.000004   0.000011
    24  N    0.000017  -0.000003   0.000000  -0.000003   0.000028   0.000049
    25  C   -0.000725   0.000161  -0.000006   0.000151  -0.000320   0.002416
    26  C    0.044296   0.102066   0.001033   0.009478   0.061238  -0.021932
    27  N    0.004450  -0.001255   0.000542  -0.001955   0.001220  -0.013091
    28  C   -0.096226   0.025247  -0.008190  -0.008636   0.028882   0.081094
    29  C    0.165822  -0.118746   0.026768   0.011369  -0.053446  -0.067258
    30  N    0.012005   0.005391   0.009058   0.052733  -0.042962  -0.027769
    31  C   -0.296428   0.051674  -0.061092  -0.073688   0.207872   0.371987
    32  H   -0.037433  -0.006579   0.005863   0.404193  -0.150099   0.141261
    33  H    0.025498   0.000879  -0.002407  -0.054380   0.351011  -0.040484
    34  H    0.010443  -0.003233   0.003868   0.011831   0.004850   0.269712
    35  H   -0.015430   0.004016  -0.000528   0.007303  -0.007125   0.008603
    36  H    0.001760  -0.000404   0.000057  -0.000856   0.001518  -0.003873
    37  H    0.000452  -0.000143   0.000013  -0.000049  -0.000032  -0.000409
    38  H   -0.000032   0.000009  -0.000000   0.000002   0.000003   0.000023
    39  H   -0.000000   0.000000   0.000000   0.000000  -0.000000   0.000000
    40  H   -0.002291   0.001001  -0.000321  -0.000075   0.000538   0.001989
    41  H    0.009399  -0.009536   0.001511  -0.001645  -0.001343  -0.000821
              7          8          9         10         11         12
     1  Si   0.751796  -0.303890   0.174856   0.022546   0.073937  -0.040595
     2  H   -0.106985  -0.031273  -0.089049   0.081988   0.012647   0.011440
     3  H   -0.004352   0.051158   0.038982  -0.014395   0.003097  -0.001119
     4  C   -1.380737   0.311022   0.015414  -0.036345  -0.014507   0.000771
     5  C    1.414623   0.004796  -0.208086   0.122650  -0.086325   0.046370
     6  C   -4.469128   1.104321  -0.840789  -0.453974  -0.717794   0.001848
     7  C   19.585071  -7.725053   2.728291  -1.000846   2.015975  -0.119260
     8  C   -7.725053  14.550360  -2.829370   0.126897  -0.532224   0.294719
     9  S    2.728291  -2.829370  21.060439  -2.224965   1.002373  -0.623425
    10  C   -1.000846   0.126897  -2.224965  14.844446  -0.675142  -1.697583
    11  C    2.015975  -0.532224   1.002373  -0.675142  23.620798   3.069728
    12  C   -0.119260   0.294719  -0.623425  -1.697583   3.069728   9.977308
    13  C   -0.327517   0.351379  -0.624699  -0.031587  -3.277148   1.063202
    14  C   -0.090825   0.173701  -0.600645  -0.689618  -2.410279  -1.220464
    15  C    0.085170   0.063883   0.289766   1.392476  -0.127181  -2.102804
    16  N   -0.043859  -0.003715  -0.126963  -0.193637  -0.212762  -0.058615
    17  C   -0.018667  -0.004970  -0.067364  -0.023014  -1.292012  -1.049325
    18  C    0.000817  -0.002896   0.018084  -0.156715  -0.115368   0.468357
    19  N   -0.000002  -0.000020   0.000088  -0.000978   0.008356   0.003070
    20  C    0.000012   0.000009   0.000874   0.003211  -0.042249   0.023621
    21  C   -0.000886   0.000102  -0.010467   0.004982  -0.207618  -0.503439
    22  N    0.000001   0.000002   0.000025  -0.000523  -0.005171  -0.001237
    23  S   -0.000079  -0.000047  -0.000056  -0.005629  -0.008500   0.009337
    24  N    0.000181   0.000791   0.002781  -0.003687  -0.029687   0.013502
    25  C   -0.012039  -0.006902  -0.053834  -0.230492  -0.857247   0.327185
    26  C   -1.604165  -0.587411  -0.638570   2.335779  -5.256335  -1.185797
    27  N    0.039622   0.049673   0.131516  -0.323269   0.464873  -0.023774
    28  C    0.059253  -0.443363   0.191020  -0.706675  -1.278344  -0.065417
    29  C   -0.054110   0.458117  -0.032512   0.366611   0.587965  -0.007410
    30  N    0.024927  -0.296481   0.024618   0.227433   0.131982   0.009761
    31  C   -3.554797   1.861403  -0.683556  -4.835342  -7.151180  -0.692104
    32  H   -0.060141   0.015550   0.009997  -0.005777   0.002820  -0.001310
    33  H    0.023661  -0.023790  -0.010960   0.005088  -0.002947   0.002359
    34  H    0.097154  -0.220195   0.166895  -0.079501   0.013743  -0.018456
    35  H   -0.092036   0.108490  -0.118812  -0.152042  -0.408172   0.326337
    36  H    0.015047  -0.013982   0.042177   0.021228   0.270211   0.061261
    37  H    0.003564   0.003023   0.005227   0.056251   0.139008  -0.020764
    38  H   -0.000263  -0.001038   0.001587  -0.028174  -0.034967   0.027358
    39  H   -0.000000  -0.000000   0.000013   0.000060  -0.001973  -0.000113
    40  H   -0.004045  -0.021250  -0.004440  -0.006529  -0.050116   0.000586
    41  H    0.005949   0.024228   0.002792  -0.024220  -0.006101  -0.002074
             13         14         15         16         17         18
     1  Si  -0.027340  -0.009304   0.006239  -0.001950  -0.001427  -0.000028
     2  H    0.003744   0.002418  -0.002081   0.000397   0.000249   0.000006
     3  H   -0.000081  -0.000171   0.000213  -0.000096  -0.000016   0.000000
     4  C    0.013044   0.003582  -0.000327   0.000749   0.000284   0.000006
     5  C   -0.007785  -0.006807  -0.003462  -0.000617  -0.000086  -0.000033
     6  C    0.151510   0.034061  -0.008853   0.005904   0.005460  -0.000176
     7  C   -0.327517  -0.090825   0.085170  -0.043859  -0.018667   0.000817
     8  C    0.351379   0.173701   0.063883  -0.003715  -0.004970  -0.002896
     9  S   -0.624699  -0.600645   0.289766  -0.126963  -0.067364   0.018084
    10  C   -0.031587  -0.689618   1.392476  -0.193637  -0.023014  -0.156715
    11  C   -3.277148  -2.410279  -0.127181  -0.212762  -1.292012  -0.115368
    12  C    1.063202  -1.220464  -2.102804  -0.058615  -1.049325   0.468357
    13  C   10.819058   0.990612  -2.613797  -0.075824  -1.967257   0.243983
    14  C    0.990612  14.632465  -1.885283   0.194891   4.225477  -1.783720
    15  C   -2.613797  -1.885283  15.721269   0.007056   1.606449  -2.168629
    16  N   -0.075824   0.194891   0.007056   6.943344   0.124082   0.066108
    17  C   -1.967257   4.225477   1.606449   0.124082  21.298007  -8.508967
    18  C    0.243983  -1.783720  -2.168629   0.066108  -8.508967  13.338790
    19  N    0.008546   0.093698   0.035836   0.000613   0.732208  -0.127546
    20  C    0.177873  -0.289862  -0.216720  -0.003340   0.598039  -1.180715
    21  C   -0.872104  -1.889930  -0.165040  -0.003611  -1.779951   0.036656
    22  N   -0.019083   0.067893  -0.017331  -0.000060   0.121394   0.063202
    23  S    0.070735  -0.187934  -0.081360   0.000279  -0.275578   0.103481
    24  N    0.217864  -0.153190   0.002394  -0.001313  -0.386890   0.130943
    25  C    1.994569  -1.856786  -4.939872   0.018375  -6.301027   4.844589
    26  C   -0.457509  -0.967371   0.165337   0.366917   0.147005   0.006020
    27  N   -0.015565  -0.012855  -0.026672  -0.036321  -0.006664   0.002543
    28  C   -0.038285  -0.079264   0.080166  -0.012099   0.004869   0.002303
    29  C    0.002972   0.011261  -0.019770  -0.001523  -0.003700  -0.000444
    30  N   -0.003706  -0.002061   0.002277  -0.000081  -0.000224   0.000019
    31  C    0.071674  -0.154246  -0.018556   0.157608   0.060752   0.003415
    32  H    0.000210   0.000090   0.000074   0.000025   0.000003   0.000001
    33  H    0.001493   0.000224  -0.000156  -0.000012   0.000013  -0.000004
    34  H   -0.014857  -0.003307   0.003890   0.000176  -0.000710  -0.000013
    35  H    0.277562   0.218689  -0.099415   0.025428   0.089043   0.030894
    36  H    0.236412  -0.144539   0.208025  -0.008765  -0.108444  -0.081131
    37  H    0.036053  -0.361743   1.018010  -0.180606  -0.041351  -0.229505
    38  H   -0.057256  -0.144159  -0.360843   0.010224  -0.981218   1.273318
    39  H   -0.001237  -0.012628  -0.010435  -0.000027  -0.018908  -0.015668
    40  H   -0.000558  -0.001505   0.003206   0.001713   0.000784   0.000164
    41  H   -0.000557  -0.000612  -0.000001   0.000145  -0.000078  -0.000004
             19         20         21         22         23         24
     1  Si  -0.000000   0.000001  -0.000039  -0.000000  -0.000005   0.000017
     2  H    0.000000   0.000000   0.000005   0.000000   0.000001  -0.000003
     3  H   -0.000000   0.000000  -0.000000   0.000000  -0.000000   0.000000
     4  C    0.000000  -0.000000   0.000006   0.000000   0.000001  -0.000003
     5  C    0.000000  -0.000000  -0.000012  -0.000000   0.000004   0.000028
     6  C    0.000000  -0.000009   0.000245  -0.000000   0.000011   0.000049
     7  C   -0.000002   0.000012  -0.000886   0.000001  -0.000079   0.000181
     8  C   -0.000020   0.000009   0.000102   0.000002  -0.000047   0.000791
     9  S    0.000088   0.000874  -0.010467   0.000025  -0.000056   0.002781
    10  C   -0.000978   0.003211   0.004982  -0.000523  -0.005629  -0.003687
    11  C    0.008356  -0.042249  -0.207618  -0.005171  -0.008500  -0.029687
    12  C    0.003070   0.023621  -0.503439  -0.001237   0.009337   0.013502
    13  C    0.008546   0.177873  -0.872104  -0.019083   0.070735   0.217864
    14  C    0.093698  -0.289862  -1.889930   0.067893  -0.187934  -0.153190
    15  C    0.035836  -0.216720  -0.165040  -0.017331  -0.081360   0.002394
    16  N    0.000613  -0.003340  -0.003611  -0.000060   0.000279  -0.001313
    17  C    0.732208   0.598039  -1.779951   0.121394  -0.275578  -0.386890
    18  C   -0.127546  -1.180715   0.036656   0.063202   0.103481   0.130943
    19  N    6.735815   0.022532   0.150332   0.000326  -0.003196   0.000902
    20  C    0.022532  12.178700  -2.731677  -0.571108  -0.022478   0.124194
    21  C    0.150332  -2.731677  19.108720  -0.292891   0.055203  -0.036158
    22  N    0.000326  -0.571108  -0.292891   7.436384   0.005770  -0.151726
    23  S   -0.003196  -0.022478   0.055203   0.005770  15.600566  -0.062872
    24  N    0.000902   0.124194  -0.036158  -0.151726  -0.062872   7.856370
    25  C   -0.260666  -2.510550  -4.631902   0.756744  -0.059830  -0.052927
    26  C    0.000360  -0.002980  -0.000085  -0.000072  -0.000090  -0.003517
    27  N   -0.000001   0.000047  -0.000282  -0.000000  -0.000009  -0.000005
    28  C    0.000009   0.000009  -0.000112  -0.000000  -0.000005  -0.000040
    29  C   -0.000001  -0.000002  -0.000014   0.000000   0.000001   0.000010
    30  N    0.000000   0.000000  -0.000002  -0.000000   0.000000   0.000000
    31  C    0.000018  -0.000218   0.000473   0.000001   0.000037  -0.000464
    32  H   -0.000000   0.000000   0.000000   0.000000   0.000000  -0.000000
    33  H   -0.000000  -0.000000   0.000001  -0.000000  -0.000000   0.000001
    34  H   -0.000000   0.000008  -0.000035  -0.000000  -0.000034   0.000008
    35  H    0.000318  -0.002897   0.016101   0.000164   0.003236  -0.000584
    36  H   -0.001726  -0.003336  -0.120706   0.008712  -0.014888  -0.025237
    37  H    0.009034  -0.018166  -0.031077  -0.000659  -0.001579   0.001689
    38  H   -0.203439   0.011837   0.058790   0.002345   0.004478  -0.000021
    39  H   -0.118413   0.752155  -0.415202  -0.003495  -0.002803  -0.006053
    40  H    0.000002  -0.000002   0.000006  -0.000000   0.000000  -0.000002
    41  H   -0.000000  -0.000000  -0.000001   0.000000  -0.000000   0.000000
             25         26         27         28         29         30
     1  Si  -0.000725   0.044296   0.004450  -0.096226   0.165822   0.012005
     2  H    0.000161   0.102066  -0.001255   0.025247  -0.118746   0.005391
     3  H   -0.000006   0.001033   0.000542  -0.008190   0.026768   0.009058
     4  C    0.000151   0.009478  -0.001955  -0.008636   0.011369   0.052733
     5  C   -0.000320   0.061238   0.001220   0.028882  -0.053446  -0.042962
     6  C    0.002416  -0.021932  -0.013091   0.081094  -0.067258  -0.027769
     7  C   -0.012039  -1.604165   0.039622   0.059253  -0.054110   0.024927
     8  C   -0.006902  -0.587411   0.049673  -0.443363   0.458117  -0.296481
     9  S   -0.053834  -0.638570   0.131516   0.191020  -0.032512   0.024618
    10  C   -0.230492   2.335779  -0.323269  -0.706675   0.366611   0.227433
    11  C   -0.857247  -5.256335   0.464873  -1.278344   0.587965   0.131982
    12  C    0.327185  -1.185797  -0.023774  -0.065417  -0.007410   0.009761
    13  C    1.994569  -0.457509  -0.015565  -0.038285   0.002972  -0.003706
    14  C   -1.856786  -0.967371  -0.012855  -0.079264   0.011261  -0.002061
    15  C   -4.939872   0.165337  -0.026672   0.080166  -0.019770   0.002277
    16  N    0.018375   0.366917  -0.036321  -0.012099  -0.001523  -0.000081
    17  C   -6.301027   0.147005  -0.006664   0.004869  -0.003700  -0.000224
    18  C    4.844589   0.006020   0.002543   0.002303  -0.000444   0.000019
    19  N   -0.260666   0.000360  -0.000001   0.000009  -0.000001   0.000000
    20  C   -2.510550  -0.002980   0.000047   0.000009  -0.000002   0.000000
    21  C   -4.631902  -0.000085  -0.000282  -0.000112  -0.000014  -0.000002
    22  N    0.756744  -0.000072  -0.000000  -0.000000   0.000000  -0.000000
    23  S   -0.059830  -0.000090  -0.000009  -0.000005   0.000001   0.000000
    24  N   -0.052927  -0.003517  -0.000005  -0.000040   0.000010   0.000000
    25  C   19.730312  -0.042970  -0.003114  -0.002328   0.000091  -0.000052
    26  C   -0.042970  13.721630   0.226679  -0.998670   0.558834   0.200942
    27  N   -0.003114   0.226679   7.075160  -0.454033   0.356871  -0.032804
    28  C   -0.002328  -0.998670  -0.454033   8.973459  -2.739071   0.064485
    29  C    0.000091   0.558834   0.356871  -2.739071   8.268486   0.011559
[...]
 139,0.00000174,0.00000122,-0.00000051,-0.00000037,-0.00000089,0.000002
 81,-0.00000045,0.00000091,-0.00036695,-0.00028991,-0.00077095,0.001195
 00,-0.00046896,-0.00060893,-0.11958237,0.11100549,0.00001649,-0.000042
 99,-0.00000029,0.00000008,0.00001195,0.00000069,-0.00000519,0.00000945
 ,-0.00000199,0.00001109,0.00001967,-0.00002157,-0.00002240,0.00001117,
 0.00001575,0.00001493,-0.00002576,-0.00001283,-0.00005556,0.00000719,0
 .00001307,0.00003978,0.00009556,-0.00006219,0.00002299,-0.00000018,-0.
 00004079,0.00048491,-0.00049598,0.00040498,0.00607139,0.00532748,0.004
 05483,0.00011551,-0.00019884,-0.00042855,0.00176859,0.00476474,0.00200
 296,-0.01067974,0.00550367,0.00863650,0.03999868,-0.01416983,-0.053033
 54,0.02361443,-0.00825648,-0.01177756,-0.00031571,-0.00083363,-0.00170
 456,-0.00028022,0.00134997,-0.00088069,0.00000037,-0.00033998,-0.00007
 810,-0.00003562,0.00004308,0.00012143,0.00005762,-0.00006464,0.0000105
 0,0.00001090,0.00002220,-0.00001297,-0.00001754,-0.00020440,-0.0000154
 4,-0.00007291,0.00008419,0.00006035,0.00013158,-0.00029433,0.00015613,
 -0.00000563,-0.00000842,-0.00003807,-0.00004004,-0.00018132,0.00001394
 ,-0.00001640,0.00010312,0.00000421,-0.00001145,-0.00002274,0.00003188,
 -0.00000801,0.00002793,-0.00001507,0.00007240,-0.00003674,-0.00004797,
 0.00000467,0.00000113,0.00000084,0.00000407,-0.00000084,-0.00000277,0.
 00000065,0.00000470,0.00000632,-0.00049994,-0.00074697,-0.00093637,-0.
 00087411,0.00020421,0.00002812,-0.05992678,0.00781372,0.05533424,0.000
 00516,-0.00002709,0.00000542,0.00000042,0.00000670,-0.00000076,-0.0000
 0197,0.00000678,-0.00000268,0.00000914,0.00000980,-0.00001407,-0.00000
 861,0.00001258,0.00000930,0.00000031,-0.00000814,-0.00000279,-0.000007
 91,-0.00001203,0.00000570,0.00001054,0.00006917,-0.00000044,-0.0000404
 7,-0.00000274,0.00002007,-0.00000814,0.00002249,-0.00001195,0.00044080
 ,-0.00056177,0.00013758,0.00018170,0.00061578,-0.00033344,-0.00084220,
 -0.00006708,0.00053530,-0.00048525,0.00109169,-0.00315444,0.00063246,-
 0.00031483,-0.00019709,-0.00088675,-0.00007432,0.00025546,0.00544469,0
 .01644369,0.00269262,-0.04849575,-0.02249394,0.00480887,-0.00716407,-0
 .02531214,0.00497017,0.00129867,-0.00249143,0.00497968,-0.00079241,0.0
 0026017,0.00033384,0.00010886,-0.00029518,-0.00037097,-0.00081652,0.00
 039972,-0.00064461,0.00077816,0.00080124,0.00022970,0.00240384,0.00117
 481,0.00613354,-0.00000394,-0.00001644,0.00001082,-0.00000797,0.000012
 35,-0.00001417,0.00000033,-0.00000683,0.00000214,0.00000210,-0.0000133
 9,0.00000423,-0.00000349,0.00002829,-0.00001024,0.00004020,-0.00004521
 ,-0.00003198,0.00000096,0.00000051,-0.00000072,0.00000271,-0.00000166,
 -0.00000248,0.00000023,0.00000154,0.00000290,0.00000039,-0.00000267,0.
 00000084,-0.00000380,-0.00000821,-0.00000380,0.00030574,0.00030486,0.0
 0043752,0.04765420,0.00000537,0.00003073,-0.00000461,-0.00000376,-0.00
 000734,-0.00000418,0.00000046,-0.00000639,0.00000463,-0.00001452,-0.00
 002330,0.00000797,0.00002502,-0.00001580,-0.00001156,-0.00002925,0.000
 03165,-0.00000670,0.00002085,0.00000761,0.00001593,-0.00000377,-0.0000
 4123,-0.00000929,0.00001607,-0.00002043,-0.00002245,-0.00001731,0.0000
 0804,0.00001086,-0.00021173,0.00021034,-0.00018178,-0.00015422,-0.0002
 4563,0.00022477,0.00064827,0.00004015,-0.00029860,-0.00089177,0.000213
 01,0.00099668,0.00079177,-0.00029159,0.00074916,-0.00014259,0.00024797
 ,0.00020011,-0.00231243,-0.01410647,0.00127905,-0.02234799,-0.33713250
 ,-0.00538886,-0.00637039,-0.00875769,0.00686876,-0.00088291,0.00212455
 ,0.00037592,0.00013512,0.00023971,-0.00022225,-0.00009180,0.00009505,0
 .00008248,0.00027087,-0.00026044,-0.00016278,-0.00014044,-0.00067019,0
 .00011305,0.00153316,0.00000987,-0.00220260,0.00000257,0.00000128,-0.0
 0002215,-0.00000864,-0.00001284,0.00000320,-0.00000243,0.00001560,0.00
 000077,0.00000949,0.00000242,-0.00000153,-0.00001669,-0.00002017,0.000
 01036,-0.00001741,0.00002885,0.00003153,-0.00000464,0.00000223,0.00000
 902,-0.00000558,0.00000242,0.00000118,0.00000497,-0.00000549,0.0000011
 4,-0.00000915,0.00000833,-0.00001895,-0.00006417,0.00000382,0.00001842
 ,-0.00085498,0.00052409,0.00054156,0.03116487,0.35809489,0.00000600,0.
 00002494,-0.00000472,-0.00000246,-0.00000573,0.00000114,-0.00000073,-0
 .00000641,0.00000231,-0.00001245,-0.00001398,0.00001288,0.00000784,-0.
 00001136,-0.00000978,-0.00000147,0.00001204,0.00000472,0.00000230,0.00
 000158,-0.00001461,-0.00000376,-0.00001598,0.00001237,0.00001080,-0.00
 002002,-0.00001039,-0.00003434,0.00003851,-0.00002970,0.00017754,-0.00
 007060,0.00004142,-0.00002669,0.00027043,0.00001170,-0.00028417,0.0000
 5050,0.00034708,-0.00171279,0.00034957,-0.00176700,0.00131585,-0.00078
 484,-0.00102487,-0.00055102,0.00020926,0.00005905,-0.00120729,-0.01882
 824,0.00587327,0.00585431,-0.00616159,-0.04700038,0.00619310,0.0269882
 5,-0.00508960,0.00536399,0.00192259,0.00048045,0.00019364,0.00009124,-
 0.00055897,-0.00030153,0.00003705,0.00007404,-0.00069782,-0.00025825,-
 0.00066248,0.00023791,-0.00114542,0.00064372,0.00615412,-0.00109068,0.
 00107134,-0.00000764,-0.00001288,-0.00000408,-0.00002108,-0.00000396,0
 .00000182,-0.00000634,0.00000463,0.00001151,0.00001091,0.00001010,-0.0
 0001156,-0.00001099,-0.00001256,0.00000840,-0.00000157,0.00001198,0.00
 002327,-0.00000067,0.00000041,0.00000135,-0.00000252,0.00000306,0.0000
 0360,0.00000244,-0.00000076,-0.00000146,-0.00002493,-0.00000444,-0.000
 01337,-0.00013226,-0.00000201,-0.00000911,0.00030380,0.00066175,-0.001
 78168,-0.02105503,-0.00291655,0.04910134,0.00000540,-0.00001314,-0.000
 00109,-0.00000028,0.00000335,-0.00000060,-0.00000123,0.00000317,0.0000
 0022,0.00000361,-0.00000106,-0.00000824,0.00000325,0.00000792,0.000003
 50,-0.00001302,0.00000791,-0.00000259,0.00000891,-0.00001282,0.0000067
 9,0.00000315,0.00004930,-0.00000273,-0.00002517,0.00000304,0.00000048,
 0.00000996,0.00001571,-0.00003915,0.00001324,-0.00002225,0.00002564,-0
 .00000353,0.00017291,0.00006683,-0.00015737,-0.00006454,0.00019324,-0.
 00100304,0.00018770,-0.00112222,0.00014900,-0.00009610,-0.00010293,0.0
 0004245,0.00003147,0.00004689,-0.00052354,0.00017843,0.00000242,0.0080
 1762,0.00037879,0.00484338,-0.00310322,-0.00742890,-0.00361749,-0.1728
 4224,-0.05175048,0.13849260,-0.00430172,-0.00629444,0.01175352,-0.0000
 1902,-0.00031860,-0.00158510,-0.00089404,0.00024634,0.00022891,-0.0003
 6668,0.00019795,0.00058372,0.00244199,0.00208547,0.00201712,-0.0000027
 1,-0.00003900,0.00001218,-0.00000275,0.00001296,0.00000228,-0.00000642
 ,-0.00000172,0.00000423,0.00000582,-0.00000934,-0.00000370,-0.00000710
 ,0.00001955,-0.00000064,0.00002596,-0.00003987,-0.00002721,-0.00000112
 ,0.00000112,0.00000185,0.00000054,-0.00000035,-0.00000201,0.00000102,-
 0.00000052,0.00000254,-0.00000955,-0.00000582,0.00001259,0.00000166,-0
 .00002173,-0.00004863,-0.00001372,0.00002735,-0.00001264,0.00024359,-0
 .00003010,0.00026274,0.17231815,0.00000072,0.00001826,-0.00000359,-0.0
 0000087,-0.00000369,-0.00000064,0.00000059,-0.00000433,0.00000237,-0.0
 0000827,-0.00001116,0.00000569,0.00000998,-0.00000989,-0.00000454,-0.0
 0000910,0.00001160,-0.00000341,0.00000451,0.00000727,0.00000235,0.0000
 0224,-0.00003158,0.00000058,0.00001201,-0.00001020,-0.00000827,-0.0000
 0570,-0.00000698,0.00002168,0.00000026,0.00005168,-0.00004133,-0.00005
 623,-0.00004426,0.00002144,0.00005729,-0.00008219,0.00003567,-0.000161
 60,0.00035204,0.00018111,0.00006058,-0.00000056,0.00001447,-0.00003527
 ,0.00000733,0.00002100,-0.00021139,-0.00080733,0.00027496,-0.00110402,
 -0.00327246,0.00040255,-0.02436597,-0.01935269,0.02504551,-0.05122085,
 -0.07587354,0.05200721,0.01407359,0.00988320,-0.01467377,-0.00083194,0
 .00197172,0.00101260,0.00011118,0.00039301,-0.00007130,0.00124925,-0.0
 0027689,-0.00137069,0.00067801,-0.00365633,-0.00094879,0.00000143,0.00
 001077,-0.00001375,-0.00000420,-0.00000724,0.00000276,0.00000157,0.000
 00355,-0.00000376,0.00000198,0.00000738,0.00000114,-0.00000486,-0.0000
 1485,0.00000464,-0.00001891,0.00002417,0.00002155,-0.00000152,0.000000
 72,0.00000363,-0.00000287,0.00000193,0.00000136,0.00000233,-0.00000123
 ,0.00000021,-0.00001268,-0.00000452,0.00000517,-0.00001795,0.00000324,
 0.00000645,-0.00003146,0.00002384,-0.00003254,-0.00067980,-0.00031216,
 0.00068766,0.06251809,0.09101800,0.00000028,-0.00001010,0.00000397,0.0
 0000003,0.00000163,0.00000058,-0.00000066,0.00000250,-0.00000242,0.000
 00531,0.00001103,-0.00000157,-0.00001079,0.00000541,0.00000334,0.00001
 488,-0.00001572,0.00000314,-0.00001379,-0.00000163,-0.00000570,0.00000
 500,0.00002145,0.00000209,0.00000146,0.00000200,0.00000636,-0.00001695
 ,-0.00000656,-0.00002085,0.00001502,-0.00002176,-0.00000500,-0.0000078
 3,0.00012318,0.00009034,-0.00008738,-0.00012115,0.00013480,-0.00101732
 ,0.00015705,-0.00093551,0.00012364,0.00001990,-0.00007599,-0.00000848,
 0.00004699,0.00001280,-0.00011267,-0.00050122,-0.00045741,0.00462008,-
 0.00095344,0.00769662,-0.00409787,0.00656142,-0.00168208,0.13847994,0.
 05305525,-0.18150710,0.01250519,0.00658273,-0.00574407,-0.00157152,0.0
 0056002,0.00017110,0.00019581,-0.00017082,-0.00092121,0.00059356,-0.00
 044038,-0.00048550,0.00212155,-0.00221839,0.00209925,-0.00000476,0.000
 00042,0.00001129,0.00000367,0.00000235,-0.00000250,-0.00000134,-0.0000
 0075,0.00000464,-0.00000171,-0.00000286,-0.00000283,0.00000527,0.00000
 801,-0.00000280,0.00000980,-0.00001216,-0.00001498,0.00000168,-0.00000
 107,-0.00000374,0.00000276,-0.00000188,-0.00000015,-0.00000245,0.00000
 124,-0.00000138,-0.00000587,-0.00000837,0.00001482,-0.00003560,-0.0000
 2450,-0.00004361,0.00000474,0.00002307,-0.00000832,0.00027399,-0.00007
 020,0.00020361,-0.15198720,-0.06260680,0.18146468,0.00022422,-0.000110
 68,-0.00024729,-0.00005521,0.00000650,0.00004594,-0.00002478,0.0000046
 4,0.00004387,-0.00001589,0.00000113,0.00001624,-0.00001790,-0.00000705
 ,0.00000129,0.00003661,0.00002447,-0.00002640,0.00002282,0.00003090,0.
 00008138,-0.00062357,-0.00003960,-0.00066262,-0.00043378,-0.00004369,-
 0.00051136,0.00048753,0.00016608,-0.00000912,0.00017226,-0.00013643,0.
 00048311,-0.00002489,0.00004852,-0.00006581,-0.00007142,-0.00001348,0.
 00002417,0.00002814,-0.00007060,0.00001905,0.00002577,-0.00001031,-0.0
 0014460,0.00004415,-0.00008440,0.00007244,0.00001339,0.00001614,0.0000
 2204,-0.00000609,-0.00000877,0.00000072,0.00000001,0.00000456,-0.00000
 646,0.00000007,0.00000032,0.00000232,-0.00000051,0.00000256,-0.0000011
 7,0.00000298,0.00000232,-0.00000466,-0.00000111,-0.00000177,0.00000314
 ,-0.00000005,0.00000331,-0.00000035,0.00000210,-0.00000392,-0.00000493
 ,0.00847369,-0.00221047,0.00602979,0.00169047,-0.00674763,-0.01085702,
 -0.10422399,0.09149219,0.07593491,-0.00242738,0.01560241,0.00839539,-0
 .00107268,-0.00090368,0.00488410,0.00060580,-0.00122610,0.00030329,-0.
 00001165,0.00001093,0.00000734,-0.00000076,0.00001083,0.00000305,-0.00
 000184,0.00001370,0.00001147,-0.00000515,-0.00000915,-0.00000314,-0.00
 000289,0.00000057,0.00000587,-0.00001044,-0.00000671,0.00000109,0.0000
 0128,0.00000039,0.00000416,0.00000101,0.00000043,0.00000053,0.09796309
 ,0.00003877,-0.00013694,-0.00004257,-0.00000183,0.00002857,0.00001062,
 -0.00000741,0.00002610,0.00000150,0.00003250,0.00004492,-0.00003435,-0
 .00003234,0.00004022,0.00002418,0.00003749,-0.00003470,-0.00002159,-0.
 00000185,-0.00006810,-0.00001010,0.00006892,0.00017102,-0.00010323,0.0
 0010463,-0.00035229,-0.00006345,0.00059861,-0.00029731,-0.00068928,0.0
 0017255,0.00014500,-0.00017871,-0.00005746,-0.00007634,0.00008338,0.00
 003990,-0.00000386,-0.00001871,-0.00004569,-0.00002982,0.00005080,0.00
 007924,-0.00001773,-0.00002657,-0.00019945,-0.00004545,0.00006573,0.00
 004265,0.00002760,-0.00003456,-0.00001783,-0.00001033,0.00002038,0.000
 00196,0.00002250,-0.00000742,-0.00001346,-0.00002166,0.00000249,-0.000
 00467,0.00000872,0.00000879,-0.00001402,-0.00000788,0.00001500,0.00001
 431,0.00000967,-0.00001350,-0.00000938,-0.00000683,0.00000315,-0.00000
 142,-0.00000801,0.00000579,-0.00065526,-0.00229986,0.00123973,0.009956
 00,-0.03612119,-0.01092417,0.09065628,-0.19304300,-0.10331236,-0.00422
 225,0.00867089,0.00493624,-0.00131418,0.00064912,0.00144869,-0.0003996
 4,-0.00093383,0.00054015,0.00000518,0.00000003,-0.00000703,0.00000942,
 -0.00000187,-0.00000836,-0.00000686,0.00002111,0.00000279,-0.00000528,
 0.00001043,-0.00001128,-0.00000360,-0.00000350,0.00000292,-0.00002864,
 -0.00001543,0.00000712,0.00000355,-0.00000967,-0.00000320,0.00000070,-
 0.00000264,0.00000238,-0.09531946,0.22366885,-0.00030520,0.00018765,0.
 00032425,0.00005990,-0.00001220,-0.00004417,0.00004934,-0.00001557,-0.
 00007368,0.00001127,-0.00000454,-0.00001516,0.00000060,-0.00001115,-0.
 00001495,-0.00000729,-0.00003014,0.00003007,0.00004854,-0.00004302,0.0
 0001919,-0.00042814,-0.00015997,-0.00058793,-0.00060843,0.00019481,-0.
 00018329,-0.00002508,-0.00012174,0.00054200,0.00013818,-0.00010419,0.0
 0036916,-0.00000347,0.00000123,-0.00003175,-0.00004919,-0.00001445,0.0
 0000921,0.00002625,-0.00007210,0.00004632,0.00005180,0.00003738,-0.000
 16262,-0.00003991,-0.00017541,0.00003902,0.00003386,0.00001630,-0.0000
 0703,-0.00000962,0.00001821,0.00000733,-0.00000206,-0.00000107,-0.0000
 0493,-0.00000400,-0.00000516,0.00000164,-0.00000443,0.00000101,0.00000
 515,-0.00000743,-0.00000128,0.00000667,0.00000703,-0.00000300,-0.00000
 580,-0.00000171,-0.00000183,-0.00000076,0.00000463,0.00000024,-0.00000
 096,0.00602569,0.00391489,0.00611313,-0.01172325,0.00820478,0.00641404
 ,0.07686416,-0.10378397,-0.12713359,0.00816167,-0.01890568,-0.00428651
 ,0.00551923,0.00091277,-0.00311802,0.00005044,0.00184697,0.00041553,0.
 00001063,-0.00001423,-0.00001281,0.00000364,-0.00001367,0.00000115,0.0
 0001392,-0.00002235,-0.00000914,-0.00000257,-0.00000881,-0.00000040,-0
 .00000082,0.00000024,0.00000263,-0.00000578,0.00000268,-0.00000237,0.0
 0000339,-0.00000317,0.00000006,0.00000089,-0.00000153,0.00000146,-0.08
 313206,0.10766292,0.12182239,0.00000035,0.00022885,-0.00006393,-0.0000
 3069,-0.00005891,0.00000300,0.00003275,-0.00005790,-0.00003281,0.00004
 051,-0.00002661,0.00009216,-0.00007950,-0.00004687,-0.00008292,0.00005
 137,-0.00001704,-0.00000238,0.00013201,0.00002413,0.00019996,0.0007541
 9,0.00018423,-0.00014971,-0.00048385,0.00024692,-0.00048509,-0.0005941
 8,-0.00016763,-0.00061709,0.00002084,0.00001693,0.00001119,0.00000458,
 0.00004543,0.00002994,0.00003625,-0.00002467,-0.00001146,-0.00000990,0
 .00001061,0.00001398,0.00004423,-0.00000781,-0.00002187,-0.00003177,-0
 .00004320,-0.00004881,0.00001791,0.00000609,-0.00001391,-0.00000281,0.
 00000391,0.00000460,-0.00000454,-0.00000298,-0.00000054,0.00000016,-0.
 00000197,0.00000181,-0.00000251,-0.00000282,0.00000219,-0.00000486,-0.
 00000069,0.00000440,0.00000180,-0.00000107,-0.00000218,0.00000038,-0.0
 0000363,-0.00000198,-0.00000229,0.00000211,0.00000490,-0.00002413,0.00
 146914,0.00093529,-0.00108127,-0.00126153,0.00483797,0.00291145,-0.018
 58015,0.00306030,-0.05650097,-0.05171984,0.02479584,-0.00093588,0.0208
 5976,-0.00843678,0.00644408,0.00326051,0.00755153,-0.00003976,-0.00000
 403,-0.00003577,-0.00000712,-0.00000991,0.00000125,0.00006942,-0.00000
 364,0.00005861,0.00001516,-0.00002136,0.00000568,-0.00000272,-0.000002
 25,-0.00000361,-0.00000749,0.00000131,0.00000013,0.00000280,-0.0000005
 8,-0.00000188,0.00000113,-0.00000055,-0.00000001,-0.00076341,0.0004993
 1,-0.00072463,0.05002825,-0.00022977,-0.00009818,0.00025476,0.00007388
 ,0.00003683,-0.00006155,0.00005218,0.00003405,-0.00008107,0.00005782,0
 .00004365,-0.00006478,-0.00001398,0.00000516,0.00001380,0.00001772,-0.
 00003908,-0.00003152,-0.00000923,-0.00002080,0.00004341,-0.00027195,-0
 .00055680,0.00034937,0.00010218,-0.00026826,-0.00013365,-0.00019279,0.
 00000374,0.00012845,0.00010422,0.00005676,-0.00010620,-0.00003882,-0.0
 0006157,0.00007454,0.00004282,0.00000027,-0.00002721,-0.00006912,0.000
 00891,0.00001930,0.00007108,-0.00001713,-0.00000141,-0.00011202,-0.000
 04541,0.00002756,0.00004420,0.00003610,-0.00002995,-0.00000966,-0.0000
 0453,0.00001525,-0.00000469,0.00000230,-0.00000645,0.00000174,-0.00001
 101,0.00000741,-0.00001676,-0.00000159,0.00000706,-0.00001588,-0.00000
 442,0.00001861,0.00001210,-0.00000386,-0.00001140,-0.00000290,-0.00000
 445,-0.00000117,-0.00000309,-0.00000310,0.00000286,0.00036088,0.000454
 10,-0.00037735,-0.00092623,0.00045101,0.00133763,0.00160233,-0.0015648
 3,-0.00161000,-0.05038558,-0.29953095,0.07352447,0.00322360,-0.0283047
 7,-0.00241676,0.00181125,0.00087218,-0.00124151,0.00001158,-0.00001615
 ,-0.00001337,0.00000394,-0.00000452,-0.00000746,0.00000458,0.00000544,
 0.00000590,-0.00000626,0.00000825,-0.00001092,0.00000129,-0.00000606,0
 .00000613,-0.00001590,-0.00000062,0.00000279,0.00000431,-0.00000326,-0
 .00000612,0.00000153,-0.00000300,0.00000172,-0.00048898,0.00000349,0.0
 0052814,0.04520839,0.32855212,-0.00000859,-0.00026806,-0.00002297,-0.0
 0003710,0.00006755,0.00004035,-0.00001313,0.00006448,-0.00002158,0.000
 08785,0.00004136,0.00002146,-0.00009492,0.00003867,-0.00005511,0.00001
 335,0.00001820,0.00003176,0.00015712,-0.00001021,0.00014136,-0.0001240
 6,-0.00027041,0.00072920,-0.00050362,-0.00030199,-0.00029614,-0.000578
 23,-0.00000677,-0.00040770,0.00006632,-0.00012623,-0.00000266,0.000003
 69,0.00001774,0.00002906,0.00003658,-0.00000465,-0.00001559,-0.0000175
 8,0.00002749,-0.00003145,-0.00006345,-0.00002424,0.00004029,0.00011003
 ,0.00012655,-0.00001584,-0.00001737,-0.00000117,0.00001038,0.00000248,
 -0.00000494,-0.00000326,0.00000204,0.00000166,-0.00000180,0.00000241,0
 .00000292,-0.00000139,0.00000261,0.00000170,-0.00000227,0.00000514,0.0
 0000197,-0.00000670,-0.00000299,0.00000049,0.00000410,-0.00000061,0.00
 000347,0.00000105,0.00000482,-0.00000450,-0.00000245,0.00094320,-0.001
 58730,-0.00022605,0.00476510,0.00156460,-0.00302767,0.00198130,0.02199
 657,0.00157141,0.02488330,0.07475628,-0.07078033,-0.00756615,-0.022342
 49,0.00277437,0.00753846,-0.00305598,0.00486241,-0.00003799,0.00000347
 ,-0.00002765,0.00000112,0.00001207,-0.00000882,0.00005527,0.00001624,0
 .00005512,-0.00000387,-0.00000424,-0.00000328,-0.00000249,-0.00000005,
 -0.00000200,0.00000882,0.00000078,0.00000696,-0.00000143,0.00000168,0.
 00000331,-0.00000040,0.00000094,-0.00000017,-0.00071970,-0.00062430,-0
 .00047456,-0.03087737,-0.07012933,0.06511485\\-0.00000476,0.00000249,0
 .00000155,-0.00000013,0.00000074,0.00000136,0.00000161,0.00000085,-0.0
 0000006,0.00000159,0.00000403,-0.00000196,-0.00000190,-0.00000212,0.00
 000309,0.00000260,0.00000170,-0.00000412,0.00000206,0.00000056,-0.0000
 0016,-0.00000282,-0.00000552,-0.00000130,0.00000301,0.00000382,0.00000
 183,-0.00000592,-0.00000847,0.00001133,0.00001118,-0.00000123,-0.00001
 525,-0.00000305,0.00000056,0.00000092,0.00000244,0.00000848,-0.0000079
 3,-0.00001006,-0.00000635,0.00002133,0.00000845,0.00000992,-0.00001125
 ,-0.00000773,-0.00000094,0.00001129,0.00000850,-0.00000182,-0.00001687
 ,-0.00000460,-0.00000113,-0.00000100,-0.00000376,0.00000538,0.00000129
 ,0.00000785,-0.00001288,0.00000240,-0.00000138,0.00000343,-0.00000019,
 -0.00000176,-0.00000577,0.00000299,-0.00000472,0.00000327,-0.00000055,
 0.00000110,-0.00000128,0.00000706,0.00000212,-0.00000384,-0.00000383,-
 0.00000193,0.00000962,-0.00000678,0.00000091,-0.00000150,0.00000123,-0
 .00000266,0.00000086,0.00000010,-0.00000028,0.00000174,0.00000127,0.00
 000158,-0.00000118,-0.00000110,-0.00000109,0.00000189,0.00000413,0.000
 00029,-0.00000034,-0.00000032,-0.00000042,0.00000167,-0.00000034,-0.00
 000081,0.00000071,0.00000133,0.00000062,-0.00000328,0.00000276,0.00000
 142,-0.00000022,-0.00000355,0.00000110,-0.00000017,-0.00000396,0.00000
 278,-0.00000288,0.00000385,-0.00000170,0.00000010,-0.00000251,0.000000
 53,-0.00000080,0.00000131,-0.00000026,-0.00000011,0.00000061\\\@


 TELEVISION IS CALLED A MEDIUM BECAUSE IT ISN'T
 RARE, AND IT ISN'T WELL DONE.
 Job cpu time:  0 days 18 hours 26 minutes  8.9 seconds.
 File lengths (MBytes):  RWF=   1751 Int=      0 D2E=      0 Chk=     30 Scr=      1
 Normal termination of Gaussian 09 at Mon Dec 30 07:46:55 2013.
