 Entering Gaussian System, Link 0=g09
 Initial command:
 /opt/gaussian/g09/l1.exe /panfs/panfs.cluster/home/shuo/Gau-31435.inp -scrdir=/panfs/panfs.cluster/home/shuo/
 Default is to use a total of  12 processors:
                               12 via shared-memory
                                1 via Linda
 Entering Link 1 = /opt/gaussian/g09/l1.exe PID=     31436.
  
 Copyright (c) 1988,1990,1992,1993,1995,1998,2003,2009,2011,
            Gaussian, Inc.  All Rights Reserved.
  
 This is part of the Gaussian(R) 09 program.  It is based on
 the Gaussian(R) 03 system (copyright 2003, Gaussian, Inc.),
 the Gaussian(R) 98 system (copyright 1998, Gaussian, Inc.),
 the Gaussian(R) 94 system (copyright 1995, Gaussian, Inc.),
 the Gaussian 92(TM) system (copyright 1992, Gaussian, Inc.),
 the Gaussian 90(TM) system (copyright 1990, Gaussian, Inc.),
 the Gaussian 88(TM) system (copyright 1988, Gaussian, Inc.),
 the Gaussian 86(TM) system (copyright 1986, Carnegie Mellon
 University), and the Gaussian 82(TM) system (copyright 1983,
 Carnegie Mellon University). Gaussian is a federally registered
 trademark of Gaussian, Inc.
  
 This software contains proprietary and confidential information,
 including trade secrets, belonging to Gaussian, Inc.
  
 This software is provided under written license and may be
 used, copied, transmitted, or stored only in accord with that
 written license.
  
 The following legend is applicable only to US Government
 contracts under FAR:
  
                    RESTRICTED RIGHTS LEGEND
  
 Use, reproduction and disclosure by the US Government is
 subject to restrictions as set forth in subparagraphs (a)
 and (c) of the Commercial Computer Software - Restricted
 Rights clause in FAR 52.227-19.
  
 Gaussian, Inc.
 340 Quinnipiac St., Bldg. 40, Wallingford CT 06492
  
  
 ---------------------------------------------------------------
 Warning -- This program may not be used in any manner that
 competes with the business of Gaussian, Inc. or will provide
 assistance to any competitor of Gaussian, Inc.  The licensee
 of this program is prohibited from giving any competitor of
 Gaussian, Inc. access to this program.  By using this program,
 the user acknowledges that Gaussian, Inc. is engaged in the
 business of creating and licensing software in the field of
 computational chemistry and represents and warrants to the
 licensee that it is not a competitor of Gaussian, Inc. and that
 it will not use this program in any manner prohibited above.
 ---------------------------------------------------------------
  

 Cite this work as:
 Gaussian 09, Revision C.01,
 M. J. Frisch, G. W. Trucks, H. B. Schlegel, G. E. Scuseria, 
 M. A. Robb, J. R. Cheeseman, G. Scalmani, V. Barone, B. Mennucci, 
 G. A. Petersson, H. Nakatsuji, M. Caricato, X. Li, H. P. Hratchian, 
 A. F. Izmaylov, J. Bloino, G. Zheng, J. L. Sonnenberg, M. Hada, 
 M. Ehara, K. Toyota, R. Fukuda, J. Hasegawa, M. Ishida, T. Nakajima, 
 Y. Honda, O. Kitao, H. Nakai, T. Vreven, J. A. Montgomery, Jr., 
 J. E. Peralta, F. Ogliaro, M. Bearpark, J. J. Heyd, E. Brothers, 
 K. N. Kudin, V. N. Staroverov, T. Keith, R. Kobayashi, J. Normand, 
 K. Raghavachari, A. Rendell, J. C. Burant, S. S. Iyengar, J. Tomasi, 
 M. Cossi, N. Rega, J. M. Millam, M. Klene, J. E. Knox, J. B. Cross, 
 V. Bakken, C. Adamo, J. Jaramillo, R. Gomperts, R. E. Stratmann, 
 O. Yazyev, A. J. Austin, R. Cammi, C. Pomelli, J. W. Ochterski, 
 R. L. Martin, K. Morokuma, V. G. Zakrzewski, G. A. Voth, 
 P. Salvador, J. J. Dannenberg, S. Dapprich, A. D. Daniels, 
 O. Farkas, J. B. Foresman, J. V. Ortiz, J. Cioslowski, 
 and D. J. Fox, Gaussian, Inc., Wallingford CT, 2010.
 
 ******************************************
 Gaussian 09:  EM64L-G09RevC.01 23-Sep-2011
                28-Dec-2013 
 ******************************************
 %chk=28_C22H14N4SSi.chk
 %NProcShared=12
 Will use up to   12 processors via shared memory.
 %Mem=8000MB
 Default route:  MaxDisk=100GB
 --------------------------------------------
 #B3LYP/6-31++G(d,p) opt scf=direct freq test
 --------------------------------------------
 1/14=-1,18=20,19=15,26=3,38=1/1,3;
 2/9=110,12=2,17=6,18=5,40=1/2;
 3/5=1,6=6,7=1111,11=2,16=1,25=1,30=1,71=1,74=-5/1,2,3;
 4//1;
 5/5=2,38=5/2;
 6/7=2,8=2,9=2,10=2,28=1/1;
 7//1,2,3,16;
 1/14=-1,18=20,19=15/3(2);
 2/9=110/2;
 99//99;
 2/9=110/2;
 3/5=1,6=6,7=1111,11=2,16=1,25=1,30=1,71=1,74=-5/1,2,3;
 4/5=5,16=3/1;
 5/5=2,38=5/2;
 7//1,2,3,16;
 1/14=-1,18=20,19=15/3(-5);
 2/9=110/2;
 6/7=2,8=2,9=2,10=2,19=2,28=1/1;
 99/9=1/99;
 ----------------------------------------------------------------------
 Geom opt of No.28 candidate from the CEPDB database with SMILE code of
  [SiH2]1C=c2c(cc3c4nsnc4c4c5sccc5c5nsnc5c4c3c2=C1)-c1cccs1, HPC, 20131
 227, Shuo Dai, Gaussian09
 ----------------------------------------------------------------------
 Charge =  0 Multiplicity = 1
 Symbolic Z-Matrix:
 Si                    0.68531  -0.17193  -0.68738 
 H                    -0.00325   0.78939  -1.57026 
 H                     0.314    -1.58451  -0.38446 
 C                     2.61158   0.23199  -1.26269 
 C                     3.27591  -0.68707  -0.52049 
 C                     4.72809  -0.87172  -0.82134 
 C                     5.5814   -0.45384   0.08953 
 C                     5.03089   0.31507   1.18144 
 C                     5.20301   1.68678   0.96162 
 N                     5.76729   2.19675  -0.14984 
 S                     5.99335   3.78249   0.15823 
 N                     5.0904    3.92291   1.55822 
 C                     4.6312    2.69672   1.88491 
 C                     3.76752   2.23641   2.9467 
 C                     3.15592   3.00348   3.95067 
 S                     3.25356   4.70414   4.22637 
 C                     2.25054   4.62129   5.60678 
 C                     1.81077   3.34779   5.88354 
 C                     2.32407   2.4505    4.92982 
 C                     2.03477   1.02582   4.95544 
 N                     1.27397   0.41983   5.85793 
 S                     1.3134   -1.18875   5.36814 
 N                     2.29114  -1.05611   4.02746 
 C                     2.62512   0.24801   3.91011 
 C                     3.45076   0.8384    2.9202 
 C                     3.85832   0.01017   1.88012 
 C                     2.78969  -0.40863   0.91105 
 C                     1.49718   0.04512   0.97232 
 C                     5.33606  -1.50155  -1.95865 
 C                     6.22317  -1.05275  -2.93809 
 C                     6.68002  -2.12231  -3.7807 
 C                     6.16768  -3.33216  -3.38074 
 S                     5.15519  -3.20609  -2.02857 
 H                     2.73786   1.26959  -0.85621 
 H                     6.66145  -0.38443  -0.05984 
 H                     2.04016   5.53057   6.14679 
 H                     1.16992   3.09486   6.71956 
 H                     0.95635   0.6509    1.68716 
 H                     6.56131  -0.02483  -3.06975 
 H                     7.35351  -2.02182  -4.62561 
 H                     6.32674  -4.31052  -3.80269 
 

 GradGradGradGradGradGradGradGradGradGradGradGradGradGradGradGradGradGrad
 Berny optimization.
 Initialization pass.
                           ----------------------------
                           !    Initial Parameters    !
                           ! (Angstroms and Degrees)  !
 --------------------------                            --------------------------
 ! Name  Definition              Value          Derivative Info.                !
 --------------------------------------------------------------------------------
 ! R1    R(1,2)                  1.4757         estimate D2E/DX2                !
 ! R2    R(1,3)                  1.4916         estimate D2E/DX2                !
 ! R3    R(1,4)                  2.0505         estimate D2E/DX2                !
 ! R4    R(1,28)                 1.8603         estimate D2E/DX2                !
 ! R5    R(4,5)                  1.3553         estimate D2E/DX2                !
 ! R6    R(4,34)                 1.1215         estimate D2E/DX2                !
 ! R7    R(5,6)                  1.4945         estimate D2E/DX2                !
 ! R8    R(5,27)                 1.5373         estimate D2E/DX2                !
 ! R9    R(6,7)                  1.3162         estimate D2E/DX2                !
 ! R10   R(6,29)                 1.4352         estimate D2E/DX2                !
 ! R11   R(7,8)                  1.4445         estimate D2E/DX2                !
 ! R12   R(7,35)                 1.0925         estimate D2E/DX2                !
 ! R13   R(8,9)                  1.3998         estimate D2E/DX2                !
 ! R14   R(8,26)                 1.3986         estimate D2E/DX2                !
 ! R15   R(9,10)                 1.3468         estimate D2E/DX2                !
 ! R16   R(9,13)                 1.483          estimate D2E/DX2                !
 ! R17   R(10,11)                1.6311         estimate D2E/DX2                !
 ! R18   R(11,12)                1.6718         estimate D2E/DX2                !
 ! R19   R(12,13)                1.3495         estimate D2E/DX2                !
 ! R20   R(13,14)                1.444          estimate D2E/DX2                !
 ! R21   R(14,15)                1.4037         estimate D2E/DX2                !
 ! R22   R(14,25)                1.4337         estimate D2E/DX2                !
 ! R23   R(15,16)                1.7256         estimate D2E/DX2                !
 ! R24   R(15,19)                1.3987         estimate D2E/DX2                !
 ! R25   R(16,17)                1.7083         estimate D2E/DX2                !
 ! R26   R(17,18)                1.3754         estimate D2E/DX2                !
 ! R27   R(17,36)                1.0783         estimate D2E/DX2                !
 ! R28   R(18,19)                1.4065         estimate D2E/DX2                !
 ! R29   R(18,37)                1.0833         estimate D2E/DX2                !
 ! R30   R(19,20)                1.454          estimate D2E/DX2                !
 ! R31   R(20,21)                1.3268         estimate D2E/DX2                !
 ! R32   R(20,24)                1.4305         estimate D2E/DX2                !
 ! R33   R(21,22)                1.682          estimate D2E/DX2                !
 ! R34   R(22,23)                1.6646         estimate D2E/DX2                !
 ! R35   R(23,24)                1.3513         estimate D2E/DX2                !
 ! R36   R(24,25)                1.4178         estimate D2E/DX2                !
 ! R37   R(25,26)                1.3906         estimate D2E/DX2                !
 ! R38   R(26,27)                1.5022         estimate D2E/DX2                !
 ! R39   R(27,28)                1.3712         estimate D2E/DX2                !
 ! R40   R(28,38)                1.0819         estimate D2E/DX2                !
 ! R41   R(29,30)                1.3956         estimate D2E/DX2                !
 ! R42   R(29,33)                1.7155         estimate D2E/DX2                !
 ! R43   R(30,31)                1.4362         estimate D2E/DX2                !
 ! R44   R(30,39)                1.0901         estimate D2E/DX2                !
 ! R45   R(31,32)                1.3734         estimate D2E/DX2                !
 ! R46   R(31,40)                1.0852         estimate D2E/DX2                !
 ! R47   R(32,33)                1.6939         estimate D2E/DX2                !
 ! R48   R(32,41)                1.0773         estimate D2E/DX2                !
 ! A1    A(2,1,3)              128.4803         estimate D2E/DX2                !
 ! A2    A(2,1,4)               98.1719         estimate D2E/DX2                !
 ! A3    A(2,1,28)             131.4047         estimate D2E/DX2                !
 ! A4    A(3,1,4)              118.5132         estimate D2E/DX2                !
 ! A5    A(3,1,28)              92.1747         estimate D2E/DX2                !
 ! A6    A(4,1,28)              79.4764         estimate D2E/DX2                !
 ! A7    A(1,4,5)               99.9764         estimate D2E/DX2                !
 ! A8    A(1,4,34)             100.7388         estimate D2E/DX2                !
 ! A9    A(5,4,34)             111.9445         estimate D2E/DX2                !
 ! A10   A(4,5,6)              116.7335         estimate D2E/DX2                !
 ! A11   A(4,5,27)             103.4206         estimate D2E/DX2                !
 ! A12   A(6,5,27)             121.143          estimate D2E/DX2                !
 ! A13   A(5,6,7)              116.8347         estimate D2E/DX2                !
 ! A14   A(5,6,29)             128.7098         estimate D2E/DX2                !
 ! A15   A(7,6,29)             114.3992         estimate D2E/DX2                !
 ! A16   A(6,7,8)              116.426          estimate D2E/DX2                !
 ! A17   A(6,7,35)             124.5029         estimate D2E/DX2                !
 ! A18   A(8,7,35)             116.5055         estimate D2E/DX2                !
 ! A19   A(7,8,9)              110.8576         estimate D2E/DX2                !
 ! A20   A(7,8,26)             125.5281         estimate D2E/DX2                !
 ! A21   A(9,8,26)             113.276          estimate D2E/DX2                !
 ! A22   A(8,9,10)             123.5155         estimate D2E/DX2                !
 ! A23   A(8,9,13)             121.4759         estimate D2E/DX2                !
 ! A24   A(10,9,13)            114.6748         estimate D2E/DX2                !
 ! A25   A(9,10,11)            105.6833         estimate D2E/DX2                !
 ! A26   A(10,11,12)            99.495          estimate D2E/DX2                !
 ! A27   A(11,12,13)           108.0704         estimate D2E/DX2                !
 ! A28   A(9,13,12)            109.6856         estimate D2E/DX2                !
 ! A29   A(9,13,14)            118.1187         estimate D2E/DX2                !
 ! A30   A(12,13,14)           132.157          estimate D2E/DX2                !
 ! A31   A(13,14,15)           127.7563         estimate D2E/DX2                !
 ! A32   A(13,14,25)           115.4287         estimate D2E/DX2                !
 ! A33   A(15,14,25)           116.7318         estimate D2E/DX2                !
 ! A34   A(14,15,16)           128.9152         estimate D2E/DX2                !
 ! A35   A(14,15,19)           122.9394         estimate D2E/DX2                !
 ! A36   A(16,15,19)           108.1454         estimate D2E/DX2                !
 ! A37   A(15,16,17)            92.756          estimate D2E/DX2                !
 ! A38   A(16,17,18)           113.2797         estimate D2E/DX2                !
 ! A39   A(16,17,36)           118.5766         estimate D2E/DX2                !
 ! A40   A(18,17,36)           128.1434         estimate D2E/DX2                !
 ! A41   A(17,18,19)           109.7283         estimate D2E/DX2                !
 ! A42   A(17,18,37)           124.0972         estimate D2E/DX2                !
 ! A43   A(19,18,37)           126.1737         estimate D2E/DX2                !
 ! A44   A(15,19,18)           116.0722         estimate D2E/DX2                !
 ! A45   A(15,19,20)           121.2007         estimate D2E/DX2                !
 ! A46   A(18,19,20)           122.7209         estimate D2E/DX2                !
 ! A47   A(19,20,21)           125.0004         estimate D2E/DX2                !
 ! A48   A(19,20,24)           115.9635         estimate D2E/DX2                !
 ! A49   A(21,20,24)           119.0353         estimate D2E/DX2                !
 ! A50   A(20,21,22)           103.0192         estimate D2E/DX2                !
 ! A51   A(21,22,23)            99.9097         estimate D2E/DX2                !
 ! A52   A(22,23,24)           106.9782         estimate D2E/DX2                !
 ! A53   A(20,24,23)           111.0571         estimate D2E/DX2                !
 ! A54   A(20,24,25)           121.6095         estimate D2E/DX2                !
 ! A55   A(23,24,25)           127.3317         estimate D2E/DX2                !
 ! A56   A(14,25,24)           121.4534         estimate D2E/DX2                !
 ! A57   A(14,25,26)           121.994          estimate D2E/DX2                !
 ! A58   A(24,25,26)           116.4145         estimate D2E/DX2                !
 ! A59   A(8,26,25)            119.3083         estimate D2E/DX2                !
 ! A60   A(8,26,27)            109.5687         estimate D2E/DX2                !
 ! A61   A(25,26,27)           116.1073         estimate D2E/DX2                !
 ! A62   A(5,27,26)            115.229          estimate D2E/DX2                !
 ! A63   A(5,27,28)            113.558          estimate D2E/DX2                !
 ! A64   A(26,27,28)           123.3316         estimate D2E/DX2                !
 ! A65   A(1,28,27)            109.4443         estimate D2E/DX2                !
 ! A66   A(1,28,38)            115.8901         estimate D2E/DX2                !
 ! A67   A(27,28,38)           133.3157         estimate D2E/DX2                !
 ! A68   A(6,29,30)            133.1796         estimate D2E/DX2                !
 ! A69   A(6,29,33)            115.0664         estimate D2E/DX2                !
 ! A70   A(30,29,33)           110.9735         estimate D2E/DX2                !
 ! A71   A(29,30,31)           111.9908         estimate D2E/DX2                !
 ! A72   A(29,30,39)           125.8159         estimate D2E/DX2                !
 ! A73   A(31,30,39)           122.1889         estimate D2E/DX2                !
 ! A74   A(30,31,32)           111.5008         estimate D2E/DX2                !
 ! A75   A(30,31,40)           125.8217         estimate D2E/DX2                !
 ! A76   A(32,31,40)           122.6736         estimate D2E/DX2                !
 ! A77   A(31,32,33)           112.9471         estimate D2E/DX2                !
 ! A78   A(31,32,41)           129.1156         estimate D2E/DX2                !
 ! A79   A(33,32,41)           117.937          estimate D2E/DX2                !
 ! A80   A(29,33,32)            92.4911         estimate D2E/DX2                !
 ! D1    D(2,1,4,5)           -176.9062         estimate D2E/DX2                !
 ! D2    D(2,1,4,34)            68.2863         estimate D2E/DX2                !
 ! D3    D(3,1,4,5)            -34.4005         estimate D2E/DX2                !
 ! D4    D(3,1,4,34)          -149.2079         estimate D2E/DX2                !
 ! D5    D(28,1,4,5)            52.3322         estimate D2E/DX2                !
 ! D6    D(28,1,4,34)          -62.4752         estimate D2E/DX2                !
 ! D7    D(2,1,28,27)         -125.2777         estimate D2E/DX2                !
 ! D8    D(2,1,28,38)           43.2496         estimate D2E/DX2                !
 ! D9    D(3,1,28,27)           84.99           estimate D2E/DX2                !
 ! D10   D(3,1,28,38)         -106.4827         estimate D2E/DX2                !
 ! D11   D(4,1,28,27)          -33.6186         estimate D2E/DX2                !
 ! D12   D(4,1,28,38)          134.9088         estimate D2E/DX2                !
 ! D13   D(1,4,5,6)            170.3018         estimate D2E/DX2                !
 ! D14   D(1,4,5,27)           -54.0127         estimate D2E/DX2                !
 ! D15   D(34,4,5,6)           -83.7456         estimate D2E/DX2                !
 ! D16   D(34,4,5,27)           51.9399         estimate D2E/DX2                !
 ! D17   D(4,5,6,7)            110.4463         estimate D2E/DX2                !
 ! D18   D(4,5,6,29)           -72.4584         estimate D2E/DX2                !
 ! D19   D(27,5,6,7)           -16.9982         estimate D2E/DX2                !
 ! D20   D(27,5,6,29)          160.0971         estimate D2E/DX2                !
 ! D21   D(4,5,27,26)         -118.067          estimate D2E/DX2                !
 ! D22   D(4,5,27,28)           32.1712         estimate D2E/DX2                !
 ! D23   D(6,5,27,26)           15.1317         estimate D2E/DX2                !
 ! D24   D(6,5,27,28)          165.3699         estimate D2E/DX2                !
 ! D25   D(5,6,7,8)             -9.0318         estimate D2E/DX2                !
 ! D26   D(5,6,7,35)          -170.1744         estimate D2E/DX2                !
 ! D27   D(29,6,7,8)           173.4568         estimate D2E/DX2                !
 ! D28   D(29,6,7,35)           12.3142         estimate D2E/DX2                !
 ! D29   D(5,6,29,30)          120.7894         estimate D2E/DX2                !
 ! D30   D(5,6,29,33)          -70.4582         estimate D2E/DX2                !
 ! D31   D(7,6,29,30)          -62.0566         estimate D2E/DX2                !
 ! D32   D(7,6,29,33)          106.6958         estimate D2E/DX2                !
 ! D33   D(6,7,8,9)            -98.5            estimate D2E/DX2                !
 ! D34   D(6,7,8,26)            43.8415         estimate D2E/DX2                !
 ! D35   D(35,7,8,9)            64.1838         estimate D2E/DX2                !
 ! D36   D(35,7,8,26)         -153.4747         estimate D2E/DX2                !
 ! D37   D(7,8,9,10)             2.1606         estimate D2E/DX2                !
 ! D38   D(7,8,9,13)           175.1688         estimate D2E/DX2                !
 ! D39   D(26,8,9,10)         -145.0696         estimate D2E/DX2                !
 ! D40   D(26,8,9,13)           27.9386         estimate D2E/DX2                !
 ! D41   D(7,8,26,25)          179.5452         estimate D2E/DX2                !
 ! D42   D(7,8,26,27)          -43.1363         estimate D2E/DX2                !
 ! D43   D(9,8,26,25)          -38.8805         estimate D2E/DX2                !
 ! D44   D(9,8,26,27)           98.438          estimate D2E/DX2                !
 ! D45   D(8,9,10,11)         -170.1078         estimate D2E/DX2                !
 ! D46   D(13,9,10,11)          16.4525         estimate D2E/DX2                !
 ! D47   D(8,9,13,12)          171.5715         estimate D2E/DX2                !
 ! D48   D(8,9,13,14)           -6.4392         estimate D2E/DX2                !
 ! D49   D(10,9,13,12)         -14.841          estimate D2E/DX2                !
 ! D50   D(10,9,13,14)         167.1482         estimate D2E/DX2                !
 ! D51   D(9,10,11,12)         -11.607          estimate D2E/DX2                !
 ! D52   D(10,11,12,13)          3.4514         estimate D2E/DX2                !
 ! D53   D(11,12,13,9)           5.3142         estimate D2E/DX2                !
 ! D54   D(11,12,13,14)       -177.0527         estimate D2E/DX2                !
 ! D55   D(9,13,14,15)         177.8608         estimate D2E/DX2                !
 ! D56   D(9,13,14,25)          -5.5934         estimate D2E/DX2                !
 ! D57   D(12,13,14,15)          0.3877         estimate D2E/DX2                !
 ! D58   D(12,13,14,25)        176.9335         estimate D2E/DX2                !
 ! D59   D(13,14,15,16)         -0.3901         estimate D2E/DX2                !
 ! D60   D(13,14,15,19)        179.476          estimate D2E/DX2                !
 ! D61   D(25,14,15,16)       -176.8972         estimate D2E/DX2                !
 ! D62   D(25,14,15,19)          2.9689         estimate D2E/DX2                !
 ! D63   D(13,14,25,24)        179.3071         estimate D2E/DX2                !
 ! D64   D(13,14,25,26)         -5.1178         estimate D2E/DX2                !
 ! D65   D(15,14,25,24)         -3.7503         estimate D2E/DX2                !
 ! D66   D(15,14,25,26)        171.8248         estimate D2E/DX2                !
 ! D67   D(14,15,16,17)       -178.9162         estimate D2E/DX2                !
 ! D68   D(19,15,16,17)          1.202          estimate D2E/DX2                !
 ! D69   D(14,15,19,18)        178.663          estimate D2E/DX2                !
 ! D70   D(14,15,19,20)         -0.4537         estimate D2E/DX2                !
 ! D71   D(16,15,19,18)         -1.4466         estimate D2E/DX2                !
 ! D72   D(16,15,19,20)        179.4367         estimate D2E/DX2                !
 ! D73   D(15,16,17,18)         -0.7513         estimate D2E/DX2                !
 ! D74   D(15,16,17,36)        179.0941         estimate D2E/DX2                !
 ! D75   D(16,17,18,19)          0.0548         estimate D2E/DX2                !
 ! D76   D(16,17,18,37)        179.7375         estimate D2E/DX2                !
 ! D77   D(36,17,18,19)       -179.7726         estimate D2E/DX2                !
 ! D78   D(36,17,18,37)         -0.0899         estimate D2E/DX2                !
 ! D79   D(17,18,19,15)          0.9293         estimate D2E/DX2                !
 ! D80   D(17,18,19,20)       -179.9688         estimate D2E/DX2                !
 ! D81   D(37,18,19,15)       -178.7453         estimate D2E/DX2                !
 ! D82   D(37,18,19,20)          0.3567         estimate D2E/DX2                !
 ! D83   D(15,19,20,21)        178.9877         estimate D2E/DX2                !
 ! D84   D(15,19,20,24)         -1.3498         estimate D2E/DX2                !
 ! D85   D(18,19,20,21)         -0.0693         estimate D2E/DX2                !
 ! D86   D(18,19,20,24)        179.5933         estimate D2E/DX2                !
 ! D87   D(19,20,21,22)        179.8606         estimate D2E/DX2                !
 ! D88   D(24,20,21,22)          0.2076         estimate D2E/DX2                !
 ! D89   D(19,20,24,23)       -179.8961         estimate D2E/DX2                !
 ! D90   D(19,20,24,25)          0.5357         estimate D2E/DX2                !
 ! D91   D(21,20,24,23)         -0.2123         estimate D2E/DX2                !
 ! D92   D(21,20,24,25)       -179.7804         estimate D2E/DX2                !
 ! D93   D(20,21,22,23)         -0.1263         estimate D2E/DX2                !
 ! D94   D(21,22,23,24)          0.0191         estimate D2E/DX2                !
 ! D95   D(22,23,24,20)          0.0912         estimate D2E/DX2                !
 ! D96   D(22,23,24,25)        179.6287         estimate D2E/DX2                !
 ! D97   D(20,24,25,14)          2.0631         estimate D2E/DX2                !
 ! D98   D(20,24,25,26)       -173.7471         estimate D2E/DX2                !
 ! D99   D(23,24,25,14)       -177.43           estimate D2E/DX2                !
 ! D100  D(23,24,25,26)          6.7598         estimate D2E/DX2                !
 ! D101  D(14,25,26,8)          28.8207         estimate D2E/DX2                !
 ! D102  D(14,25,26,27)       -105.8349         estimate D2E/DX2                !
 ! D103  D(24,25,26,8)        -155.3936         estimate D2E/DX2                !
 ! D104  D(24,25,26,27)         69.9507         estimate D2E/DX2                !
 ! D105  D(8,26,27,5)           12.028          estimate D2E/DX2                !
 ! D106  D(8,26,27,28)        -134.9741         estimate D2E/DX2                !
 ! D107  D(25,26,27,5)         150.8565         estimate D2E/DX2                !
 ! D108  D(25,26,27,28)          3.8545         estimate D2E/DX2                !
 ! D109  D(5,27,28,1)           11.5298         estimate D2E/DX2                !
 ! D110  D(5,27,28,38)        -154.2333         estimate D2E/DX2                !
 ! D111  D(26,27,28,1)         159.0193         estimate D2E/DX2                !
 ! D112  D(26,27,28,38)         -6.7437         estimate D2E/DX2                !
 ! D113  D(6,29,30,31)         172.4217         estimate D2E/DX2                !
 ! D114  D(6,29,30,39)          -6.8189         estimate D2E/DX2                !
 ! D115  D(33,29,30,31)          3.3287         estimate D2E/DX2                !
 ! D116  D(33,29,30,39)       -175.9119         estimate D2E/DX2                !
 ! D117  D(6,29,33,32)        -174.0048         estimate D2E/DX2                !
 ! D118  D(30,29,33,32)         -2.7665         estimate D2E/DX2                !
 ! D119  D(29,30,31,32)         -2.2691         estimate D2E/DX2                !
 ! D120  D(29,30,31,40)        178.429          estimate D2E/DX2                !
 ! D121  D(39,30,31,32)        177.0033         estimate D2E/DX2                !
 ! D122  D(39,30,31,40)         -2.2987         estimate D2E/DX2                !
 ! D123  D(30,31,32,33)          0.1671         estimate D2E/DX2                !
 ! D124  D(30,31,32,41)       -179.6509         estimate D2E/DX2                !
 ! D125  D(40,31,32,33)        179.4947         estimate D2E/DX2                !
 ! D126  D(40,31,32,41)         -0.3233         estimate D2E/DX2                !
 ! D127  D(31,32,33,29)          1.4891         estimate D2E/DX2                !
 ! D128  D(41,32,33,29)       -178.6708         estimate D2E/DX2                !
 --------------------------------------------------------------------------------
 Trust Radius=3.00D-01 FncErr=1.00D-07 GrdErr=1.00D-06
 Number of steps in this run=    246 maximum allowed number of steps=    246.
 GradGradGradGradGradGradGradGradGradGradGradGradGradGradGradGradGradGrad

                          Input orientation:                          
 ---------------------------------------------------------------------
 Center     Atomic      Atomic             Coordinates (Angstroms)
 Number     Number       Type             X           Y           Z
 ---------------------------------------------------------------------
      1         14           0        0.685310   -0.171930   -0.687380
      2          1           0       -0.003250    0.789390   -1.570260
      3          1           0        0.314000   -1.584510   -0.384460
      4          6           0        2.611580    0.231990   -1.262690
      5          6           0        3.275910   -0.687070   -0.520490
      6          6           0        4.728090   -0.871720   -0.821340
      7          6           0        5.581400   -0.453840    0.089530
      8          6           0        5.030890    0.315070    1.181440
      9          6           0        5.203010    1.686780    0.961620
     10          7           0        5.767290    2.196750   -0.149840
     11         16           0        5.993350    3.782490    0.158230
     12          7           0        5.090400    3.922910    1.558220
     13          6           0        4.631200    2.696720    1.884910
     14          6           0        3.767520    2.236410    2.946700
     15          6           0        3.155920    3.003480    3.950670
     16         16           0        3.253560    4.704140    4.226370
     17          6           0        2.250540    4.621290    5.606780
     18          6           0        1.810770    3.347790    5.883540
     19          6           0        2.324070    2.450500    4.929820
     20          6           0        2.034770    1.025820    4.955440
     21          7           0        1.273970    0.419830    5.857930
     22         16           0        1.313400   -1.188750    5.368140
     23          7           0        2.291140   -1.056110    4.027460
     24          6           0        2.625120    0.248010    3.910110
     25          6           0        3.450760    0.838400    2.920200
     26          6           0        3.858320    0.010170    1.880120
     27          6           0        2.789690   -0.408630    0.911050
     28          6           0        1.497180    0.045120    0.972320
     29          6           0        5.336060   -1.501550   -1.958650
     30          6           0        6.223170   -1.052750   -2.938090
     31          6           0        6.680020   -2.122310   -3.780700
     32          6           0        6.167680   -3.332160   -3.380740
     33         16           0        5.155190   -3.206090   -2.028570
     34          1           0        2.737860    1.269590   -0.856210
     35          1           0        6.661450   -0.384430   -0.059840
     36          1           0        2.040160    5.530570    6.146790
     37          1           0        1.169920    3.094860    6.719560
     38          1           0        0.956350    0.650900    1.687160
     39          1           0        6.561310   -0.024830   -3.069750
     40          1           0        7.353510   -2.021820   -4.625610
     41          1           0        6.326740   -4.310520   -3.802690
 ---------------------------------------------------------------------
                    Distance matrix (angstroms):
                    1          2          3          4          5
     1  Si   0.000000
     2  H    1.475713   0.000000
     3  H    1.491648   2.672484   0.000000
     4  C    2.050524   2.691213   3.057750   0.000000
     5  C    2.646588   3.746310   3.097872   1.355310   0.000000
     6  C    4.105085   5.070083   4.492563   2.427464   1.494467
     7  C    4.965356   5.957251   5.408196   3.334470   2.396206
     8  C    4.755389   5.756683   5.320667   3.440020   2.642121
     9  C    5.155930   5.858402   6.034541   3.712072   3.397871
    10  N    5.632594   6.107159   6.640131   3.880364   3.828939
    11  S    6.672914   6.921383   7.832893   5.105040   5.274667
    12  N    6.419911   6.749193   7.544513   5.265451   5.372646
    13  C    5.515059   6.087219   6.489776   4.478967   4.367241
    14  C    5.339163   6.059332   6.133747   4.803422   4.561778
    15  C    6.139923   6.735222   6.922392   5.929299   5.798778
    16  S    7.383556   7.715763   8.333540   7.109293   7.183197
    17  C    8.064822   8.442330   8.840650   8.160020   8.171506
    18  C    7.538705   8.086731   8.115154   7.836971   7.709626
    19  C    6.412145   7.101179   6.968734   6.584195   6.360521
    20  C    5.924278   6.840628   6.187843   6.295079   5.870284
    21  N    6.598317   7.546249   6.626187   7.247601   6.776226
    22  S    6.172337   7.334030   5.852165   6.904468   6.227286
    23  N    5.058674   6.324916   4.863469   5.454133   4.667956
    24  C    5.007607   6.102121   5.209869   5.172843   4.574726
    25  C    4.656513   5.665405   5.160478   4.309121   3.767755
    26  C    4.085732   5.236796   4.498170   3.388336   2.566763
    27  C    2.653191   3.923349   3.031515   2.273161   1.537285
    28  C    1.860335   3.044658   2.428263   2.504412   2.434844
    29  C    5.001349   5.823013   5.263653   3.303379   2.641193
    30  C    6.042304   6.635717   6.459264   4.183432   3.829472
    31  C    7.022048   7.617752   7.235322   5.332477   4.927154
    32  C    6.877327   7.638415   6.804230   5.462156   4.851790
    33  S    5.566394   6.540903   5.363743   4.344758   3.485894
    34  H    2.513851   2.873003   3.774060   1.121511   2.056872
    35  H    6.012754   6.933790   6.468052   4.269458   3.430112
    36  H    9.003333   9.284782   9.811280   9.126986   9.199932
    37  H    8.109841   8.684045   8.549632   8.601786   8.435432
    38  H    2.527638   3.398646   3.114688   3.408355   3.470481
    39  H    6.342295   6.782689   6.976551   4.351068   4.210836
    40  H    7.962201   8.447484   8.230024   6.234965   5.938046
    41  H    7.658904   8.429804   7.434277   6.394405   5.762794
                    6          7          8          9         10
     6  C    0.000000
     7  C    1.316224   0.000000
     8  C    2.347613   1.444490   0.000000
     9  C    3.154428   2.342216   1.399834   0.000000
    10  N    3.308528   2.667861   2.419775   1.346783   0.000000
    11  S    4.921596   4.256867   3.741162   2.379511   1.631129
    12  N    5.364891   4.642636   3.627949   2.317087   2.520968
    13  C    4.479614   3.748639   2.515329   1.483041   2.383459
    14  C    4.978081   4.323312   2.898930   2.510631   3.686355
    15  C    6.345154   5.722274   4.290885   3.854698   4.927905
    16  S    7.664452   7.009782   5.629781   4.854216   5.635340
    17  C    8.810910   8.203147   6.771817   6.237463   7.168305
    18  C    8.442182   7.889271   6.455719   6.204155   7.306204
    19  C    7.063448   6.517192   5.092866   4.961671   6.141913
    20  C    6.650249   6.200408   4.870829   5.140546   6.431692
    21  N    7.629659   7.252013   5.999582   6.404402   7.709778
    22  S    7.076036   6.827858   5.797384   6.543329   7.857916
    23  N    5.429879   5.166801   4.181650   5.040021   6.333605
    24  C    5.297443   4.881497   3.638388   4.172430   5.491267
    25  C    4.307575   3.771234   2.407067   2.761551   4.078795
    26  C    2.971888   2.527948   1.398584   2.337275   3.542038
    27  C    2.640648   2.910427   2.370618   3.196469   4.096290
    28  C    3.807439   4.208222   3.550170   4.053189   4.911476
    29  C    1.435196   2.313640   3.640522   4.325636   4.139466
    30  C    2.597820   3.152308   4.501443   4.873755   4.305974
    31  C    3.759231   4.355392   5.769167   6.259419   5.715811
    32  C    3.831020   4.546562   5.950468   6.706447   6.416220
    33  S    2.662537   3.498983   4.766359   5.734431   5.752823
    34  H    2.923601   3.456929   3.212649   3.091200   3.245925
    35  H    2.134295   1.092537   2.165364   2.731362   2.733151
    36  H    9.837130   9.221927   7.797474   7.187790   8.040734
    37  H    9.233607   8.718470   7.301034   7.169545   8.314510
    38  H    4.778804   5.016369   4.119516   4.430979   5.376743
    39  H    3.022129   3.335464   4.531041   4.585470   3.753899
    40  H    4.763195   5.275555   6.676634   7.042407   6.351767
    41  H    4.823844   5.529818   6.922201   7.741384   7.483372
                   11         12         13         14         15
    11  S    0.000000
    12  N    1.671828   0.000000
    13  C    2.452707   1.349494   0.000000
    14  C    3.888476   2.553854   1.444031   0.000000
    15  C    4.800049   3.211134   2.556935   1.403712   0.000000
    16  S    4.990556   3.332165   3.377878   2.826907   1.725627
    17  C    6.663251   4.994335   4.819111   3.881354   2.485905
    18  C    7.103669   5.458491   4.936371   3.699874   2.379908
    19  C    6.164891   4.603071   3.828178   2.462143   1.398748
    20  C    6.803147   5.410278   4.354482   2.915988   2.485494
    21  N    8.128137   6.732326   5.678037   4.241817   3.722180
    22  S    8.588266   7.410148   6.183653   4.859815   4.793631
    23  N    7.217295   6.222832   4.914279   3.766753   4.151387
    24  C    6.157445   5.011375   3.757921   2.487362   2.806423
    25  C    4.770839   3.749348   2.432821   1.433691   2.415858
    26  C    4.664082   4.114751   2.795517   2.470219   3.706811
    27  C    5.328758   4.947154   3.739353   3.477968   4.584311
    28  C    5.903069   5.319000   4.205459   3.722146   4.513744
    29  C    5.730121   6.469427   5.735438   6.363578   7.743925
    30  C    5.746265   6.801262   6.313020   7.174925   8.562479
    31  C    7.131153   8.220441   7.714911   8.528717   9.923058
    32  C    7.948141   8.842505   8.150781   8.763917  10.146951
    33  S    7.370540   7.980721   7.101624   7.503316   8.849133
    34  H    4.235796   4.289991   3.624248   4.056731   5.127109
    35  H    4.225770   4.862046   4.171025   4.927770   6.312754
    36  H    7.385550   5.739644   5.736533   4.906714   3.529029
    37  H    8.172476   6.534161   5.959263   4.660358   3.408709
    38  H    6.125019   5.273807   4.210583   3.464529   3.936524
    39  H    5.023755   6.258301   5.973342   7.008291   8.369805
    40  H    7.643636   8.871372   8.488961   9.398496  10.790087
    41  H    9.016476   9.902387   9.182868   9.745058  11.120400
                   16         17         18         19         20
    16  S    0.000000
    17  C    1.708346   0.000000
    18  C    2.582158   1.375426   0.000000
    19  C    2.537260   2.275085   1.406481   0.000000
    20  C    3.942972   3.660356   2.510596   1.453982   0.000000
    21  N    4.993604   4.320767   2.976871   2.467330   1.326849
    22  S    6.308250   5.889970   4.592734   3.802331   2.365379
    23  N    5.843483   5.893112   4.803137   3.621001   2.293753
    24  C    4.511325   4.705803   3.763805   2.445690   1.430460
    25  C    4.085207   4.792546   4.215209   2.811916   2.486434
    26  C    5.282422   6.142913   5.599959   4.196404   3.716783
    27  C    6.111214   6.902221   6.308299   4.953982   4.357137
    28  C    5.948124   6.556455   5.926723   4.704403   4.137151
    29  C    9.005658  10.210060   9.871358   8.493633   8.067884
    30  C    9.658667  10.999606  10.800703   9.454086   9.174473
    31  C   11.065903  12.378256  12.125557  10.759092  10.383122
    32  C   11.443004  12.624455  12.224209  10.829492  10.274475
    33  S   10.262174  11.313860  10.804627   9.403799   8.741995
    34  H    6.155867   7.296685   7.113553   5.919790   5.859098
    35  H    7.475216   8.753510   8.531256   7.193497   6.967640
    36  H    2.417300   1.078267   2.210531   3.323921   4.659626
    37  H    3.625925   2.176237   1.083324   2.224956   2.853246
    38  H    5.305989   5.727333   5.060914   3.952728   3.461966
    39  H    9.302566  10.744829  10.681929   9.384806   9.273462
    40  H   11.849290  13.223956  13.038286  11.687735  11.374253
    41  H   12.456899  13.598925  13.147880  11.746893  11.117660
                   21         22         23         24         25
    21  N    0.000000
    22  S    1.681957   0.000000
    23  N    2.561963   1.664630   0.000000
    24  C    2.376790   2.431201   1.351311   0.000000
    25  C    3.680200   3.830151   2.481917   1.417802   0.000000
    26  C    4.761266   4.481106   2.864276   2.387092   1.390624
    27  C    5.239788   4.759587   3.221769   3.074511   2.455358
    28  C    4.905040   4.569403   3.343196   3.153415   2.870541
    29  C    9.016163   8.364298   6.730785   6.697201   5.730000
    30  C   10.199659   9.649756   7.998735   7.844475   6.751464
    31  C   11.339799  10.647695   9.020333   9.011614   8.005997
    32  C   11.107603  10.232358   8.665414   8.861368   8.029762
    33  S    9.508315   8.575566   7.035673   7.321201   6.614628
    34  H    6.924214   6.842153   5.427584   4.875873   3.867224
    35  H    8.043120   7.662345   6.021361   5.696705   4.548020
    36  H    5.175920   6.803215   6.923793   5.766312   5.866612
    37  H    2.812298   4.494022   5.072976   4.256192   4.972824
    38  H    4.189224   4.130546   3.189444   2.808669   2.788839
    39  H   10.385430  10.004662   8.346753   8.017885   6.804424
    40  H   12.362325  11.706920  10.071534  10.018399   8.963903
    41  H   11.884203  10.907940   9.390873   9.693785   8.943148
                   26         27         28         29         30
    26  C    0.000000
    27  C    1.502152   0.000000
    28  C    2.529882   1.371213   0.000000
    29  C    4.382370   3.989192   5.071467   0.000000
    30  C    5.471514   5.198034   6.231501   1.395596   0.000000
    31  C    6.674904   6.331184   7.358722   2.347645   1.436197
    32  C    6.646876   6.194942   7.222792   2.462735   2.322655
    33  S    5.225328   4.697099   5.740796   1.715535   2.569957
    34  H    3.213887   2.437687   2.526289   3.955406   4.677058
    35  H    3.431718   3.991709   5.283896   2.571011   2.987150
    36  H    7.210062   7.952916   7.560432  11.225499  11.973835
    37  H    6.337427   6.974015   6.514505  10.667476  11.662256
    38  H    2.978120   2.255235   1.081879   6.091538   7.213512
    39  H    5.639911   5.497198   6.479864   2.217314   1.090088
    40  H    7.659625   7.354280   8.360961   3.384296   2.250442
    41  H    7.553528   7.067872   8.068269   3.503176   3.372140
                   31         32         33         34         35
    31  C    0.000000
    32  C    1.373389   0.000000
    33  S    2.563132   1.693928   0.000000
    34  H    5.966427   6.270010   5.220117   0.000000
    35  H    4.106747   4.467807   3.755860   4.331806   0.000000
    36  H   13.365999  13.651309  12.364026   8.227074   9.739908
    37  H   12.955135  12.973059  11.494091   7.948732   9.392690
    38  H    8.387406   8.288929   6.805386   3.166273   6.055748
    39  H    2.217874   3.345159   3.630653   4.603700   3.032969
    40  H    1.085154   2.161686   3.602738   6.807788   4.899617
    41  H    2.216654   1.077279   2.395787   7.259437   5.434624
                   36         37         38         39         40
    36  H    0.000000
    37  H    2.649163   0.000000
    38  H    6.698815   5.598536   0.000000
    39  H   11.672527  11.603023   7.382437   0.000000
    40  H   14.188548  13.897125   9.376468   2.652593   0.000000
    41  H   14.636050  13.861825   9.143043   4.354235   2.640000
                   41
    41  H    0.000000
 Stoichiometry    C22H10N4S4Si
 Framework group  C1[X(C22H10N4S4Si)]
 Deg. of freedom   117
 Full point group                 C1      NOp   1
 Largest Abelian subgroup         C1      NOp   1
 Largest concise Abelian subgroup C1      NOp   1
                         Standard orientation:                         
 ---------------------------------------------------------------------
 Center     Atomic      Atomic             Coordinates (Angstroms)
 Number     Number       Type             X           Y           Z
 ---------------------------------------------------------------------
      1         14           0       -1.168246   -1.868518    3.063350
      2          1           0       -1.195981   -1.283058    4.417674
      3          1           0       -1.467978   -3.270639    2.651970
      4          6           0       -2.094572   -0.336040    2.064310
      5          6           0       -2.152854   -0.868666    0.819409
      6          6           0       -2.975714   -0.133509   -0.188499
      7          6           0       -2.325483    0.464033   -1.164506
      8          6           0       -0.886999    0.513742   -1.042677
      9          6           0       -0.471872    1.752610   -0.540274
     10          7           0       -1.323139    2.732727   -0.181749
     11         16           0       -0.395673    4.049131    0.077996
     12          7           0        1.113513    3.329951    0.065894
     13          6           0        0.951367    2.021456   -0.221649
     14          6           0        1.887052    0.925002   -0.308306
     15          6           0        3.273863    0.959564   -0.093906
     16         16           0        4.273039    2.303136    0.323528
     17          6           0        5.694029    1.354908    0.313795
     18          6           0        5.462273    0.031261    0.020466
     19          6           0        4.087617   -0.173583   -0.195287
     20          6           0        3.529147   -1.474901   -0.525053
     21          7           0        4.231423   -2.592647   -0.659150
     22         16           0        3.055763   -3.736454   -1.031319
     23          7           0        1.699253   -2.771997   -1.004987
     24          6           0        2.110812   -1.520261   -0.705288
     25          6           0        1.308193   -0.358314   -0.579403
     26          6           0       -0.068072   -0.547226   -0.642998
     27          6           0       -0.693263   -1.252349    0.526788
     28          6           0        0.008893   -1.628317    1.642964
     29          6           0       -4.404404   -0.029853   -0.277322
     30          6           0       -5.286575    1.051368   -0.256750
     31          6           0       -6.633757    0.652015   -0.553867
     32          6           0       -6.710657   -0.690255   -0.834213
     33         16           0       -5.210125   -1.470970   -0.743212
     34          1           0       -1.313930    0.465512    2.141112
     35          1           0       -2.778802    1.157980   -1.876248
     36          1           0        6.635929    1.835014    0.525890
     37          1           0        6.237799   -0.723012   -0.036302
     38          1           0        1.060255   -1.615189    1.897776
     39          1           0       -5.019303    2.088997   -0.056287
     40          1           0       -7.499978    1.305317   -0.574312
     41          1           0       -7.572133   -1.281515   -1.096515
 ---------------------------------------------------------------------
 Rotational constants (GHZ):      0.1929676      0.0816007      0.0653966
 Standard basis: 6-31++G(d,p) (6D, 7F)
 There are   669 symmetry adapted basis functions of A   symmetry.
 Integral buffers will be    131072 words long.
 Raffenetti 2 integral format.
 Two-electron integral symmetry is turned on.
   669 basis functions,  1192 primitive gaussians,   669 cartesian basis functions
   124 alpha electrons      124 beta electrons
       nuclear repulsion energy      3722.5482736488 Hartrees.
 NAtoms=   41 NActive=   41 NUniq=   41 SFac= 1.00D+00 NAtFMM=   60 NAOKFM=F Big=F
 One-electron integrals computed using PRISM.
 NBasis=   669 RedAO= T  NBF=   669
 NBsUse=   658 1.00D-06 NBFU=   658
 Harris functional with IExCor=  402 diagonalized for initial guess.
 ExpMin= 3.31D-02 ExpMax= 2.19D+04 ExpMxC= 3.30D+03 IAcc=3 IRadAn=         5 AccDes= 0.00D+00
 HarFok:  IExCor=  402 AccDes= 0.00D+00 IRadAn=         5 IDoV= 1
 ScaDFX=  1.000000  1.000000  1.000000  1.000000
 FoFCou: FMM=F IPFlag=           0 FMFlag=      100000 FMFlg1=           0
         NFxFlg=           0 DoJE=T BraDBF=F KetDBF=T FulRan=T
         Omega=  0.000000  0.000000  1.000000  0.000000  0.000000 ICntrl=     500 IOpCl=  0
         NMat0=    1 NMatS0=    1 NMatT0=    0 NMatD0=    1 NMtDS0=    0 NMtDT0=    0
         I1Cent=           4 NGrid=           0.
 Petite list used in FoFCou.
 Initial guess orbital symmetries:
       Occupied  (A) (A) (A) (A) (A) (A) (A) (A) (A) (A) (A) (A)
                 (A) (A) (A) (A) (A) (A) (A) (A) (A) (A) (A) (A)
                 (A) (A) (A) (A) (A) (A) (A) (A) (A) (A) (A) (A)
                 (A) (A) (A) (A) (A) (A) (A) (A) (A) (A) (A) (A)
                 (A) (A) (A) (A) (A) (A) (A) (A) (A) (A) (A) (A)
                 (A) (A) (A) (A) (A) (A) (A) (A) (A) (A) (A) (A)
                 (A) (A) (A) (A) (A) (A) (A) (A) (A) (A) (A) (A)
                 (A) (A) (A) (A) (A) (A) (A) (A) (A) (A) (A) (A)
                 (A) (A) (A) (A) (A) (A) (A) (A) (A) (A) (A) (A)
                 (A) (A) (A) (A) (A) (A) (A) (A) (A) (A) (A) (A)
                 (A) (A) (A) (A)
       Virtual   (A) (A) (A) (A) (A) (A) (A) (A) (A) (A) (A) (A)
                 (A) (A) (A) (A) (A) (A) (A) (A) (A) (A) (A) (A)
                 (A) (A) (A) (A) (A) (A) (A) (A) (A) (A) (A) (A)
                 (A) (A) (A) (A) (A) (A) (A) (A) (A) (A) (A) (A)
                 (A) (A) (A) (A) (A) (A) (A) (A) (A) (A) (A) (A)
                 (A) (A) (A) (A) (A) (A) (A) (A) (A) (A) (A) (A)
                 (A) (A) (A) (A) (A) (A) (A) (A) (A) (A) (A) (A)
                 (A) (A) (A) (A) (A) (A) (A) (A) (A) (A) (A) (A)
                 (A) (A) (A) (A) (A) (A) (A) (A) (A) (A) (A) (A)
                 (A) (A) (A) (A) (A) (A) (A) (A) (A) (A) (A) (A)
                 (A) (A) (A) (A) (A) (A) (A) (A) (A) (A) (A) (A)
                 (A) (A) (A) (A) (A) (A) (A) (A) (A) (A) (A) (A)
                 (A) (A) (A) (A) (A) (A) (A) (A) (A) (A) (A) (A)
                 (A) (A) (A) (A) (A) (A) (A) (A) (A) (A) (A) (A)
                 (A) (A) (A) (A) (A) (A) (A) (A) (A) (A) (A) (A)
                 (A) (A) (A) (A) (A) (A) (A) (A) (A) (A) (A) (A)
                 (A) (A) (A) (A) (A) (A) (A) (A) (A) (A) (A) (A)
                 (A) (A) (A) (A) (A) (A) (A) (A) (A) (A) (A) (A)
                 (A) (A) (A) (A) (A) (A) (A) (A) (A) (A) (A) (A)
                 (A) (A) (A) (A) (A) (A) (A) (A) (A) (A) (A) (A)
                 (A) (A) (A) (A) (A) (A) (A) (A) (A) (A) (A) (A)
                 (A) (A) (A) (A) (A) (A) (A) (A) (A) (A) (A) (A)
                 (A) (A) (A) (A) (A) (A) (A) (A) (A) (A) (A) (A)
                 (A) (A) (A) (A) (A) (A) (A) (A) (A) (A) (A) (A)
                 (A) (A) (A) (A) (A) (A) (A) (A) (A) (A) (A) (A)
                 (A) (A) (A) (A) (A) (A) (A) (A) (A) (A) (A) (A)
                 (A) (A) (A) (A) (A) (A) (A) (A) (A) (A) (A) (A)
                 (A) (A) (A) (A) (A) (A) (A) (A) (A) (A) (A) (A)
                 (A) (A) (A) (A) (A) (A) (A) (A) (A) (A) (A) (A)
                 (A) (A) (A) (A) (A) (A) (A) (A) (A) (A) (A) (A)
                 (A) (A) (A) (A) (A) (A) (A) (A) (A) (A) (A) (A)
                 (A) (A) (A) (A) (A) (A) (A) (A) (A) (A) (A) (A)
                 (A) (A) (A) (A) (A) (A) (A) (A) (A) (A) (A) (A)
                 (A) (A) (A) (A) (A) (A) (A) (A) (A) (A) (A) (A)
                 (A) (A) (A) (A) (A) (A) (A) (A) (A) (A) (A) (A)
                 (A) (A) (A) (A) (A) (A) (A) (A) (A) (A) (A) (A)
                 (A) (A) (A) (A) (A) (A) (A) (A) (A) (A) (A) (A)
                 (A) (A) (A) (A) (A) (A) (A) (A) (A) (A) (A) (A)
                 (A) (A) (A) (A) (A) (A) (A) (A) (A) (A) (A) (A)
                 (A) (A) (A) (A) (A) (A) (A) (A) (A) (A) (A) (A)
                 (A) (A) (A) (A) (A) (A) (A) (A) (A) (A) (A) (A)
                 (A) (A) (A) (A) (A) (A) (A) (A) (A) (A) (A) (A)
                 (A) (A) (A) (A) (A) (A) (A) (A) (A) (A) (A) (A)
                 (A) (A) (A) (A) (A) (A) (A) (A) (A) (A) (A) (A)
                 (A) (A) (A) (A) (A) (A)
 The electronic state of the initial guess is 1-A.
 Requested convergence on RMS density matrix=1.00D-08 within 128 cycles.
 Requested convergence on MAX density matrix=1.00D-06.
 Requested convergence on             energy=1.00D-06.
 No special actions if energy rises.
 EnCoef did     3 forward-backward iterations
 EnCoef did     3 forward-backward iterations
 EnCoef did     9 forward-backward iterations
 EnCoef did     3 forward-backward iterations
 EnCoef did     5 forward-backward iterations
 EnCoef did     3 forward-backward iterations
 Restarting incremental Fock formation.
 SCF Done:  E(RB3LYP) =  -2945.28180069     A.U. after   28 cycles
             Convg  =    0.5038D-08             -V/T =  2.0054

 **********************************************************************

            Population analysis using the SCF density.

 **********************************************************************

 Orbital symmetries:
       Occupied  (A) (A) (A) (A) (A) (A) (A) (A) (A) (A) (A) (A)
                 (A) (A) (A) (A) (A) (A) (A) (A) (A) (A) (A) (A)
                 (A) (A) (A) (A) (A) (A) (A) (A) (A) (A) (A) (A)
                 (A) (A) (A) (A) (A) (A) (A) (A) (A) (A) (A) (A)
                 (A) (A) (A) (A) (A) (A) (A) (A) (A) (A) (A) (A)
                 (A) (A) (A) (A) (A) (A) (A) (A) (A) (A) (A) (A)
                 (A) (A) (A) (A) (A) (A) (A) (A) (A) (A) (A) (A)
                 (A) (A) (A) (A) (A) (A) (A) (A) (A) (A) (A) (A)
                 (A) (A) (A) (A) (A) (A) (A) (A) (A) (A) (A) (A)
                 (A) (A) (A) (A) (A) (A) (A) (A) (A) (A) (A) (A)
                 (A) (A) (A) (A)
       Virtual   (A) (A) (A) (A) (A) (A) (A) (A) (A) (A) (A) (A)
                 (A) (A) (A) (A) (A) (A) (A) (A) (A) (A) (A) (A)
                 (A) (A) (A) (A) (A) (A) (A) (A) (A) (A) (A) (A)
                 (A) (A) (A) (A) (A) (A) (A) (A) (A) (A) (A) (A)
                 (A) (A) (A) (A) (A) (A) (A) (A) (A) (A) (A) (A)
                 (A) (A) (A) (A) (A) (A) (A) (A) (A) (A) (A) (A)
                 (A) (A) (A) (A) (A) (A) (A) (A) (A) (A) (A) (A)
                 (A) (A) (A) (A) (A) (A) (A) (A) (A) (A) (A) (A)
                 (A) (A) (A) (A) (A) (A) (A) (A) (A) (A) (A) (A)
                 (A) (A) (A) (A) (A) (A) (A) (A) (A) (A) (A) (A)
                 (A) (A) (A) (A) (A) (A) (A) (A) (A) (A) (A) (A)
                 (A) (A) (A) (A) (A) (A) (A) (A) (A) (A) (A) (A)
                 (A) (A) (A) (A) (A) (A) (A) (A) (A) (A) (A) (A)
                 (A) (A) (A) (A) (A) (A) (A) (A) (A) (A) (A) (A)
                 (A) (A) (A) (A) (A) (A) (A) (A) (A) (A) (A) (A)
                 (A) (A) (A) (A) (A) (A) (A) (A) (A) (A) (A) (A)
                 (A) (A) (A) (A) (A) (A) (A) (A) (A) (A) (A) (A)
                 (A) (A) (A) (A) (A) (A) (A) (A) (A) (A) (A) (A)
                 (A) (A) (A) (A) (A) (A) (A) (A) (A) (A) (A) (A)
                 (A) (A) (A) (A) (A) (A) (A) (A) (A) (A) (A) (A)
                 (A) (A) (A) (A) (A) (A) (A) (A) (A) (A) (A) (A)
                 (A) (A) (A) (A) (A) (A) (A) (A) (A) (A) (A) (A)
                 (A) (A) (A) (A) (A) (A) (A) (A) (A) (A) (A) (A)
                 (A) (A) (A) (A) (A) (A) (A) (A) (A) (A) (A) (A)
                 (A) (A) (A) (A) (A) (A) (A) (A) (A) (A) (A) (A)
                 (A) (A) (A) (A) (A) (A) (A) (A) (A) (A) (A) (A)
                 (A) (A) (A) (A) (A) (A) (A) (A) (A) (A) (A) (A)
                 (A) (A) (A) (A) (A) (A) (A) (A) (A) (A) (A) (A)
                 (A) (A) (A) (A) (A) (A) (A) (A) (A) (A) (A) (A)
                 (A) (A) (A) (A) (A) (A) (A) (A) (A) (A) (A) (A)
                 (A) (A) (A) (A) (A) (A) (A) (A) (A) (A) (A) (A)
                 (A) (A) (A) (A) (A) (A) (A) (A) (A) (A) (A) (A)
                 (A) (A) (A) (A) (A) (A) (A) (A) (A) (A) (A) (A)
                 (A) (A) (A) (A) (A) (A) (A) (A) (A) (A) (A) (A)
                 (A) (A) (A) (A) (A) (A) (A) (A) (A) (A) (A) (A)
                 (A) (A) (A) (A) (A) (A) (A) (A) (A) (A) (A) (A)
                 (A) (A) (A) (A) (A) (A) (A) (A) (A) (A) (A) (A)
                 (A) (A) (A) (A) (A) (A) (A) (A) (A) (A) (A) (A)
                 (A) (A) (A) (A) (A) (A) (A) (A) (A) (A) (A) (A)
                 (A) (A) (A) (A) (A) (A) (A) (A) (A) (A) (A) (A)
                 (A) (A) (A) (A) (A) (A) (A) (A) (A) (A) (A) (A)
                 (A) (A) (A) (A) (A) (A) (A) (A) (A) (A) (A) (A)
                 (A) (A) (A) (A) (A) (A) (A) (A) (A) (A) (A) (A)
                 (A) (A) (A) (A) (A) (A) (A) (A) (A) (A) (A) (A)
                 (A) (A) (A) (A) (A) (A)
 The electronic state is 1-A.
 Alpha  occ. eigenvalues --  -88.98640 -88.97787 -88.93281 -88.91316 -66.18158
 Alpha  occ. eigenvalues --  -14.39037 -14.39036 -14.38446 -14.37229 -10.26340
 Alpha  occ. eigenvalues --  -10.26030 -10.25979 -10.25645 -10.25070 -10.25062
 Alpha  occ. eigenvalues --  -10.24871 -10.23931 -10.23646 -10.23276 -10.22961
 Alpha  occ. eigenvalues --  -10.22941 -10.22736 -10.22589 -10.22520 -10.21681
 Alpha  occ. eigenvalues --  -10.21408 -10.21327 -10.20825 -10.20177 -10.20080
 Alpha  occ. eigenvalues --  -10.19838  -8.03910  -8.03088  -7.99203  -7.97365
 Alpha  occ. eigenvalues --   -6.00483  -5.99915  -5.99675  -5.99627  -5.99095
 Alpha  occ. eigenvalues --   -5.98783  -5.95631  -5.95231  -5.94924  -5.93769
 Alpha  occ. eigenvalues --   -5.93384  -5.93102  -5.32640  -3.68777  -3.68445
 Alpha  occ. eigenvalues --   -3.68275  -1.02837  -1.02100  -0.92844  -0.92156
 Alpha  occ. eigenvalues --   -0.90811  -0.89498  -0.89018  -0.86676  -0.83929
 Alpha  occ. eigenvalues --   -0.81916  -0.80244  -0.77543  -0.74984  -0.74695
 Alpha  occ. eigenvalues --   -0.73926  -0.73740  -0.70753  -0.67622  -0.67568
 Alpha  occ. eigenvalues --   -0.64206  -0.64012  -0.61239  -0.59512  -0.58830
 Alpha  occ. eigenvalues --   -0.57498  -0.56775  -0.56032  -0.54439  -0.54079
 Alpha  occ. eigenvalues --   -0.53608  -0.52185  -0.51868  -0.50697  -0.49579
 Alpha  occ. eigenvalues --   -0.49047  -0.47350  -0.46422  -0.45634  -0.45538
 Alpha  occ. eigenvalues --   -0.44936  -0.43449  -0.42768  -0.42564  -0.41561
 Alpha  occ. eigenvalues --   -0.41248  -0.40600  -0.39952  -0.39788  -0.39596
 Alpha  occ. eigenvalues --   -0.39101  -0.38539  -0.37924  -0.37452  -0.36434
 Alpha  occ. eigenvalues --   -0.36393  -0.35044  -0.34784  -0.34059  -0.33574
 Alpha  occ. eigenvalues --   -0.33107  -0.32496  -0.32230  -0.31472  -0.31150
 Alpha  occ. eigenvalues --   -0.30212  -0.28559  -0.27399  -0.26029  -0.25493
 Alpha  occ. eigenvalues --   -0.23662  -0.23024  -0.22077  -0.17666
 Alpha virt. eigenvalues --   -0.13215  -0.11853  -0.09605  -0.05966  -0.04428
 Alpha virt. eigenvalues --   -0.03987  -0.03141  -0.01881  -0.01826  -0.01355
 Alpha virt. eigenvalues --   -0.01255  -0.00454  -0.00267  -0.00037   0.00281
 Alpha virt. eigenvalues --    0.00768   0.01158   0.01395   0.01693   0.01804
 Alpha virt. eigenvalues --    0.01922   0.02187   0.02514   0.02624   0.03165
 Alpha virt. eigenvalues --    0.03487   0.03700   0.03908   0.04284   0.04491
 Alpha virt. eigenvalues --    0.04620   0.04934   0.05185   0.05219   0.05635
 Alpha virt. eigenvalues --    0.05825   0.06478   0.06958   0.07223   0.07586
 Alpha virt. eigenvalues --    0.07852   0.08113   0.08243   0.08564   0.08830
 Alpha virt. eigenvalues --    0.08964   0.09234   0.09571   0.09918   0.09975
 Alpha virt. eigenvalues --    0.10242   0.10770   0.10794   0.11086   0.11355
 Alpha virt. eigenvalues --    0.11477   0.11621   0.11809   0.11936   0.12301
 Alpha virt. eigenvalues --    0.12494   0.12755   0.12788   0.12909   0.13342
 Alpha virt. eigenvalues --    0.13542   0.13761   0.13996   0.14090   0.14441
 Alpha virt. eigenvalues --    0.14778   0.14983   0.15200   0.15445   0.15565
 Alpha virt. eigenvalues --    0.15769   0.16311   0.16374   0.16558   0.16631
 Alpha virt. eigenvalues --    0.17083   0.17360   0.17764   0.17889   0.18125
 Alpha virt. eigenvalues --    0.18393   0.18640   0.18773   0.19121   0.19544
 Alpha virt. eigenvalues --    0.19686   0.19930   0.20409   0.20560   0.20774
 Alpha virt. eigenvalues --    0.20869   0.21135   0.21394   0.21535   0.21746
 Alpha virt. eigenvalues --    0.22348   0.22602   0.22777   0.22836   0.23044
 Alpha virt. eigenvalues --    0.23308   0.23741   0.24011   0.24258   0.24344
 Alpha virt. eigenvalues --    0.24823   0.24892   0.25121   0.25452   0.25938
 Alpha virt. eigenvalues --    0.26200   0.26350   0.26488   0.26688   0.26980
 Alpha virt. eigenvalues --    0.27185   0.27389   0.27507   0.27660   0.27700
 Alpha virt. eigenvalues --    0.28334   0.28519   0.28719   0.28823   0.29163
 Alpha virt. eigenvalues --    0.29505   0.29766   0.30030   0.30399   0.30465
 Alpha virt. eigenvalues --    0.30724   0.30876   0.31156   0.31668   0.32023
 Alpha virt. eigenvalues --    0.32048   0.32359   0.32430   0.32867   0.32999
 Alpha virt. eigenvalues --    0.33523   0.33673   0.33867   0.34189   0.34491
 Alpha virt. eigenvalues --    0.34724   0.35071   0.35265   0.35512   0.35930
 Alpha virt. eigenvalues --    0.36270   0.36471   0.36818   0.37413   0.38045
 Alpha virt. eigenvalues --    0.38198   0.38519   0.38800   0.38937   0.39935
 Alpha virt. eigenvalues --    0.40613   0.40838   0.41316   0.41827   0.42499
 Alpha virt. eigenvalues --    0.43127   0.43435   0.43924   0.44414   0.44937
 Alpha virt. eigenvalues --    0.45975   0.47047   0.47700   0.48011   0.49275
 Alpha virt. eigenvalues --    0.50359   0.50597   0.51534   0.51963   0.52068
 Alpha virt. eigenvalues --    0.52585   0.53211   0.53571   0.54177   0.54621
 Alpha virt. eigenvalues --    0.55503   0.55928   0.57365   0.58010   0.60040
 Alpha virt. eigenvalues --    0.60742   0.61616   0.62330   0.63176   0.63698
 Alpha virt. eigenvalues --    0.64611   0.65384   0.65747   0.66234   0.66299
 Alpha virt. eigenvalues --    0.66752   0.67365   0.68135   0.68326   0.68654
 Alpha virt. eigenvalues --    0.69100   0.69277   0.69676   0.69868   0.70457
 Alpha virt. eigenvalues --    0.70746   0.71129   0.71896   0.72550   0.73491
 Alpha virt. eigenvalues --    0.73717   0.74348   0.74898   0.75406   0.75713
 Alpha virt. eigenvalues --    0.76011   0.76217   0.76643   0.77573   0.77907
 Alpha virt. eigenvalues --    0.78692   0.78803   0.79219   0.79690   0.80208
 Alpha virt. eigenvalues --    0.80985   0.81157   0.81433   0.81761   0.83044
 Alpha virt. eigenvalues --    0.83496   0.83595   0.83746   0.84382   0.84698
 Alpha virt. eigenvalues --    0.84940   0.85732   0.86004   0.86969   0.88009
 Alpha virt. eigenvalues --    0.88934   0.89463   0.90398   0.91398   0.91781
 Alpha virt. eigenvalues --    0.92025   0.92290   0.92919   0.94127   0.94359
 Alpha virt. eigenvalues --    0.95356   0.95618   0.96187   0.96831   0.96924
 Alpha virt. eigenvalues --    0.97451   0.97878   0.98366   0.99325   0.99592
 Alpha virt. eigenvalues --    1.00747   1.01344   1.01707   1.01951   1.02584
 Alpha virt. eigenvalues --    1.03190   1.03486   1.04460   1.04619   1.04996
 Alpha virt. eigenvalues --    1.05697   1.06195   1.06679   1.07604   1.08163
 Alpha virt. eigenvalues --    1.08558   1.09689   1.10205   1.10837   1.11829
 Alpha virt. eigenvalues --    1.12271   1.12818   1.13483   1.13884   1.14348
 Alpha virt. eigenvalues --    1.15369   1.15959   1.16299   1.16674   1.17032
 Alpha virt. eigenvalues --    1.18233   1.18544   1.19199   1.20080   1.20466
 Alpha virt. eigenvalues --    1.20992   1.21822   1.22664   1.22913   1.23367
 Alpha virt. eigenvalues --    1.23796   1.24989   1.25369   1.25658   1.26310
 Alpha virt. eigenvalues --    1.27107   1.28819   1.29171   1.29713   1.30399
 Alpha virt. eigenvalues --    1.31545   1.32964   1.33468   1.33837   1.34409
 Alpha virt. eigenvalues --    1.35033   1.35697   1.36151   1.36812   1.37352
 Alpha virt. eigenvalues --    1.38382   1.38686   1.39170   1.41102   1.41759
 Alpha virt. eigenvalues --    1.42742   1.43380   1.45878   1.46917   1.47734
 Alpha virt. eigenvalues --    1.49337   1.51082   1.51970   1.52506   1.53275
 Alpha virt. eigenvalues --    1.55592   1.56833   1.59149   1.60675   1.61065
 Alpha virt. eigenvalues --    1.62569   1.64531   1.66910   1.67383   1.67762
 Alpha virt. eigenvalues --    1.68686   1.69701   1.70983   1.71283   1.72035
 Alpha virt. eigenvalues --    1.72435   1.74612   1.75345   1.75931   1.78204
 Alpha virt. eigenvalues --    1.78251   1.78731   1.79757   1.80687   1.81124
 Alpha virt. eigenvalues --    1.81495   1.83233   1.84422   1.85252   1.86435
 Alpha virt. eigenvalues --    1.88031   1.89148   1.89727   1.90190   1.91215
 Alpha virt. eigenvalues --    1.91582   1.91942   1.92960   1.93430   1.94781
 Alpha virt. eigenvalues --    1.95154   1.95886   1.96685   1.98205   1.98722
 Alpha virt. eigenvalues --    2.00157   2.01455   2.02195   2.03680   2.05095
 Alpha virt. eigenvalues --    2.06770   2.07688   2.07997   2.08979   2.09739
 Alpha virt. eigenvalues --    2.10266   2.11728   2.13027   2.13916   2.14670
 Alpha virt. eigenvalues --    2.14979   2.15930   2.17510   2.17772   2.18194
 Alpha virt. eigenvalues --    2.20261   2.20507   2.21419   2.22571   2.22712
 Alpha virt. eigenvalues --    2.22788   2.24832   2.26085   2.26695   2.29431
 Alpha virt. eigenvalues --    2.30017   2.31543   2.32119   2.33308   2.34128
 Alpha virt. eigenvalues --    2.34809   2.36162   2.36596   2.36952   2.38343
 Alpha virt. eigenvalues --    2.38675   2.39816   2.40475   2.41464   2.42385
 Alpha virt. eigenvalues --    2.43900   2.44162   2.45679   2.45743   2.46690
 Alpha virt. eigenvalues --    2.47544   2.49154   2.49469   2.50328   2.51259
 Alpha virt. eigenvalues --    2.52346   2.53309   2.54359   2.54870   2.55728
 Alpha virt. eigenvalues --    2.56185   2.57000   2.58608   2.59005   2.59100
 Alpha virt. eigenvalues --    2.59762   2.61387   2.62668   2.63269   2.63707
 Alpha virt. eigenvalues --    2.65202   2.66482   2.68754   2.70060   2.70290
 Alpha virt. eigenvalues --    2.71957   2.72709   2.73342   2.74794   2.75420
 Alpha virt. eigenvalues --    2.77896   2.78714   2.80286   2.82388   2.83669
 Alpha virt. eigenvalues --    2.83866   2.84960   2.86833   2.88885   2.89803
 Alpha virt. eigenvalues --    2.91501   2.96125   2.96704   2.97528   3.01231
 Alpha virt. eigenvalues --    3.02522   3.05451   3.09217   3.12029   3.12893
 Alpha virt. eigenvalues --    3.14538   3.18176   3.18567   3.21372   3.29166
 Alpha virt. eigenvalues --    3.30731   3.37193   3.38761   3.42848   3.43665
 Alpha virt. eigenvalues --    3.49735   3.56349   3.67124   3.73728   3.97877
 Alpha virt. eigenvalues --    3.99177   4.00730   4.01484   4.15822   4.18145
 Alpha virt. eigenvalues --    4.26010   4.29391   4.31504   4.32595   4.34162
 Alpha virt. eigenvalues --    4.37004   4.39471   4.39768   4.43197   4.46014
 Alpha virt. eigenvalues --    4.48364   4.49498   4.50844   4.54065   4.54648
 Alpha virt. eigenvalues --    4.56624   4.58788   4.63049   4.65484   4.68049
 Alpha virt. eigenvalues --    4.72668   4.77267   4.84385   4.92287
          Condensed to atoms (all electrons):
              1          2          3          4          5          6
     1  Si  13.751897   0.368158   0.251641  -1.157062   1.567384  -0.572735
     2  H    0.368158   0.803568  -0.053536  -0.121292   0.439337   0.025348
     3  H    0.251641  -0.053536   0.745568   0.129249  -0.171296  -0.024561
     4  C   -1.157062  -0.121292   0.129249  16.852080  -9.938015   3.530514
     5  C    1.567384   0.439337  -0.171296  -9.938015  52.347920  -5.639953
     6  C   -0.572735   0.025348  -0.024561   3.530514  -5.639953  28.592254
     7  C    0.683892   0.037882  -0.082816  -1.711040  -4.801138  -7.710184
     8  C    0.894139   0.080851  -0.130192  -1.833373   9.570913  -6.684909
     9  C   -0.279660  -0.004419   0.015430   0.569835   2.045490   4.054780
    10  N    0.008561   0.003902  -0.002130   0.036486  -0.000370  -0.045179
    11  S    0.003760   0.002087  -0.000970   0.037812   0.006951  -0.102453
    12  N    0.003904   0.001209  -0.000631   0.000271   0.091323  -0.045494
    13  C   -0.091147   0.007686  -0.001521  -0.079803  -0.060262  -0.074279
    14  C   -0.149431   0.001013   0.008957   0.302684  -2.171746   0.374365
    15  C   -0.104472  -0.010881   0.013699   0.075032  -0.845428   0.061364
    16  S   -0.002464  -0.000344   0.000350  -0.011144   0.004788  -0.011836
    17  C   -0.007879  -0.000013   0.000430   0.001559  -0.014849   0.005231
    18  C    0.005319   0.000055  -0.000430   0.016754  -0.032130  -0.012573
    19  C   -0.109731  -0.007584   0.017466   0.170260  -0.833335   0.111931
    20  C   -0.143111  -0.013330   0.034684   0.082953  -0.872213   0.250970
    21  N    0.002186   0.000664  -0.001361   0.002054   0.029942  -0.002501
    22  S   -0.001633  -0.001666   0.003606  -0.001581  -0.058275   0.007624
    23  N   -0.036751  -0.007674   0.016259  -0.026833  -0.617561  -0.038507
    24  C    0.010644   0.003042  -0.041082   0.234219  -1.766754   0.555857
    25  C   -0.199492  -0.088183   0.069353   0.691606  -7.414408   1.505389
    26  C    0.154091   0.038633  -0.161890   2.144283  -6.978364   0.791784
    27  C   -1.993157  -0.238991   0.074759   0.712098 -14.149227  -6.754070
    28  C    0.909245  -0.217665   0.240698  -6.022274   1.298574  -3.629340
    29  C   -0.552978  -0.047136   0.091542   2.031685  -7.308953   1.892607
    30  C    0.011002  -0.031381   0.014351   0.726947  -1.825418  -4.894728
    31  C   -0.013189   0.004738   0.000041   0.016829  -0.156292   1.724277
    32  C    0.024882  -0.002788  -0.002456  -0.131022  -0.011242  -1.294657
    33  S   -0.020216   0.008578   0.000722  -0.089923   1.352892   0.960904
    34  H    0.007782   0.039127  -0.015641   0.207534   0.789200  -0.159741
    35  H    0.016448   0.000790  -0.001930  -0.089627   0.297206  -0.216757
    36  H   -0.000050   0.000021  -0.000007  -0.000060   0.000213  -0.000093
    37  H   -0.000285  -0.000088   0.000100   0.000209  -0.002100   0.000422
    38  H   -0.024026   0.019773  -0.017717  -0.188517   0.706773  -0.053656
    39  H   -0.002773  -0.001344   0.000812   0.031848  -0.000692  -0.100914
    40  H   -0.000511   0.000052   0.000037   0.002261  -0.004840   0.030183
    41  H    0.001115  -0.000009  -0.000183  -0.003656   0.010003  -0.029188
              7          8          9         10         11         12
     1  Si   0.683892   0.894139  -0.279660   0.008561   0.003760   0.003904
     2  H    0.037882   0.080851  -0.004419   0.003902   0.002087   0.001209
     3  H   -0.082816  -0.130192   0.015430  -0.002130  -0.000970  -0.000631
     4  C   -1.711040  -1.833373   0.569835   0.036486   0.037812   0.000271
     5  C   -4.801138   9.570913   2.045490  -0.000370   0.006951   0.091323
     6  C   -7.710184  -6.684909   4.054780  -0.045179  -0.102453  -0.045494
     7  C   54.062333   1.273666 -15.369189   0.459166   0.091305   0.022913
     8  C    1.273666  44.698210 -10.031093  -0.725138   0.041738   0.177423
     9  C  -15.369189 -10.031093  34.006605  -1.073157  -0.339289   0.004180
    10  N    0.459166  -0.725138  -1.073157   7.627044  -0.079554  -0.244351
    11  S    0.091305   0.041738  -0.339289  -0.079554  15.853910  -0.004240
    12  N    0.022913   0.177423   0.004180  -0.244351  -0.004240   7.432153
    13  C    2.493127  -8.232954   1.694815   0.991874  -0.337483   0.106067
    14  C    0.633584  -2.827319  -1.191932   0.166825  -0.010119  -0.026226
    15  C    0.844094  -2.205199  -1.323827   0.067685   0.061462  -0.039828
    16  S    0.052579   0.059064  -0.033387  -0.001934   0.021895  -0.002803
    17  C   -0.011495  -0.028557  -0.005437   0.002210  -0.004635   0.003101
    18  C   -0.046348  -0.767612  -0.127909   0.004243   0.017865   0.016843
    19  C   -0.285985  -2.055590  -0.030382   0.019100   0.036567  -0.044757
    20  C   -1.044557  -1.334465   0.531573  -0.017037  -0.009164   0.000521
    21  N    0.004797   0.050101  -0.017979   0.000202   0.000291   0.000028
    22  S   -0.045119  -0.191988   0.004180   0.000161  -0.000105  -0.000349
    23  N   -0.186424  -0.678052  -0.080420  -0.000543  -0.003322  -0.000151
    24  C   -2.550969  -1.349051  -0.227683   0.006312  -0.011531  -0.038635
    25  C   -3.272827  -4.210932   1.498997  -0.095749  -0.069109  -0.050106
    26  C  -14.764244   3.668572  -1.336036  -0.086541  -0.014916   0.011262
    27  C    1.509838  -5.951052  -5.379022   0.067626  -0.076027  -0.045902
    28  C   -0.292095  -3.141549   0.535148   0.033024   0.012208   0.006088
    29  C   -1.922462  -3.145526  -1.869450   0.093543   0.010666  -0.008787
    30  C   -4.139767   0.693758   0.771143  -0.153189  -0.064347   0.007128
    31  C    1.126456  -0.373882  -0.250353   0.033341   0.014486  -0.001465
    32  C   -0.405263   0.343093   0.013804  -0.004355  -0.004434   0.000651
    33  S    0.783941  -0.251761  -0.139010   0.017034   0.005360  -0.001058
    34  H    0.063919   0.265979   0.063195   0.018836  -0.000272   0.015681
    35  H    0.700056   0.212519  -0.259106   0.035802  -0.007688  -0.000291
    36  H   -0.000137  -0.002736  -0.002908   0.000126   0.000172   0.000930
    37  H    0.000508  -0.004468  -0.001941  -0.000082   0.000006   0.000418
    38  H    0.138076   0.083133  -0.086160   0.012905   0.006514   0.004412
    39  H   -0.148051  -0.034737   0.094959  -0.013701  -0.010479   0.001296
    40  H   -0.005053  -0.006824  -0.004541   0.000535   0.000390  -0.000024
    41  H   -0.017410   0.011031  -0.000857   0.000038  -0.000051   0.000009
             13         14         15         16         17         18
     1  Si  -0.091147  -0.149431  -0.104472  -0.002464  -0.007879   0.005319
     2  H    0.007686   0.001013  -0.010881  -0.000344  -0.000013   0.000055
     3  H   -0.001521   0.008957   0.013699   0.000350   0.000430  -0.000430
     4  C   -0.079803   0.302684   0.075032  -0.011144   0.001559   0.016754
     5  C   -0.060262  -2.171746  -0.845428   0.004788  -0.014849  -0.032130
     6  C   -0.074279   0.374365   0.061364  -0.011836   0.005231  -0.012573
     7  C    2.493127   0.633584   0.844094   0.052579  -0.011495  -0.046348
     8  C   -8.232954  -2.827319  -2.205199   0.059064  -0.028557  -0.767612
     9  C    1.694815  -1.191932  -1.323827  -0.033387  -0.005437  -0.127909
    10  N    0.991874   0.166825   0.067685  -0.001934   0.002210   0.004243
    11  S   -0.337483  -0.010119   0.061462   0.021895  -0.004635   0.017865
    12  N    0.106067  -0.026226  -0.039828  -0.002803   0.003101   0.016843
    13  C   17.131014   1.991312   1.808685  -0.136508   0.271476  -0.809670
    14  C    1.991312  11.292548   1.816139  -0.522299   0.938507  -4.423813
    15  C    1.808685   1.816139  15.391235  -0.227613   0.725893  -3.889556
    16  S   -0.136508  -0.522299  -0.227613  16.511622  -0.365498   0.679143
    17  C    0.271476   0.938507   0.725893  -0.365498   7.384484  -2.182658
    18  C   -0.809670  -4.423813  -3.889556   0.679143  -2.182658  19.304538
    19  C   -0.709802  -0.075509   2.825745   0.360143  -0.197823  -3.096840
    20  C   -0.503333  -0.258299  -4.563016  -0.111845  -0.252978   1.745425
    21  N    0.009230  -0.052776  -0.155347  -0.004456   0.018261   0.165673
    22  S   -0.025049   0.018251  -0.099641  -0.014918  -0.004322   0.104149
    23  N   -0.104997   0.020059  -0.035192   0.005815  -0.013490   0.174082
    24  C   -1.169876  -0.380839  -1.239245   0.068379  -0.248218   0.589732
    25  C   -0.691153   1.487276  -0.456828  -0.309891   0.062905  -1.716523
    26  C   -5.567277  -1.632785  -2.096333  -0.056954  -0.033037  -0.348209
    27  C   -1.342353   0.609265  -0.244768  -0.055875   0.024544  -0.158707
    28  C    0.213650  -0.286913   0.410444   0.020817  -0.017887   0.232399
    29  C   -0.476826   0.090022  -0.037365  -0.002178   0.000837  -0.002889
    30  C   -0.500169  -0.059215  -0.015213  -0.000977   0.000029  -0.000072
    31  C    0.064787   0.013423   0.001697   0.000071  -0.000005   0.000003
    32  C   -0.042175  -0.008920  -0.001563  -0.000042   0.000005  -0.000012
    33  S    0.066748   0.000962   0.001904   0.000200  -0.000037  -0.000144
    34  H    0.053043  -0.006425  -0.033972  -0.000649   0.000201  -0.003658
    35  H    0.001274  -0.018450   0.001944   0.000699  -0.000188   0.000742
    36  H   -0.005195   0.007556   0.052211  -0.046367   0.350935  -0.022193
    37  H   -0.008760  -0.000607   0.042190   0.029225  -0.178013   0.475588
    38  H    0.032648  -0.021039  -0.050453  -0.020256   0.007419   0.000802
    39  H   -0.022225  -0.005830  -0.001190  -0.000127  -0.000000  -0.000042
    40  H    0.000410   0.000182   0.000015   0.000001   0.000000   0.000000
    41  H   -0.000761  -0.000255  -0.000035  -0.000001   0.000000  -0.000000
             19         20         21         22         23         24
     1  Si  -0.109731  -0.143111   0.002186  -0.001633  -0.036751   0.010644
     2  H   -0.007584  -0.013330   0.000664  -0.001666  -0.007674   0.003042
     3  H    0.017466   0.034684  -0.001361   0.003606   0.016259  -0.041082
     4  C    0.170260   0.082953   0.002054  -0.001581  -0.026833   0.234219
     5  C   -0.833335  -0.872213   0.029942  -0.058275  -0.617561  -1.766754
     6  C    0.111931   0.250970  -0.002501   0.007624  -0.038507   0.555857
     7  C   -0.285985  -1.044557   0.004797  -0.045119  -0.186424  -2.550969
     8  C   -2.055590  -1.334465   0.050101  -0.191988  -0.678052  -1.349051
     9  C   -0.030382   0.531573  -0.017979   0.004180  -0.080420  -0.227683
    10  N    0.019100  -0.017037   0.000202   0.000161  -0.000543   0.006312
    11  S    0.036567  -0.009164   0.000291  -0.000105  -0.003322  -0.011531
    12  N   -0.044757   0.000521   0.000028  -0.000349  -0.000151  -0.038635
    13  C   -0.709802  -0.503333   0.009230  -0.025049  -0.104997  -1.169876
    14  C   -0.075509  -0.258299  -0.052776   0.018251   0.020059  -0.380839
    15  C    2.825745  -4.563016  -0.155347  -0.099641  -0.035192  -1.239245
    16  S    0.360143  -0.111845  -0.004456  -0.014918   0.005815   0.068379
    17  C   -0.197823  -0.252978   0.018261  -0.004322  -0.013490  -0.248218
    18  C   -3.096840   1.745425   0.165673   0.104149   0.174082   0.589732
    19  C   16.775764  -2.637653  -0.441810   0.146123   0.093159  -1.146955
    20  C   -2.637653  13.251931   0.308528   0.019554   0.071465   0.541125
    21  N   -0.441810   0.308528   7.569158  -0.095609  -0.207735   0.147783
    22  S    0.146123   0.019554  -0.095609  15.833748  -0.032262  -0.289663
    23  N    0.093159   0.071465  -0.207735  -0.032262   7.523113   0.475724
    24  C   -1.146955   0.541125   0.147783  -0.289663   0.475724  10.587750
    25  C   -0.958527   0.373604   0.071533  -0.141954   0.034942   0.762011
    26  C   -2.354860   0.327005  -0.010864  -0.294129  -0.171523   3.191574
    27  C    0.260033   0.378387   0.050576   0.010282   0.134350  -0.946106
    28  C    0.022372  -0.245113  -0.072013   0.259490   1.008323  -0.080345
    29  C    0.009615   0.108966  -0.000205   0.007112   0.060483   0.426267
    30  C    0.003149   0.016076  -0.000044   0.000340   0.003762   0.122408
[...]
 6,0.00000062,0.00000207,-0.00000276,-0.00000157,0.00000308,0.00000085,
 -0.00000273,-0.00000442,0.00194685,-0.00173692,0.00178102,0.00984361,0
 .03761158,0.00001113,-0.00001287,-0.00000805,-0.00000488,-0.00000265,-
 0.00000083,-0.00000294,0.00000179,0.00000081,-0.00001680,0.00000007,0.
 00001703,0.00001113,0.00001703,0.00001142,0.00000831,0.00000117,0.0000
 0153,-0.00001649,-0.00001439,-0.00001429,-0.00002248,0.00000071,0.0000
 0627,0.00006105,0.00008383,0.00002524,0.00005588,-0.00001818,0.0000007
 0,0.00004625,0.00002720,-0.00002216,-0.00018264,0.00010756,-0.00004210
 ,-0.00006595,-0.00018661,-0.00034276,0.00108627,0.00014750,0.00047474,
 0.00061318,-0.00377376,-0.00224006,-0.00052304,-0.00367940,0.00331829,
 -0.00686051,-0.00088649,0.00731846,0.13787377,-0.00905940,-0.13051113,
 0.01838240,0.00351961,-0.00644168,0.00018605,0.00153805,-0.00010261,-0
 .00009130,0.00013879,0.00016556,-0.00041646,-0.00032724,-0.00008428,-0
 .00014307,0.00020712,0.00037281,0.00023604,0.00000590,-0.00026230,-0.0
 0004872,0.00004544,0.00002591,-0.00003441,-0.00002557,-0.00000603,0.00
 006584,0.00002042,-0.00002441,-0.00001758,-0.00001424,0.00000528,0.000
 00592,0.00000452,-0.00000348,-0.00000449,0.00000137,0.00000288,-0.0000
 0524,-0.00000590,-0.00000392,0.00000806,-0.00000386,-0.00001213,0.0000
 0051,0.00000101,0.00000441,-0.00000395,-0.00000178,0.00000071,0.000001
 99,-0.00000142,-0.00000140,-0.00060492,0.00223684,-0.00148204,-0.14957
 998,0.00990709,0.12987098,0.00222856,-0.00301381,0.00061829,-0.0001299
 2,0.00047885,0.00029636,0.00032863,-0.00061342,-0.00047220,-0.00121143
 ,-0.00051163,-0.00070663,-0.00432266,-0.00152206,-0.00046259,0.0001170
 6,-0.00032817,0.00144919,0.00003291,0.00010350,-0.00026262,-0.00016119
 ,-0.00060231,0.00033336,-0.00003957,0.00009400,0.00017365,-0.00003809,
 -0.00007285,-0.00003320,-0.00004233,-0.00003598,-0.00003090,0.00006070
 ,-0.00001296,-0.00005134,-0.00012243,-0.00002209,0.00003521,0.00018604
 ,0.00003186,-0.00012429,-0.00002701,-0.00004045,0.00000224,0.00000725,
 0.00002113,0.00001808,0.00002197,0.00000655,-0.00000602,-0.00000415,-0
 .00000391,-0.00004039,0.00004370,0.00002571,0.00002046,-0.00018928,-0.
 00010539,0.00002088,-0.00002811,0.00051457,0.00019629,0.00050928,-0.00
 007474,0.00001573,0.00067842,-0.00042227,0.00156290,-0.00053439,-0.000
 27364,-0.00014370,-0.00023138,0.00001876,-0.00030518,0.00031936,0.0006
 9047,0.00096909,-0.01236901,0.01241521,0.00216366,-0.26773781,0.133584
 24,0.00208708,-0.00031905,-0.00026768,-0.00007976,0.00001235,0.0001016
 2,0.00005031,0.00002216,0.00003962,0.00002623,-0.00006564,0.00004730,0
 .00008119,0.00001051,-0.00001688,0.00000355,0.00040879,0.00033387,0.00
 014915,-0.00005102,0.00003438,-0.00004068,0.00000574,-0.00000020,0.000
 00095,0.00000015,-0.00000476,-0.00000794,0.28262092,0.01352227,-0.0077
 8898,-0.00042400,-0.00100636,0.00115166,0.00017561,0.00021066,-0.00096
 057,-0.00107338,0.00034884,-0.00388524,0.00171778,-0.00197069,-0.00216
 985,-0.00065085,-0.00058458,0.00012991,0.00085158,0.00013153,0.0000804
 0,-0.00015913,-0.00003137,-0.00041763,0.00015307,-0.00014051,-0.000071
 99,0.00005335,0.00000508,-0.00001835,0.00001033,-0.00005943,-0.0000143
 0,-0.00000463,0.00002729,0.00002197,0.00000336,-0.00002682,-0.00000835
 ,0.00001596,0.00009573,0.00002345,0.00003687,0.00001383,-0.00001239,-0
 .00002693,-0.00001724,-0.00002343,-0.00001588,0.00000209,-0.00001117,-
 0.00000353,-0.00001102,-0.00003172,0.00000982,-0.00002172,0.00000985,-
 0.00000759,-0.00006116,-0.00009354,-0.00006425,-0.00001110,-0.00019624
 ,-0.00012592,-0.00028324,0.00019854,0.00034384,-0.00053590,-0.00037166
 ,-0.00179140,0.00025623,-0.00005352,-0.00053207,-0.00004826,-0.0002306
 2,-0.00037362,0.00017411,0.00071473,0.00082882,-0.01358693,0.00928690,
 0.00137592,0.14432472,-0.11556211,-0.01125119,-0.00025612,-0.00018289,
 -0.00004882,0.00005970,0.00005398,-0.00000534,0.00007642,0.00005839,0.
 00001067,-0.00012752,0.00010443,0.00009668,0.00003131,-0.00007497,0.00
 000479,0.00008974,0.00102581,-0.00015656,-0.00001906,-0.00002439,0.000
 01506,-0.00000426,0.00000214,-0.00000501,-0.00000009,0.00000687,0.0000
 0208,-0.14060115,0.11933452,-0.00642532,0.00400243,-0.00354715,0.00036
 805,-0.00091945,0.00036525,-0.00067465,0.00178287,0.00111464,0.0207972
 8,-0.00967629,0.00497673,-0.00274712,-0.00292391,0.00051637,0.00348301
 ,0.00193989,-0.00038298,-0.00077864,-0.00112779,-0.00143797,-0.0006487
 2,0.00023911,0.00118309,-0.00021826,-0.00014420,0.00003125,0.00015146,
 0.00001871,-0.00005530,-0.00015106,-0.00006637,0.00000032,0.00014772,0
 .00002639,-0.00006506,-0.00008210,-0.00000901,0.00005913,0.00010711,0.
 00003545,-0.00006400,0.00002089,0.00001644,-0.00004278,0.00005163,0.00
 011415,0.00009406,0.00008721,-0.00001224,-0.00005988,0.00000841,-0.000
 04121,-0.00003000,-0.00005564,-0.00000130,0.00001137,-0.00015386,0.000
 03676,-0.00018694,0.00011601,0.00024434,0.00027019,0.00065210,-0.00005
 530,-0.00109387,0.00040105,-0.00070562,-0.00178458,-0.00076505,-0.0002
 5203,0.00007119,-0.00015661,0.00003150,0.00036980,-0.00023311,0.000069
 89,0.00080171,-0.00024140,0.00649364,-0.00254084,-0.00421875,-0.010867
 91,-0.03210947,-0.00039853,0.00012847,0.00025046,0.00014657,-0.0000214
 7,-0.00017970,0.00015645,0.00007585,0.00003663,-0.00010605,0.00009902,
 0.00016157,-0.00023492,-0.00018869,-0.00006399,-0.00109476,0.00067872,
 0.00101202,0.00013621,-0.00004825,0.00012815,0.00000601,0.00000715,0.0
 0000258,-0.00000143,-0.00001495,-0.00001789,-0.00751263,0.01100458,0.0
 3222298,0.00007216,-0.00008671,-0.00008223,0.00000994,0.00003997,0.000
 00616,-0.00001332,0.00002515,0.00000650,0.00010978,0.00010307,0.000040
 94,-0.00039448,0.00003862,0.00008254,0.00024671,0.00079783,-0.00190789
 ,-0.00045800,-0.00010566,-0.00022798,0.00023182,0.00037149,0.00003539,
 -0.00002046,0.00006954,0.00012494,-0.00005101,0.00000327,-0.00003405,0
 .00000068,-0.00001750,-0.00001097,0.00004772,-0.00002541,-0.00006567,-
 0.00005673,-0.00003354,-0.00000123,-0.00000276,0.00001817,0.00001510,0
 .00002180,0.00000663,-0.00000707,-0.00000630,0.00000388,0.00001206,0.0
 0000720,-0.00000636,-0.00001153,-0.00000255,-0.00000664,-0.00000987,-0
 .00001194,-0.00000049,0.00001080,0.00001146,-0.00000052,-0.00001426,0.
 00000299,-0.00001157,-0.00001641,0.00001520,0.00000675,-0.00000017,-0.
 00000567,0.00000446,0.00000999,-0.00001563,-0.00001331,-0.00000205,0.0
 0003420,-0.00000971,0.00002559,0.00017750,0.00005760,-0.00001784,-0.00
 003986,-0.00020301,-0.00006618,0.00005628,0.00012056,0.00001072,-0.011
 43544,-0.01736903,-0.00876549,-0.17420957,-0.13899153,-0.05142781,0.00
 781647,0.00633050,0.00254107,-0.00004562,0.00076605,0.00285820,-0.0017
 8959,-0.00339160,0.00215138,0.00004767,-0.00005440,0.00000289,0.000754
 45,0.00022347,0.00091283,0.00000180,-0.00000044,-0.00000146,0.00000243
 ,-0.00000011,-0.00000088,0.00001349,0.00001067,0.00002080,0.17852676,-
 0.00000838,0.00000198,-0.00006187,0.00000084,-0.00000369,0.00001569,0.
 00000666,-0.00000726,0.00001286,-0.00004352,0.00003269,0.00003596,0.00
 013216,-0.00008798,0.00007124,0.00076327,-0.00190555,0.00110005,-0.000
 01393,-0.00023599,-0.00037213,0.00033542,-0.00004454,0.00005019,0.0000
 1393,0.00005540,0.00001871,0.00001352,-0.00006275,0.00004593,0.0000080
 3,0.00001394,-0.00001239,-0.00000658,-0.00000765,-0.00000052,-0.000010
 62,0.00000118,0.00000709,-0.00000426,0.00000648,0.00001251,0.00000245,
 -0.00000452,0.00000045,0.00000074,0.00000061,-0.00000120,-0.00000385,0
 .00000066,0.00000835,0.00000389,0.00000325,-0.00000729,-0.00000187,-0.
 00000156,0.00000732,0.00000610,0.00000395,-0.00000307,0.00000330,0.000
 00143,0.00000572,0.00000130,-0.00000196,-0.00000954,-0.00000017,0.0000
 0424,0.00000885,-0.00001057,-0.00000510,-0.00000301,0.00001747,0.00004
 105,-0.00005399,-0.00003906,-0.00008655,-0.00001107,-0.00004529,0.0001
 1938,-0.00003426,-0.00001529,-0.00000419,-0.00002374,-0.00174931,0.000
 29235,-0.00225000,-0.13870816,-0.18548906,-0.07202696,-0.01066518,-0.0
 0600777,-0.00065970,-0.00049892,-0.00045997,-0.00304268,-0.00125742,0.
 00344233,-0.00235604,0.00003097,-0.00001495,0.00001026,0.00053209,0.00
 071743,-0.00083729,-0.00000027,0.00000053,-0.00000085,-0.00000055,0.00
 000086,-0.00000086,0.00000018,0.00000281,0.00001846,0.15100662,0.19026
 777,-0.00000792,0.00007563,0.00005522,-0.00001288,-0.00002799,-0.00001
 295,-0.00000046,-0.00001421,-0.00000604,0.00000542,0.00000313,0.000012
 34,-0.00020375,0.00013821,0.00019548,-0.00151227,0.00080328,-0.0013095
 9,0.00095177,0.00011529,-0.00068118,-0.00031714,0.00008872,-0.00001197
 ,0.00005147,-0.00007925,-0.00007622,0.00002586,0.00008088,0.00002489,-
 0.00003026,-0.00004603,-0.00001549,-0.00005618,0.00005251,0.00008107,0
 .00002387,0.00002659,0.00001282,0.00002880,0.00000729,-0.00000822,-0.0
 0001770,-0.00000650,0.00000051,0.00001055,-0.00000487,-0.00000794,-0.0
 0000849,0.00000722,0.00001039,0.00000188,0.00000754,0.00000376,0.00000
 643,-0.00000015,0.00000143,-0.00001088,-0.00000340,0.00000138,-0.00000
 400,0.00001952,0.00002038,-0.00001132,-0.00001373,-0.00000449,0.000007
 00,0.00000287,-0.00000203,0.00000097,0.00000266,0.00000235,-0.00000202
 ,-0.00005617,-0.00001486,-0.00000333,0.00003398,0.00004582,0.00000301,
 -0.00014207,-0.00002374,-0.00006897,-0.00005663,0.00004308,0.00874197,
 0.01005112,0.00833817,-0.05044153,-0.07164633,-0.07517394,-0.01737805,
 -0.01384427,-0.00138772,0.00142778,-0.00395474,-0.00333514,0.00445649,
 -0.00105146,0.00166280,-0.00004427,0.00000790,-0.00001505,0.00075971,-
 0.00080198,-0.00146131,-0.00000140,-0.00000050,0.00000157,-0.00000143,
 -0.00000153,0.00000087,-0.00001683,-0.00000824,-0.00002404,0.05468789,
 0.07963541,0.07285707,0.00009287,0.00002501,-0.00012081,-0.00001398,-0
 .00000497,0.00001030,-0.00001298,-0.00000320,0.00001480,-0.00001884,0.
 00001264,0.00011910,-0.00003753,0.00001116,-0.00004112,0.00035067,-0.0
 0028885,0.00009692,-0.00005248,0.00002467,0.00005148,0.00002160,0.0000
 3341,0.00000215,-0.00001972,-0.00002533,-0.00002876,0.00000795,0.00000
 539,-0.00000893,0.00002015,0.00000814,0.00000450,-0.00001331,0.0000084
 7,0.00001860,-0.00001138,0.00000930,0.00001966,0.00001090,-0.00000111,
 -0.00000261,-0.00001563,-0.00000757,-0.00000304,0.00000399,-0.00000155
 ,-0.00000903,-0.00001263,0.00000623,0.00001356,0.00000710,0.00001043,0
 .00002038,0.00001001,0.00000006,-0.00002206,-0.00000019,0.00000393,0.0
 0001381,-0.00000556,0.00001442,0.00001183,0.00000916,-0.00001013,-0.00
 001027,-0.00000198,0.00000161,0.00000802,-0.00000543,-0.00000358,0.000
 00179,0.00002052,-0.00001429,-0.00002344,-0.00000410,-0.00000066,0.000
 02350,-0.00005640,0.00005332,-0.00005152,-0.00002484,0.00004758,-0.000
 01410,0.00061639,-0.00137295,0.00003002,0.00202637,-0.00096762,-0.0019
 5270,-0.24582006,-0.01844684,0.14288226,-0.01262331,0.00084003,0.01342
 633,-0.00053379,-0.00342532,0.00158950,0.00001141,-0.00003793,0.000011
 17,0.00000888,-0.00002987,0.00000558,-0.00000058,-0.00000050,0.0000011
 3,-0.00000042,-0.00000056,0.00000076,0.00000277,0.00001912,0.00002555,
 -0.00029933,0.00094510,-0.00021542,0.25653100,0.00000965,0.00002081,-0
 .00006303,0.00000362,0.00000028,0.00000910,0.00000321,-0.00001070,0.00
 001746,-0.00008665,0.00015625,0.00011312,-0.00005572,-0.00044795,-0.00
 035051,0.00058842,0.00105343,-0.00021683,0.00003581,-0.00000477,0.0000
 3085,0.00000727,-0.00000469,0.00003849,0.00001560,0.00001218,0.0000058
 0,-0.00000322,-0.00000601,0.00001886,-0.00000985,-0.00000575,-0.000012
 19,0.00000035,-0.00000580,-0.00000280,0.00001080,0.00000263,-0.0000145
 0,-0.00000864,-0.00000981,-0.00000563,0.00000366,0.00000259,0.00000371
 ,0.00000067,0.00000280,0.00000366,0.00000848,-0.00000374,-0.00000710,-
 0.00000423,-0.00000414,-0.00000655,-0.00000286,-0.00000142,0.00000528,
 -0.00000443,-0.00000386,-0.00000349,0.00000241,0.00000110,0.00000300,0
 .00000990,0.00000569,-0.00000530,-0.00000489,-0.00000016,0.00001380,-0
 .00000149,-0.00000427,-0.00000113,-0.00002136,0.00002976,0.00002403,0.
 00001294,-0.00003435,-0.00006141,0.00002108,-0.00003316,0.00017190,0.0
 0005067,0.00005967,-0.00002196,-0.00042892,-0.00147720,-0.00470096,0.0
 1585722,0.00486526,-0.00770193,-0.01909356,-0.04601889,-0.00189707,-0.
 01525166,0.00309497,0.01124353,-0.00521687,0.00176137,-0.00205288,0.00
 010433,-0.00005531,0.00003099,-0.00002334,0.00004782,-0.00001008,-0.00
 000010,0.00000084,-0.00000045,-0.00000057,0.00000005,-0.00000090,0.000
 00488,0.00000184,0.00001415,0.00022963,-0.00060457,0.00148275,0.021247
 03,0.03916298,0.00004770,-0.00003984,-0.00001272,0.00000477,0.00001882
 ,-0.00000996,-0.00000970,0.00001600,-0.00000826,0.00001906,0.00000423,
 0.00005031,-0.00010815,-0.00022771,-0.00047971,0.00114246,0.00023492,0
 .00046364,0.00006511,-0.00000092,-0.00000676,-0.00005089,0.00003433,-0
 .00000119,0.00003211,0.00003284,0.00003152,-0.00002073,0.00001329,0.00
 001107,-0.00002283,-0.00003111,-0.00001500,0.00000894,-0.00000387,-0.0
 0001542,0.00001293,-0.00001783,-0.00001944,-0.00000724,0.00000055,-0.0
 0000647,0.00001155,0.00000797,0.00000201,-0.00000126,0.00000209,0.0000
 0859,0.00001511,-0.00000516,-0.00001693,-0.00000925,-0.00001170,-0.000
 01850,-0.00000875,0.00000051,0.00002010,-0.00000309,-0.00000536,-0.000
 01393,0.00000503,-0.00000860,-0.00000867,-0.00000113,0.00000624,0.0000
 0607,0.00000179,0.00000279,-0.00000046,-0.00000018,-0.00000159,-0.0000
 0273,-0.00002035,0.00000237,0.00004086,0.00004795,-0.00001103,-0.00002
 459,0.00006324,0.00007298,-0.00004280,-0.00003495,0.00002052,-0.000025
 02,0.00101706,-0.00386306,-0.00270307,0.01800594,0.00525873,-0.0067331
 9,0.14235796,-0.00219692,-0.14397749,-0.00586149,-0.00124610,0.0065449
 2,-0.00055302,-0.00340443,0.00324989,-0.00000807,-0.00000543,0.0000068
 8,0.00001360,-0.00001264,0.00003076,0.00000088,-0.00000009,-0.00000013
 ,0.00000045,-0.00000057,-0.00000022,0.00001922,0.00002090,0.00001894,-
 0.00107907,0.00092316,-0.00010706,-0.15443221,0.00241608,0.14498340,0.
 00005015,0.00004948,-0.00003318,-0.00001762,-0.00001497,0.00000217,-0.
 00000875,-0.00001180,0.00000555,0.00001164,0.00004213,0.00008249,0.000
 05988,-0.00008932,-0.00018359,0.00193898,0.00021317,0.00089456,-0.0004
 2054,0.00002135,0.00024206,0.00011401,0.00029299,0.00003945,-0.0000699
 1,-0.00002081,0.00001963,0.00001355,0.00000501,-0.00001136,0.00000564,
 0.00001355,0.00001206,-0.00000409,0.00000910,0.00001268,0.00002962,0.0
 0000812,0.00000899,0.00000190,-0.00000505,-0.00000926,-0.00000490,0.00
 000324,0.00000431,0.00000160,-0.00000015,0.00000093,0.00000106,0.00000
 167,-0.00000064,0.00000071,-0.00000131,-0.00000337,0.00000078,0.000000
 38,0.00000245,-0.00000660,-0.00000242,-0.00000396,-0.00000051,0.000009
 27,0.00000926,0.00000780,-0.00000083,-0.00000546,-0.00000307,0.0000001
 4,0.00000664,-0.00000062,-0.00000283,-0.00000025,0.00000434,-0.0000011
 8,0.00002364,0.00003809,-0.00003473,-0.00006176,-0.00003273,-0.0000011
 5,0.00000880,-0.00004802,0.00001110,-0.00000501,-0.00532530,-0.0003757
 6,0.00342910,-0.00234841,-0.00466430,0.00075956,0.00595957,-0.01232165
 ,-0.01762764,-0.04835905,-0.02762896,-0.01261213,0.00213811,0.01411283
 ,0.01266685,0.00003207,-0.00002147,0.00000762,0.00006436,-0.00003875,0
 .00006192,-0.00000013,-0.00000005,0.00000057,-0.00000051,-0.00000056,0
 .00000014,-0.00000629,0.00000517,0.00001509,0.00064975,-0.00074084,-0.
 00082437,-0.00016726,0.00199074,-0.00066054,0.04570074,-0.00000033,0.0
 0003048,0.00000626,-0.00000008,-0.00000956,0.00000144,0.00000224,-0.00
 000965,0.00000634,0.00000471,-0.00001501,-0.00011139,0.00008141,0.0000
 1985,0.00009711,-0.00069814,0.00151633,-0.00089616,-0.00003921,-0.0000
 1475,-0.00004573,0.00010424,-0.00025386,0.00014066,-0.00000343,-0.0000
 0350,-0.00000021,0.00000514,-0.00001809,-0.00000622,0.00001054,0.00000
 860,0.00000619,0.00000427,0.00000387,-0.00000607,-0.00002799,0.0000069
 5,0.00000413,0.00000556,0.00000279,0.00000527,-0.00000609,-0.00000232,
 0.00000876,0.00000118,-0.00000531,-0.00000047,-0.00001143,0.00000454,0
 .00001292,0.00000878,0.00000694,-0.00000964,0.00000305,-0.00000491,0.0
 0000851,0.00000177,0.00000865,-0.00000221,0.00000349,-0.00000108,0.000
 00508,-0.00001087,-0.00000129,-0.00000244,0.00000341,-0.00000037,-0.00
 000423,-0.00000062,0.00000201,0.00000397,0.00001830,0.00000799,-0.0000
 4687,-0.00002431,0.00004024,0.00003984,0.00006839,-0.00003338,-0.00001
 408,0.00000427,-0.00001611,-0.00000110,-0.00092634,0.00018233,0.001175
 68,-0.00453345,0.00109933,-0.00213450,0.00383667,-0.00522045,-0.011397
 60,-0.02890748,-0.17948890,-0.16378851,0.00046556,-0.00002935,0.003138
 24,-0.00003732,0.00001947,0.00001558,-0.00000293,0.00013014,-0.0000390
 3,-0.00000022,0.00000041,-0.00000072,-0.00000123,0.00000099,0.00000045
 ,-0.00000036,-0.00000427,-0.00000199,0.00009361,0.00002522,-0.00088244
 ,0.00131580,-0.00154576,0.00200464,0.02918946,0.18356075,-0.00003477,-
 0.00008032,0.00004313,0.00000371,0.00002050,-0.00000330,0.00000137,0.0
 0002079,-0.00001635,0.00001169,-0.00007312,0.00001502,-0.00007771,0.00
 008815,-0.00001949,0.00008433,-0.00152943,0.00089750,0.00016675,-0.000
 04394,-0.00007760,-0.00016001,0.00019744,-0.00017578,0.00002904,0.0000
 1374,0.00001502,-0.00001307,0.00000682,-0.00000211,-0.00001190,-0.0000
 0818,-0.00000394,0.00000595,-0.00000576,-0.00001016,0.00001180,-0.0000
 1882,-0.00000154,-0.00000873,0.00000808,0.00000003,0.00001043,0.000006
 03,-0.00000149,-0.00000079,0.00000104,0.00000750,0.00000723,-0.0000025
 5,-0.00000776,-0.00000397,-0.00000605,-0.00001937,-0.00000865,-0.00000
 151,0.00001888,0.00000076,-0.00000416,-0.00001276,0.00000316,-0.000006
 03,-0.00000653,-0.00000235,0.00000332,0.00000442,0.00000077,0.,-0.0000
 0213,0.00000027,0.,0.00000161,-0.00000319,-0.00001852,0.00002945,0.000
 01346,-0.00001111,-0.00000503,-0.00000072,0.00001953,-0.00000242,0.000
 01195,0.00001555,0.00000065,0.00261287,0.00081527,-0.00138006,0.000849
 20,-0.00209076,0.00275978,0.00143753,0.00093455,0.00191746,-0.01418787
 ,-0.16488859,-0.20586799,-0.00323615,-0.00725631,-0.00905891,0.0000017
 5,0.00001745,-0.00002994,0.00002737,-0.00010063,0.00006619,0.00000070,
 -0.00000026,-0.00000028,0.00000033,-0.00000041,-0.00000013,0.00000385,
 -0.00000273,-0.00001198,0.00019433,-0.00021972,0.00030756,-0.00146669,
 0.00149014,-0.00121922,0.01372597,0.17271052,0.21185206\\0.00001443,-0
 .00000271,0.00002486,-0.00000999,0.00000509,-0.00000658,-0.00000456,0.
 00000651,-0.00001025,0.00000825,-0.00000687,-0.00006084,0.00001160,0.0
 0002732,-0.00002508,0.00004204,0.00002306,0.00007146,-0.00002377,-0.00
 005131,-0.00004307,-0.00002032,0.00000866,0.00003191,-0.00000703,-0.00
 002541,0.00001689,0.00000261,0.00000764,0.00000412,0.00000955,-0.00000
 070,-0.00000159,0.00000829,-0.00001396,0.00000326,-0.00000918,0.000006
 80,-0.00001148,0.00000160,-0.00000758,-0.00000571,0.00000416,-0.000003
 26,0.00000636,-0.00000078,0.00000454,-0.00000967,0.00000256,-0.0000126
 6,0.00001546,0.00000217,0.00001142,-0.00000192,-0.00000125,-0.00000203
 ,-0.00000783,-0.00000197,-0.00000053,0.00000539,-0.00000377,0.00000749
 ,-0.00000204,0.00000582,0.00000631,0.00000261,-0.00000002,0.00000449,-
 0.00000451,0.00000151,-0.00000603,-0.00001301,-0.00000848,0.00001726,0
 .00002911,0.00005135,0.00001102,-0.00003043,-0.00005444,-0.00002900,-0
 .00002108,-0.00001116,0.00003351,0.00006067,0.00000831,-0.00002333,-0.
 00001267,-0.00000476,0.00000698,0.00000579,-0.00000837,-0.00000330,-0.
 00000731,0.00001627,-0.00001115,0.00000022,-0.00000871,0.00001833,-0.0
 0000273,-0.00000509,-0.00000242,-0.00000283,-0.00000110,0.00000641,0.0
 0000381,0.00000209,-0.00000111,0.00000187,-0.00000082,0.00000375,-0.00
 000330,-0.00000387,-0.00000467,-0.00000213,-0.00000211,-0.00000225,0.0
 0000112,-0.00000084,-0.00000335,0.00000039,-0.00000020,-0.00000297,0.0
 0000074\\\@


 ...THOSE SCIENCES ARE VAIN AND FULL OF ERRORS WHICH 
 ARE NOT BORN FROM EXPERIMENT, THE MOTHER OF CERTAINTY...

                          -- LEONARDO DA VINCI, 1452-1519
 Job cpu time:  1 days  1 hours 21 minutes 41.9 seconds.
 File lengths (MBytes):  RWF=   1984 Int=      0 D2E=      0 Chk=     31 Scr=      1
 Normal termination of Gaussian 09 at Sun Dec 29 07:27:39 2013.
