 Entering Gaussian System, Link 0=g09
 Initial command:
 /opt/gaussian/g09/l1.exe /panfs/panfs.cluster/home/shuo/Gau-30090.inp -scrdir=/panfs/panfs.cluster/home/shuo/
 Default is to use a total of  12 processors:
                               12 via shared-memory
                                1 via Linda
 Entering Link 1 = /opt/gaussian/g09/l1.exe PID=     30091.
  
 Copyright (c) 1988,1990,1992,1993,1995,1998,2003,2009,2011,
            Gaussian, Inc.  All Rights Reserved.
  
 This is part of the Gaussian(R) 09 program.  It is based on
 the Gaussian(R) 03 system (copyright 2003, Gaussian, Inc.),
 the Gaussian(R) 98 system (copyright 1998, Gaussian, Inc.),
 the Gaussian(R) 94 system (copyright 1995, Gaussian, Inc.),
 the Gaussian 92(TM) system (copyright 1992, Gaussian, Inc.),
 the Gaussian 90(TM) system (copyright 1990, Gaussian, Inc.),
 the Gaussian 88(TM) system (copyright 1988, Gaussian, Inc.),
 the Gaussian 86(TM) system (copyright 1986, Carnegie Mellon
 University), and the Gaussian 82(TM) system (copyright 1983,
 Carnegie Mellon University). Gaussian is a federally registered
 trademark of Gaussian, Inc.
  
 This software contains proprietary and confidential information,
 including trade secrets, belonging to Gaussian, Inc.
  
 This software is provided under written license and may be
 used, copied, transmitted, or stored only in accord with that
 written license.
  
 The following legend is applicable only to US Government
 contracts under FAR:
  
                    RESTRICTED RIGHTS LEGEND
  
 Use, reproduction and disclosure by the US Government is
 subject to restrictions as set forth in subparagraphs (a)
 and (c) of the Commercial Computer Software - Restricted
 Rights clause in FAR 52.227-19.
  
 Gaussian, Inc.
 340 Quinnipiac St., Bldg. 40, Wallingford CT 06492
  
  
 ---------------------------------------------------------------
 Warning -- This program may not be used in any manner that
 competes with the business of Gaussian, Inc. or will provide
 assistance to any competitor of Gaussian, Inc.  The licensee
 of this program is prohibited from giving any competitor of
 Gaussian, Inc. access to this program.  By using this program,
 the user acknowledges that Gaussian, Inc. is engaged in the
 business of creating and licensing software in the field of
 computational chemistry and represents and warrants to the
 licensee that it is not a competitor of Gaussian, Inc. and that
 it will not use this program in any manner prohibited above.
 ---------------------------------------------------------------
  

 Cite this work as:
 Gaussian 09, Revision C.01,
 M. J. Frisch, G. W. Trucks, H. B. Schlegel, G. E. Scuseria, 
 M. A. Robb, J. R. Cheeseman, G. Scalmani, V. Barone, B. Mennucci, 
 G. A. Petersson, H. Nakatsuji, M. Caricato, X. Li, H. P. Hratchian, 
 A. F. Izmaylov, J. Bloino, G. Zheng, J. L. Sonnenberg, M. Hada, 
 M. Ehara, K. Toyota, R. Fukuda, J. Hasegawa, M. Ishida, T. Nakajima, 
 Y. Honda, O. Kitao, H. Nakai, T. Vreven, J. A. Montgomery, Jr., 
 J. E. Peralta, F. Ogliaro, M. Bearpark, J. J. Heyd, E. Brothers, 
 K. N. Kudin, V. N. Staroverov, T. Keith, R. Kobayashi, J. Normand, 
 K. Raghavachari, A. Rendell, J. C. Burant, S. S. Iyengar, J. Tomasi, 
 M. Cossi, N. Rega, J. M. Millam, M. Klene, J. E. Knox, J. B. Cross, 
 V. Bakken, C. Adamo, J. Jaramillo, R. Gomperts, R. E. Stratmann, 
 O. Yazyev, A. J. Austin, R. Cammi, C. Pomelli, J. W. Ochterski, 
 R. L. Martin, K. Morokuma, V. G. Zakrzewski, G. A. Voth, 
 P. Salvador, J. J. Dannenberg, S. Dapprich, A. D. Daniels, 
 O. Farkas, J. B. Foresman, J. V. Ortiz, J. Cioslowski, 
 and D. J. Fox, Gaussian, Inc., Wallingford CT, 2010.
 
 ******************************************
 Gaussian 09:  EM64L-G09RevC.01 23-Sep-2011
                29-Dec-2013 
 ******************************************
 %chk=69_C23H14N4S3Si.chk
 %NProcShared=12
 Will use up to   12 processors via shared memory.
 %Mem=8000MB
 Default route:  MaxDisk=100GB
 --------------------------------------------
 #B3LYP/6-31++G(d,p) opt scf=direct freq test
 --------------------------------------------
 1/14=-1,18=20,19=15,26=3,38=1/1,3;
 2/9=110,12=2,17=6,18=5,40=1/2;
 3/5=1,6=6,7=1111,11=2,16=1,25=1,30=1,71=1,74=-5/1,2,3;
 4//1;
 5/5=2,38=5/2;
 6/7=2,8=2,9=2,10=2,28=1/1;
 7//1,2,3,16;
 1/14=-1,18=20,19=15/3(2);
 2/9=110/2;
 99//99;
 2/9=110/2;
 3/5=1,6=6,7=1111,11=2,16=1,25=1,30=1,71=1,74=-5/1,2,3;
 4/5=5,16=3/1;
 5/5=2,38=5/2;
 7//1,2,3,16;
 1/14=-1,18=20,19=15/3(-5);
 2/9=110/2;
 6/7=2,8=2,9=2,10=2,19=2,28=1/1;
 99/9=1/99;
 ----------------------------------------------------------------------
 Geom opt of No.69 candidate from the CEPDB database with SMILE code of
  C1C=c2ccc3ncc4c5ncc(cc5c5cscc5c4c3c2=C1)-c1nccc2nsnc12, HPC, 20131227
 , Shuo Dai, Gaussian09
 ----------------------------------------------------------------------
 Charge =  0 Multiplicity = 1
 Symbolic Z-Matrix:
 C                     1.55583  -0.7504   -0.09716 
 C                     2.56089  -0.24531   0.83356 
 C                     3.52291  -1.06681   0.46268 
 C                     4.51129  -1.25294   1.42439 
 C                     4.92286  -2.48107   1.20667 
 C                     6.13525  -2.23      0.51433 
 N                     7.0888   -2.65762   1.4417 
 C                     8.40262  -2.48615   1.31446 
 C                     8.92129  -2.08962   0.15094 
 C                     10.52361  -2.24615   0.34249 
 N                     11.3206  -2.56225   1.48861 
 C                     12.7339  -2.58498   1.51272 
 C                     13.54035  -2.33932   0.42626 
 C                     12.80903  -2.09458  -0.72873 
 C                     11.32142  -2.03689  -0.76446 
 C                     10.47679  -1.77097  -1.87113 
 C                     11.12039  -1.60174  -3.08539 
 S                     10.00834  -1.38933  -4.3454 
 C                     8.64588  -1.49646  -3.31107 
 C                     8.9064   -1.59383  -1.97295 
 C                     7.77315  -1.64541  -0.98497 
 C                     6.02646  -1.47139  -0.694 
 C                     4.21607  -0.96114  -0.93223 
 C                     2.81374  -0.34047  -1.28193 
 C                     15.00472  -2.36943   0.45713 
 N                     15.72503  -1.19346   0.43651 
 C                     17.10204  -1.19699   0.44299 
 C                     17.94162  -2.30777   0.45184 
 C                     17.24944  -3.53275   0.45172 
 N                     17.81716  -4.74966   0.44859 
 S                     16.57458  -5.85146   0.44321 
 N                     15.26405  -4.83581   0.44666 
 C                     15.746   -3.58083   0.45488 
 H                     0.79456  -0.18358   0.56899 
 H                     0.71957  -0.77625  -0.80851 
 H                     2.87937   0.82316   0.74368 
 H                     5.15     -0.34504   1.24708 
 H                     4.40136  -3.35942   0.80833 
 H                     8.98004  -2.77294   2.20166 
 H                     13.21703  -2.80274   2.47555 
 H                     13.40046  -1.92458  -1.63055 
 H                     12.18199  -1.6008   -3.33483 
 H                     7.68188  -1.47177  -3.77458 
 H                     2.36337   0.73354  -1.29913 
 H                     17.54914  -0.20014   0.43954 
 H                     19.01999  -2.24198   0.45536 
 

 GradGradGradGradGradGradGradGradGradGradGradGradGradGradGradGradGradGrad
 Berny optimization.
 Initialization pass.
                           ----------------------------
                           !    Initial Parameters    !
                           ! (Angstroms and Degrees)  !
 --------------------------                            --------------------------
 ! Name  Definition              Value          Derivative Info.                !
 --------------------------------------------------------------------------------
 ! R1    R(1,2)                  1.46           estimate D2E/DX2                !
 ! R2    R(1,24)                 1.776          estimate D2E/DX2                !
 ! R3    R(1,34)                 1.1596         estimate D2E/DX2                !
 ! R4    R(1,35)                 1.0982         estimate D2E/DX2                !
 ! R5    R(2,3)                  1.3183         estimate D2E/DX2                !
 ! R6    R(2,36)                 1.1185         estimate D2E/DX2                !
 ! R7    R(3,4)                  1.3916         estimate D2E/DX2                !
 ! R8    R(3,23)                 1.5612         estimate D2E/DX2                !
 ! R9    R(4,5)                  1.3134         estimate D2E/DX2                !
 ! R10   R(4,37)                 1.1241         estimate D2E/DX2                !
 ! R11   R(5,6)                  1.4185         estimate D2E/DX2                !
 ! R12   R(5,38)                 1.0964         estimate D2E/DX2                !
 ! R13   R(6,7)                  1.3972         estimate D2E/DX2                !
 ! R14   R(6,22)                 1.4309         estimate D2E/DX2                !
 ! R15   R(7,8)                  1.3311         estimate D2E/DX2                !
 ! R16   R(8,9)                  1.3342         estimate D2E/DX2                !
 ! R17   R(8,39)                 1.0967         estimate D2E/DX2                !
 ! R18   R(9,10)                 1.6213         estimate D2E/DX2                !
 ! R19   R(9,21)                 1.6751         estimate D2E/DX2                !
 ! R20   R(10,11)                1.4313         estimate D2E/DX2                !
 ! R21   R(10,15)                1.3804         estimate D2E/DX2                !
 ! R22   R(11,12)                1.4137         estimate D2E/DX2                !
 ! R23   R(12,13)                1.3752         estimate D2E/DX2                !
 ! R24   R(12,40)                1.099          estimate D2E/DX2                !
 ! R25   R(13,14)                1.3888         estimate D2E/DX2                !
 ! R26   R(13,25)                1.465          estimate D2E/DX2                !
 ! R27   R(14,15)                1.4892         estimate D2E/DX2                !
 ! R28   R(14,41)                1.0918         estimate D2E/DX2                !
 ! R29   R(15,16)                1.4173         estimate D2E/DX2                !
 ! R30   R(16,17)                1.3847         estimate D2E/DX2                !
 ! R31   R(16,20)                1.5836         estimate D2E/DX2                !
 ! R32   R(17,18)                1.6939         estimate D2E/DX2                !
 ! R33   R(17,42)                1.0905         estimate D2E/DX2                !
 ! R34   R(18,19)                1.7139         estimate D2E/DX2                !
 ! R35   R(19,20)                1.3667         estimate D2E/DX2                !
 ! R36   R(19,43)                1.0699         estimate D2E/DX2                !
 ! R37   R(20,21)                1.5043         estimate D2E/DX2                !
 ! R38   R(21,22)                1.7793         estimate D2E/DX2                !
 ! R39   R(22,23)                1.8959         estimate D2E/DX2                !
 ! R40   R(23,24)                1.5729         estimate D2E/DX2                !
 ! R41   R(24,44)                1.1647         estimate D2E/DX2                !
 ! R42   R(25,26)                1.3792         estimate D2E/DX2                !
 ! R43   R(25,33)                1.4202         estimate D2E/DX2                !
 ! R44   R(26,27)                1.377          estimate D2E/DX2                !
 ! R45   R(27,28)                1.3924         estimate D2E/DX2                !
 ! R46   R(27,45)                1.0925         estimate D2E/DX2                !
 ! R47   R(28,29)                1.407          estimate D2E/DX2                !
 ! R48   R(28,46)                1.0804         estimate D2E/DX2                !
 ! R49   R(29,30)                1.3428         estimate D2E/DX2                !
 ! R50   R(29,33)                1.5042         estimate D2E/DX2                !
 ! R51   R(30,31)                1.6607         estimate D2E/DX2                !
 ! R52   R(31,32)                1.658          estimate D2E/DX2                !
 ! R53   R(32,33)                1.3444         estimate D2E/DX2                !
 ! A1    A(2,1,24)              81.8263         estimate D2E/DX2                !
 ! A2    A(2,1,34)              85.2165         estimate D2E/DX2                !
 ! A3    A(2,1,35)             160.9615         estimate D2E/DX2                !
 ! A4    A(24,1,34)            137.3432         estimate D2E/DX2                !
 ! A5    A(24,1,35)             96.4694         estimate D2E/DX2                !
 ! A6    A(34,1,35)             83.3212         estimate D2E/DX2                !
 ! A7    A(1,2,3)               96.1673         estimate D2E/DX2                !
 ! A8    A(1,2,36)             118.3761         estimate D2E/DX2                !
 ! A9    A(3,2,36)             111.3998         estimate D2E/DX2                !
 ! A10   A(2,3,4)              114.0314         estimate D2E/DX2                !
 ! A11   A(2,3,23)             122.2208         estimate D2E/DX2                !
 ! A12   A(4,3,23)             108.1308         estimate D2E/DX2                !
 ! A13   A(3,4,5)              103.4783         estimate D2E/DX2                !
 ! A14   A(3,4,37)             100.7501         estimate D2E/DX2                !
 ! A15   A(5,4,37)             123.436          estimate D2E/DX2                !
 ! A16   A(4,5,6)              100.5576         estimate D2E/DX2                !
 ! A17   A(4,5,38)             131.3198         estimate D2E/DX2                !
 ! A18   A(6,5,38)             111.7765         estimate D2E/DX2                !
 ! A19   A(5,6,7)              101.8399         estimate D2E/DX2                !
 ! A20   A(5,6,22)             116.1685         estimate D2E/DX2                !
 ! A21   A(7,6,22)             140.7746         estimate D2E/DX2                !
 ! A22   A(6,7,8)              124.8035         estimate D2E/DX2                !
 ! A23   A(7,8,9)              120.3562         estimate D2E/DX2                !
 ! A24   A(7,8,39)             114.1209         estimate D2E/DX2                !
 ! A25   A(9,8,39)             125.3468         estimate D2E/DX2                !
 ! A26   A(8,9,10)             104.6241         estimate D2E/DX2                !
 ! A27   A(8,9,21)             113.8122         estimate D2E/DX2                !
 ! A28   A(10,9,21)            141.5477         estimate D2E/DX2                !
 ! A29   A(9,10,11)            131.7763         estimate D2E/DX2                !
 ! A30   A(9,10,15)            117.5031         estimate D2E/DX2                !
 ! A31   A(11,10,15)           110.7179         estimate D2E/DX2                !
 ! A32   A(10,11,12)           125.0207         estimate D2E/DX2                !
 ! A33   A(11,12,13)           124.7451         estimate D2E/DX2                !
 ! A34   A(11,12,40)           117.2324         estimate D2E/DX2                !
 ! A35   A(13,12,40)           118.0175         estimate D2E/DX2                !
 ! A36   A(12,13,14)           112.3164         estimate D2E/DX2                !
 ! A37   A(12,13,25)           124.4621         estimate D2E/DX2                !
 ! A38   A(14,13,25)           123.1962         estimate D2E/DX2                !
 ! A39   A(13,14,15)           123.5609         estimate D2E/DX2                !
 ! A40   A(13,14,41)           115.4128         estimate D2E/DX2                !
 ! A41   A(15,14,41)           121.0176         estimate D2E/DX2                !
 ! A42   A(10,15,14)           123.5197         estimate D2E/DX2                !
 ! A43   A(10,15,16)           108.0682         estimate D2E/DX2                !
 ! A44   A(14,15,16)           128.4121         estimate D2E/DX2                !
 ! A45   A(15,16,17)           115.5095         estimate D2E/DX2                !
 ! A46   A(15,16,20)           131.4631         estimate D2E/DX2                !
 ! A47   A(17,16,20)           113.0085         estimate D2E/DX2                !
 ! A48   A(16,17,18)           111.2528         estimate D2E/DX2                !
 ! A49   A(16,17,42)           130.7815         estimate D2E/DX2                !
 ! A50   A(18,17,42)           117.9587         estimate D2E/DX2                !
 ! A51   A(17,18,19)            93.7345         estimate D2E/DX2                !
 ! A52   A(18,19,20)           116.3452         estimate D2E/DX2                !
 ! A53   A(18,19,43)           116.9585         estimate D2E/DX2                !
 ! A54   A(20,19,43)           126.6939         estimate D2E/DX2                !
 ! A55   A(16,20,19)           105.0667         estimate D2E/DX2                !
 ! A56   A(16,20,21)           134.5045         estimate D2E/DX2                !
 ! A57   A(19,20,21)           120.1231         estimate D2E/DX2                !
 ! A58   A(9,21,20)             86.4515         estimate D2E/DX2                !
 ! A59   A(9,21,22)            126.009          estimate D2E/DX2                !
 ! A60   A(20,21,22)           147.5188         estimate D2E/DX2                !
 ! A61   A(6,22,21)             90.6651         estimate D2E/DX2                !
 ! A62   A(6,22,23)            108.7472         estimate D2E/DX2                !
 ! A63   A(21,22,23)           160.5877         estimate D2E/DX2                !
 ! A64   A(3,23,22)            107.0657         estimate D2E/DX2                !
 ! A65   A(3,23,24)             80.184          estimate D2E/DX2                !
 ! A66   A(1,24,23)            113.0842         estimate D2E/DX2                !
 ! A67   A(1,24,44)             87.066          estimate D2E/DX2                !
 ! A68   A(23,24,44)           135.3879         estimate D2E/DX2                !
 ! A69   A(13,25,26)           120.2785         estimate D2E/DX2                !
 ! A70   A(13,25,33)           122.6308         estimate D2E/DX2                !
 ! A71   A(26,25,33)           117.0434         estimate D2E/DX2                !
 ! A72   A(25,26,27)           121.3326         estimate D2E/DX2                !
 ! A73   A(26,27,28)           127.2314         estimate D2E/DX2                !
 ! A74   A(26,27,45)           114.0086         estimate D2E/DX2                !
 ! A75   A(28,27,45)           118.76           estimate D2E/DX2                !
 ! A76   A(27,28,29)           113.447          estimate D2E/DX2                !
 ! A77   A(27,28,46)           123.5929         estimate D2E/DX2                !
 ! A78   A(29,28,46)           122.9598         estimate D2E/DX2                !
 ! A79   A(28,29,30)           125.5208         estimate D2E/DX2                !
 ! A80   A(28,29,33)           121.3004         estimate D2E/DX2                !
 ! A81   A(30,29,33)           113.1788         estimate D2E/DX2                !
 ! A82   A(29,30,31)           106.5536         estimate D2E/DX2                !
 ! A83   A(30,31,32)           100.6606         estimate D2E/DX2                !
 ! A84   A(31,32,33)           106.7675         estimate D2E/DX2                !
 ! A85   A(25,33,29)           119.6317         estimate D2E/DX2                !
 ! A86   A(25,33,32)           127.5282         estimate D2E/DX2                !
 ! A87   A(29,33,32)           112.8387         estimate D2E/DX2                !
 ! A88   L(22,23,24,3,-1)      187.2497         estimate D2E/DX2                !
 ! A89   L(22,23,24,3,-2)      173.2366         estimate D2E/DX2                !
 ! D1    D(24,1,2,3)           -56.3408         estimate D2E/DX2                !
 ! D2    D(24,1,2,36)           62.05           estimate D2E/DX2                !
 ! D3    D(34,1,2,3)           164.4071         estimate D2E/DX2                !
 ! D4    D(34,1,2,36)          -77.2021         estimate D2E/DX2                !
 ! D5    D(35,1,2,3)          -142.4828         estimate D2E/DX2                !
 ! D6    D(35,1,2,36)          -24.092          estimate D2E/DX2                !
 ! D7    D(2,1,24,23)           51.7909         estimate D2E/DX2                !
 ! D8    D(2,1,24,44)          -87.061          estimate D2E/DX2                !
 ! D9    D(34,1,24,23)         125.5177         estimate D2E/DX2                !
 ! D10   D(34,1,24,44)         -13.3343         estimate D2E/DX2                !
 ! D11   D(35,1,24,23)        -147.3293         estimate D2E/DX2                !
 ! D12   D(35,1,24,44)          73.8188         estimate D2E/DX2                !
 ! D13   D(1,2,3,4)           -157.598          estimate D2E/DX2                !
 ! D14   D(1,2,3,23)            69.264          estimate D2E/DX2                !
 ! D15   D(36,2,3,4)            78.6383         estimate D2E/DX2                !
 ! D16   D(36,2,3,23)          -54.4997         estimate D2E/DX2                !
 ! D17   D(2,3,4,5)            149.2216         estimate D2E/DX2                !
 ! D18   D(2,3,4,37)           -82.2987         estimate D2E/DX2                !
 ! D19   D(23,3,4,5)           -71.2888         estimate D2E/DX2                !
 ! D20   D(23,3,4,37)           57.1909         estimate D2E/DX2                !
 ! D21   D(2,3,23,22)          146.2819         estimate D2E/DX2                !
 ! D22   D(2,3,23,24)          -26.9547         estimate D2E/DX2                !
 ! D23   D(4,3,23,22)           10.8116         estimate D2E/DX2                !
 ! D24   D(4,3,23,24)         -162.425          estimate D2E/DX2                !
 ! D25   D(3,4,5,6)            102.2822         estimate D2E/DX2                !
 ! D26   D(3,4,5,38)           -29.5017         estimate D2E/DX2                !
 ! D27   D(37,4,5,6)           -10.5542         estimate D2E/DX2                !
 ! D28   D(37,4,5,38)         -142.3382         estimate D2E/DX2                !
 ! D29   D(4,5,6,7)            111.4866         estimate D2E/DX2                !
 ! D30   D(4,5,6,22)           -58.547          estimate D2E/DX2                !
 ! D31   D(38,5,6,7)          -105.6024         estimate D2E/DX2                !
 ! D32   D(38,5,6,22)           84.364          estimate D2E/DX2                !
 ! D33   D(5,6,7,8)           -172.0665         estimate D2E/DX2                !
 ! D34   D(22,6,7,8)            -6.2858         estimate D2E/DX2                !
 ! D35   D(5,6,22,21)         -177.2392         estimate D2E/DX2                !
 ! D36   D(5,6,22,23)            2.7812         estimate D2E/DX2                !
 ! D37   D(7,6,22,21)           18.298          estimate D2E/DX2                !
 ! D38   D(7,6,22,23)         -161.6816         estimate D2E/DX2                !
 ! D39   D(6,7,8,9)            -12.0474         estimate D2E/DX2                !
 ! D40   D(6,7,8,39)           172.5238         estimate D2E/DX2                !
 ! D41   D(7,8,9,10)          -170.7837         estimate D2E/DX2                !
 ! D42   D(7,8,9,21)             8.0809         estimate D2E/DX2                !
 ! D43   D(39,8,9,10)            4.1001         estimate D2E/DX2                !
 ! D44   D(39,8,9,21)         -177.0353         estimate D2E/DX2                !
 ! D45   D(8,9,10,11)           -7.333          estimate D2E/DX2                !
 ! D46   D(8,9,10,15)          173.3323         estimate D2E/DX2                !
 ! D47   D(21,9,10,11)         174.3374         estimate D2E/DX2                !
 ! D48   D(21,9,10,15)          -4.9973         estimate D2E/DX2                !
 ! D49   D(8,9,21,20)         -170.5722         estimate D2E/DX2                !
 ! D50   D(8,9,21,22)            8.1755         estimate D2E/DX2                !
 ! D51   D(10,9,21,20)           7.6611         estimate D2E/DX2                !
 ! D52   D(10,9,21,22)        -173.5912         estimate D2E/DX2                !
 ! D53   D(9,10,11,12)        -176.0245         estimate D2E/DX2                !
 ! D54   D(15,10,11,12)          3.3446         estimate D2E/DX2                !
 ! D55   D(9,10,15,14)         177.5948         estimate D2E/DX2                !
 ! D56   D(9,10,15,16)          -2.3454         estimate D2E/DX2                !
 ! D57   D(11,10,15,14)         -1.8748         estimate D2E/DX2                !
 ! D58   D(11,10,15,16)        178.185          estimate D2E/DX2                !
 ! D59   D(10,11,12,13)         -1.7635         estimate D2E/DX2                !
 ! D60   D(10,11,12,40)        177.4143         estimate D2E/DX2                !
 ! D61   D(11,12,13,14)         -1.5453         estimate D2E/DX2                !
 ! D62   D(11,12,13,25)       -179.7611         estimate D2E/DX2                !
 ! D63   D(40,12,13,14)        179.2828         estimate D2E/DX2                !
 ! D64   D(40,12,13,25)          1.0671         estimate D2E/DX2                !
 ! D65   D(12,13,14,15)          2.9448         estimate D2E/DX2                !
 ! D66   D(12,13,14,41)       -178.1206         estimate D2E/DX2                !
 ! D67   D(25,13,14,15)       -178.8132         estimate D2E/DX2                !
 ! D68   D(25,13,14,41)          0.1214         estimate D2E/DX2                !
 ! D69   D(12,13,25,26)       -105.0675         estimate D2E/DX2                !
 ! D70   D(12,13,25,33)         77.511          estimate D2E/DX2                !
 ! D71   D(14,13,25,26)         76.9051         estimate D2E/DX2                !
 ! D72   D(14,13,25,33)       -100.5164         estimate D2E/DX2                !
 ! D73   D(13,14,15,10)         -1.2696         estimate D2E/DX2                !
 ! D74   D(13,14,15,16)        178.6578         estimate D2E/DX2                !
 ! D75   D(41,14,15,10)        179.8532         estimate D2E/DX2                !
 ! D76   D(41,14,15,16)         -0.2194         estimate D2E/DX2                !
 ! D77   D(10,15,16,17)       -176.9376         estimate D2E/DX2                !
 ! D78   D(10,15,16,20)          4.7771         estimate D2E/DX2                !
 ! D79   D(14,15,16,17)          3.1261         estimate D2E/DX2                !
 ! D80   D(14,15,16,20)       -175.1592         estimate D2E/DX2                !
 ! D81   D(15,16,17,18)        176.3622         estimate D2E/DX2                !
 ! D82   D(15,16,17,42)         -2.6357         estimate D2E/DX2                !
 ! D83   D(20,16,17,18)         -5.0338         estimate D2E/DX2                !
 ! D84   D(20,16,17,42)        175.9683         estimate D2E/DX2                !
 ! D85   D(15,16,20,19)       -173.7474         estimate D2E/DX2                !
 ! D86   D(15,16,20,21)         -0.3784         estimate D2E/DX2                !
 ! D87   D(17,16,20,19)          7.9338         estimate D2E/DX2                !
 ! D88   D(17,16,20,21)       -178.6972         estimate D2E/DX2                !
 ! D89   D(16,17,18,19)          0.6686         estimate D2E/DX2                !
 ! D90   D(42,17,18,19)        179.8096         estimate D2E/DX2                !
 ! D91   D(17,18,19,20)          4.6812         estimate D2E/DX2                !
 ! D92   D(17,18,19,43)       -175.8438         estimate D2E/DX2                !
 ! D93   D(18,19,20,16)         -7.5414         estimate D2E/DX2                !
 ! D94   D(18,19,20,21)        177.9223         estimate D2E/DX2                !
 ! D95   D(43,19,20,16)        173.0422         estimate D2E/DX2                !
 ! D96   D(43,19,20,21)         -1.4941         estimate D2E/DX2                !
 ! D97   D(16,20,21,9)          -4.5535         estimate D2E/DX2                !
 ! D98   D(16,20,21,22)        177.3332         estimate D2E/DX2                !
 ! D99   D(19,20,21,9)         168.0396         estimate D2E/DX2                !
 ! D100  D(19,20,21,22)        -10.0737         estimate D2E/DX2                !
 ! D101  D(9,21,22,6)          -17.3191         estimate D2E/DX2                !
 ! D102  D(9,21,22,23)         162.6228         estimate D2E/DX2                !
 ! D103  D(20,21,22,6)         160.3528         estimate D2E/DX2                !
 ! D104  D(20,21,22,23)        -19.7053         estimate D2E/DX2                !
 ! D105  D(6,22,23,3)           19.9438         estimate D2E/DX2                !
 ! D106  D(21,22,23,3)        -159.9949         estimate D2E/DX2                !
 ! D107  D(6,22,24,1)            0.1498         estimate D2E/DX2                !
 ! D108  D(6,22,24,44)         113.3592         estimate D2E/DX2                !
 ! D109  D(21,22,24,1)        -175.0707         estimate D2E/DX2                !
 ! D110  D(21,22,24,44)        -61.8614         estimate D2E/DX2                !
 ! D111  D(3,23,24,1)          -18.5637         estimate D2E/DX2                !
 ! D112  D(3,23,24,44)          92.0947         estimate D2E/DX2                !
 ! D113  D(13,25,26,27)       -178.9386         estimate D2E/DX2                !
 ! D114  D(33,25,26,27)         -1.3765         estimate D2E/DX2                !
 ! D115  D(13,25,33,29)        178.4213         estimate D2E/DX2                !
 ! D116  D(13,25,33,32)         -1.1198         estimate D2E/DX2                !
 ! D117  D(26,25,33,29)          0.9213         estimate D2E/DX2                !
 ! D118  D(26,25,33,32)       -178.6198         estimate D2E/DX2                !
 ! D119  D(25,26,27,28)          0.9146         estimate D2E/DX2                !
 ! D120  D(25,26,27,45)       -179.1511         estimate D2E/DX2                !
 ! D121  D(26,27,28,29)          0.1014         estimate D2E/DX2                !
 ! D122  D(26,27,28,46)        179.9203         estimate D2E/DX2                !
 ! D123  D(45,27,28,29)       -179.8302         estimate D2E/DX2                !
 ! D124  D(45,27,28,46)         -0.0113         estimate D2E/DX2                !
 ! D125  D(27,28,29,30)        179.4403         estimate D2E/DX2                !
 ! D126  D(27,28,29,33)         -0.5429         estimate D2E/DX2                !
 ! D127  D(46,28,29,30)         -0.3799         estimate D2E/DX2                !
 ! D128  D(46,28,29,33)        179.6368         estimate D2E/DX2                !
 ! D129  D(28,29,30,31)       -179.7567         estimate D2E/DX2                !
 ! D130  D(33,29,30,31)          0.2277         estimate D2E/DX2                !
 ! D131  D(28,29,33,25)          0.0429         estimate D2E/DX2                !
 ! D132  D(28,29,33,32)        179.6481         estimate D2E/DX2                !
 ! D133  D(30,29,33,25)       -179.9422         estimate D2E/DX2                !
 ! D134  D(30,29,33,32)         -0.3371         estimate D2E/DX2                !
 ! D135  D(29,30,31,32)         -0.0721         estimate D2E/DX2                !
 ! D136  D(30,31,32,33)         -0.1187         estimate D2E/DX2                !
 ! D137  D(31,32,33,25)        179.8264         estimate D2E/DX2                !
 ! D138  D(31,32,33,29)          0.2592         estimate D2E/DX2                !
 --------------------------------------------------------------------------------
 Trust Radius=3.00D-01 FncErr=1.00D-07 GrdErr=1.00D-06
 Number of steps in this run=    276 maximum allowed number of steps=    276.
 GradGradGradGradGradGradGradGradGradGradGradGradGradGradGradGradGradGrad

                          Input orientation:                          
 ---------------------------------------------------------------------
 Center     Atomic      Atomic             Coordinates (Angstroms)
 Number     Number       Type             X           Y           Z
 ---------------------------------------------------------------------
      1          6           0        1.555830   -0.750400   -0.097160
      2          6           0        2.560890   -0.245310    0.833560
      3          6           0        3.522910   -1.066810    0.462680
      4          6           0        4.511290   -1.252940    1.424390
      5          6           0        4.922860   -2.481070    1.206670
      6          6           0        6.135250   -2.230000    0.514330
      7          7           0        7.088800   -2.657620    1.441700
      8          6           0        8.402620   -2.486150    1.314460
      9          6           0        8.921290   -2.089620    0.150940
     10          6           0       10.523610   -2.246150    0.342490
     11          7           0       11.320600   -2.562250    1.488610
     12          6           0       12.733900   -2.584980    1.512720
     13          6           0       13.540350   -2.339320    0.426260
     14          6           0       12.809030   -2.094580   -0.728730
     15          6           0       11.321420   -2.036890   -0.764460
     16          6           0       10.476790   -1.770970   -1.871130
     17          6           0       11.120390   -1.601740   -3.085390
     18         16           0       10.008340   -1.389330   -4.345400
     19          6           0        8.645880   -1.496460   -3.311070
     20          6           0        8.906400   -1.593830   -1.972950
     21          6           0        7.773150   -1.645410   -0.984970
     22          6           0        6.026460   -1.471390   -0.694000
     23          6           0        4.216070   -0.961140   -0.932230
     24          6           0        2.813740   -0.340470   -1.281930
     25          6           0       15.004720   -2.369430    0.457130
     26          7           0       15.725030   -1.193460    0.436510
     27          6           0       17.102040   -1.196990    0.442990
     28          6           0       17.941620   -2.307770    0.451840
     29          6           0       17.249440   -3.532750    0.451720
     30          7           0       17.817160   -4.749660    0.448590
     31         16           0       16.574580   -5.851460    0.443210
     32          7           0       15.264050   -4.835810    0.446660
     33          6           0       15.746000   -3.580830    0.454880
     34          1           0        0.794560   -0.183580    0.568990
     35          1           0        0.719570   -0.776250   -0.808510
     36          1           0        2.879370    0.823160    0.743680
     37          1           0        5.150000   -0.345040    1.247080
     38          1           0        4.401360   -3.359420    0.808330
     39          1           0        8.980040   -2.772940    2.201660
     40          1           0       13.217030   -2.802740    2.475550
     41          1           0       13.400460   -1.924580   -1.630550
     42          1           0       12.181990   -1.600800   -3.334830
     43          1           0        7.681880   -1.471770   -3.774580
     44          1           0        2.363370    0.733540   -1.299130
     45          1           0       17.549140   -0.200140    0.439540
     46          1           0       19.019990   -2.241980    0.455360
 ---------------------------------------------------------------------
                    Distance matrix (angstroms):
                    1          2          3          4          5
     1  C    0.000000
     2  C    1.459966   0.000000
     3  C    2.069526   1.318293   0.000000
     4  C    3.361905   2.273424   1.391555   0.000000
     5  C    4.004008   3.273643   2.124503   1.313429   0.000000
     6  C    4.851208   4.100848   2.860070   2.102404   1.418542
     7  N    6.051391   5.166337   4.025510   2.935470   2.185796
     8  C    7.203057   6.275224   5.152827   4.083545   3.481433
     9  C    7.490331   6.657487   5.503256   4.665813   4.153943
    10  C    9.102288   8.224927   7.100358   6.189101   5.671895
    11  N   10.057246   9.084592   8.005801   6.934343   6.404464
    12  C   11.441444  10.460662   9.394134   8.330273   7.817724
    13  C   12.100717  11.184780  10.098005   9.148793   8.653916
    14  C   11.350780  10.530191   9.418481   8.613755   8.129380
    15  C    9.872542   9.083519   7.953847   7.196076   6.710009
    16  C    9.152708   8.503203   7.368783   6.834910   6.389306
    17  C   10.056595   9.511210   8.402181   8.008744   7.589755
    18  S    9.481598   9.143026   8.079756   7.970360   7.607857
    19  C    7.820143   7.467961   6.377351   6.291162   5.936355
    20  C    7.632879   7.068274   5.932285   5.565529   5.173564
    21  C    6.343841   5.695172   4.527141   4.074160   3.691310
    22  C    4.567557   3.980815   2.787356   2.613625   2.418663
    23  C    2.796181   2.523895   1.561221   2.392898   2.717468
    24  C    1.775967   2.132671   2.018454   3.322416   3.901754
    25  C   13.557328  12.629430  11.555467  10.596896  10.110300
    26  N   14.186167  13.204212  12.202805  11.257327  10.905868
    27  C   15.562000  14.577492  13.579768  12.629064  12.270472
    28  C   16.468786  15.523089  14.472018  13.506750  13.041776
    29  C   15.947794  15.056778  13.946276  12.977060  12.394376
    30  N   16.754784  15.911981  14.761069  13.792223  13.114273
    31  S   15.870591  15.098503  13.901056  12.947280  12.153394
    32  N   14.314385  13.512685  12.331261  11.376061  10.633091
    33  C   14.480228  13.605742  12.478954  11.514240  10.904816
    34  H    1.159557   1.787101   2.869720   3.960975   4.767385
    35  H    1.098188   2.523638   3.091774   4.426084   4.963367
    36  H    2.221455   1.118542   2.016207   2.727035   3.912563
    37  H    3.858673   2.623821   1.945163   1.124132   2.148453
    38  H    3.965342   3.617409   2.479357   2.197470   1.096420
    39  H    8.030824   7.033214   5.976219   4.783751   4.187589
    40  H   12.116704  11.081060  10.051918   8.904871   8.396832
    41  H   12.001052  11.242245  10.133281   9.423434   8.957075
    42  H   11.140959  10.572530   9.470264   9.033871   8.607849
    43  H    7.181384   6.997406   5.951084   6.093424   5.783055
    44  H    2.073386   2.354895   2.773043   3.997152   4.812872
    45  H   16.011771  14.993496  14.052999  13.117311  12.853563
    46  H   17.536447  16.584080  15.541575  14.574622  14.119161
                    6          7          8          9         10
     6  C    0.000000
     7  N    1.397187   0.000000
     8  C    2.418013   1.331058   0.000000
     9  C    2.813144   2.312294   1.334179   0.000000
    10  C    4.391753   3.629806   2.345405   1.621303   0.000000
    11  N    5.286536   4.233134   2.924163   2.787369   1.431329
    12  C    6.683186   5.646014   4.336941   4.078703   2.523812
    13  C    7.406431   6.538725   5.216007   4.633990   3.019341
    14  C    6.789910   6.144006   4.872823   3.986021   2.528563
    15  C    5.344993   4.813265   3.611528   2.569312   1.380445
    16  C    4.974947   4.820733   3.868029   2.570970   2.264531
    17  C    6.180964   6.153304   5.246631   3.943082   3.538612
    18  S    6.270927   6.604756   5.984594   4.678585   4.793324
    19  C    4.634116   5.134356   4.736474   3.523238   4.175692
    20  C    3.777638   4.011877   3.443413   2.181041   2.898647
    21  C    2.296163   2.716916   2.527935   1.675064   3.112566
    22  C    1.430869   2.664005   3.272581   3.078339   4.679628
    23  C    2.717682   4.094651   4.990037   4.958409   6.562105
    24  C    4.222476   5.573462   6.525394   6.512665   8.106322
    25  C    8.870750   7.982119   6.658556   6.097554   4.484271
    26  N    9.645950   8.816952   7.487291   6.868445   5.307708
    27  C   11.015565  10.168374   8.837494   8.234486   6.662325
    28  C   11.806792  10.903482   9.579585   9.027983   7.419072
    29  C   11.190456  10.246195   8.950191   8.457610   6.848654
    30  N   11.950733  10.975455   9.721459   9.289828   7.711984
    31  S   11.049871  10.058709   8.880615   8.532861   7.044334
    32  N    9.493672   8.518763   7.304328   6.918064   5.402681
    33  C    9.705400   8.762034   7.474117   6.992335   5.391415
    34  H    5.719597   6.819087   7.983742   8.357721   9.947860
    35  H    5.761327   7.012139   8.152301   8.361441   9.980211
    36  H    4.469356   5.506574   6.464025   6.733530   8.247183
    37  H    2.249603   3.024045   3.894667   4.297407   5.771325
    38  H    2.090072   2.848862   4.126603   4.740709   6.240058
    39  H    3.351820   2.041477   1.096716   2.162367   2.473182
    40  H    7.370619   6.216519   4.962550   4.936166   3.480553
    41  H    7.581363   7.057841   5.828109   4.823267   3.503221
    42  H    7.195484   7.062060   6.056681   4.798094   4.085264
    43  H    4.621875   5.382152   5.238966   4.162641   5.062150
    44  H    5.128185   6.429759   7.325967   7.285551   8.840983
    45  H   11.593223  10.791767   9.468377   8.837037   7.318036
    46  H   12.884881  11.979103  10.654868  10.104436   8.497131
                   11         12         13         14         15
    11  N    0.000000
    12  C    1.413688   0.000000
    13  C    2.470946   1.375175   0.000000
    14  C    2.711224   2.295699   1.388787   0.000000
    15  C    2.313510   2.735151   2.536322   1.489157   0.000000
    16  C    3.553307   4.148204   3.871230   2.617087   1.417333
    17  C    4.678049   4.971196   4.328038   2.940789   2.369912
    18  S    6.093721   6.570831   6.012181   4.628341   3.868675
    19  C    5.597050   6.416053   6.215616   4.935387   3.733069
    20  C    4.329965   5.270866   5.271191   4.126664   2.736617
    21  C    4.420814   5.632964   5.977765   5.062361   3.576605
    22  C    5.829381   7.148388   7.646360   6.811228   5.325538
    23  C    7.674527   9.009332   9.522976   8.669779   7.188281
    24  C    9.218398  10.547866  11.044160  10.163108   8.690583
    25  C    3.830649   2.513435   1.465005   2.510550   3.894812
    26  N    4.730698   3.470074   2.466967   3.266934   4.641711
    27  C    6.031775   4.706536   3.740432   4.539662   5.964808
    28  C    6.706531   5.321904   4.401457   5.270927   6.736454
    29  C    6.096569   4.734352   3.896444   4.814461   6.233628
    30  N    6.933376   5.626522   4.909312   5.789378   7.143196
    31  S    6.286181   5.154082   4.641332   5.446738   6.603416
    32  N    4.669639   3.550265   3.033813   3.863031   4.984486
    33  C    4.657281   3.344172   2.531217   3.497951   4.842257
    34  H   10.830572  12.214958  12.927596  12.234520  10.771612
    35  H   10.993107  12.369468  12.974600  12.161390  10.676628
    36  H    9.125255  10.455554  11.124681  10.453676   9.040054
    37  H    6.561300   7.912233   8.663075   8.100954   6.707837
    38  H    6.998153   8.398044   9.203680   8.640098   7.218725
    39  H    2.455820   3.821182   4.912891   4.869140   3.849896
    40  H    2.151356   1.099034   2.125767   3.306866   3.831126
    41  H    3.802841   3.280332   2.102866   1.091773   2.255024
    42  H    4.993191   4.977143   4.066491   2.725574   2.745461
    43  H    6.490809   7.397140   7.260948   5.996062   4.756725
    44  H    9.943123  11.245753  11.719399  10.836763   9.391902
    45  H    6.743502   5.479572   4.543860   5.236640   6.603617
    46  H    7.775010   6.383619   5.480582   6.324541   7.797307
                   16         17         18         19         20
    16  C    0.000000
    17  C    1.384661   0.000000
    18  S    2.546980   1.693930   0.000000
    19  C    2.345424   2.487009   1.713947   0.000000
    20  C    1.583626   2.477769   2.623854   1.366717   0.000000
    21  C    2.847932   3.951922   4.044025   2.488892   1.504334
    22  C    4.613114   5.628842   5.403223   3.702843   3.153531
    23  C    6.382317   7.260585   6.736725   5.056547   4.845884
    24  C    7.817661   8.593236   7.889691   6.282323   6.258508
    25  C    5.126509   5.312891   6.999193   7.442866   6.610322
    26  N    5.762182   5.811470   7.455573   8.015643   7.242894
    27  C    7.041203   6.956538   8.560739   9.256851   8.553523
    28  C    7.836328   7.716194   9.316328  10.061237   9.382138
    29  C    7.373486   7.335203   8.946515   9.608658   8.901952
    30  N    8.254376   8.200314   9.759704  10.432197   9.758318
    31  S    7.693478   7.762688   9.271294   9.794127   9.097595
    32  N    6.138669   6.332812   7.903452   8.310955   7.535560
    33  C    6.037424   6.151957   7.795262   8.302932   7.524803
    34  H   10.110369  11.044838  10.511841   8.855605   8.616972
    35  H    9.865190  10.679076   9.958248   8.343135   8.309545
    36  H    8.443194   9.405122   9.034161   7.421204   7.038964
    37  H    6.334919   7.482991   7.481299   5.858641   5.102804
    38  H    6.827410   7.962152   7.866410   6.201292   5.581058
    39  H    4.453293   5.822861   6.770212   5.668444   4.338559
    40  H    5.240906   6.063197   7.669340   7.489109   6.311271
    41  H    2.937571   2.723877   4.377600   5.060975   4.519204
    42  H    2.253682   1.090512   2.406393   3.537729   3.547429
    43  H    3.394726   3.509306   2.396883   1.069929   2.181793
    44  H    8.510425   9.237405   8.498935   6.963529   6.977243
    45  H    7.604264   7.464479   9.009633   9.747592   9.080718
    46  H    8.866830   8.680466  10.246177  11.061824  10.421204
                   21         22         23         24         25
    21  C    0.000000
    22  C    1.779290   0.000000
    23  C    3.622682   1.895948   0.000000
    24  C    5.136808   3.456329   1.572912   0.000000
    25  C    7.409417   9.096193  10.968526  12.480425   0.000000
    26  N    8.090566   9.768191  11.592393  13.053047   1.379194
    27  C    9.448192  11.137168  12.961292  14.417506   2.402825
    28  C   10.290818  11.999313  13.860728  15.353468   2.937552
    29  C    9.768634  11.468093  13.356543  14.885753   2.528262
    30  N   10.610071  12.291183  14.186233  15.733349   3.684479
    31  S    9.858789  11.477852  13.361880  14.923399   3.819579
    32  N    8.266910   9.897146  11.788650  13.349394   2.479998
    33  C    8.329787  10.011949  11.904879  13.444694   1.420208
    34  H    7.297428   5.534110   3.816411   2.743649  14.377729
    35  H    7.109119   5.353449   3.503570   2.190794  14.429330
    36  H    5.747273   4.151633   2.789116   2.336972  12.541884
    37  H    3.681566   2.409282   2.449734   3.442967  10.091466
    38  H    4.186015   2.909055   2.969112   4.000473  10.655265
    39  H    3.589222   4.336187   5.983251   7.488362   6.285139
    40  H    6.553659   7.970122   9.799068  11.331808   2.730863
    41  H    5.671096   7.447039   9.261149  10.710256   2.670197
    42  H    4.996169   6.699349   8.344911   9.673000   4.789317
    43  H    2.796499   3.497197   4.511268   5.584974   8.505125
    44  H    5.918093   4.318116   2.537529   1.164743  13.134558
    45  H    9.984389  11.647882  13.425037  14.836279   3.343681
    46  H   11.354376  13.067007  14.923874  16.409645   4.017293
                   26         27         28         29         30
    26  N    0.000000
    27  C    1.377030   0.000000
    28  C    2.480966   1.392410   0.000000
    29  C    2.792192   2.340423   1.407014   0.000000
    30  N    4.125980   3.623933   2.445062   1.342828   0.000000
    31  S    4.734844   4.684261   3.798238   2.414938   1.660722
    32  N    3.671419   4.076669   3.682444   2.374819   2.554564
    33  C    2.387533   2.742568   2.537999   1.504212   2.378215
    34  H   14.965171  16.339424  17.278529  16.792670  17.624769
    35  H   15.062801  16.435589  17.335889  16.805448  17.598178
    36  H   13.006617  14.368569  15.386984  15.018592  15.946190
    37  H   10.639929  12.009315  12.965734  12.537565  13.434850
    38  H   11.534953  12.888633  13.585717  12.854197  13.492438
    39  H    7.148804   8.458335   9.142657   8.486612   9.223631
    40  H    3.610752   4.669372   5.163540   4.570463   5.390757
    41  H    3.195450   4.304724   5.010521   4.662264   5.640136
    42  H    5.190575   6.216259   6.929070   6.614336   7.482294
    43  H    9.083116  10.324864  11.127614  10.660556  11.458780
    44  H   13.611015  14.966306  15.968636  15.584023  16.490592
    45  H    2.077034   1.092529   2.143897   3.346081   4.557417
    46  H    3.457819   2.184191   1.080381   2.191107   2.781242
                   31         32         33         34         35
    31  S    0.000000
    32  N    1.658025   0.000000
    33  C    2.417114   1.344365   0.000000
    34  H   16.767520  15.199485  15.332967   0.000000
    35  H   16.694487  15.152471  15.338038   1.501462   0.000000
    36  H   15.238097  13.619562  13.602526   2.321740   3.103569
    37  H   12.707789  11.095120  11.107346   4.410865   4.903071
    38  H   12.431044  10.968526  11.352304   4.811678   4.779385
    39  H    8.381317   6.842824   7.034354   8.739135   9.015723
    40  H    4.969733   3.527047   3.329297  12.837941  13.079687
    41  H    5.458563   4.032745   3.548766  12.914247  12.759286
    42  H    7.185857   5.853550   5.566380  12.121134  11.766446
    43  H   10.772723   9.307252   9.347005   8.243859   7.599676
    44  H   15.759329  14.159555  14.169867   2.606175   2.285225
    45  H    5.734736   5.168281   3.831529  16.755088  16.885614
    46  H    4.359877   4.564550   3.537164  18.341653  18.402475
                   36         37         38         39         40
    36  H    0.000000
    37  H    2.602665   0.000000
    38  H    4.451360   3.136790   0.000000
    39  H    7.230202   4.634126   4.821788   0.000000
    40  H   11.091156   8.522112   8.989191   4.245938   0.000000
    41  H   11.130156   8.879515   9.433488   5.911486   4.202960
    42  H   10.442632   8.486443   8.988700   6.502239   6.022996
    43  H    6.981796   5.735591   5.943744   6.252496   8.454200
    44  H    2.108877   3.925790   5.034592   8.266272  12.023120
    45  H   14.708562  12.426254  13.527053   9.118873   5.448490
    46  H   16.431611  14.021477  14.665524  10.204513   6.170086
                   41         42         43         44         45
    41  H    0.000000
    42  H    2.119923   0.000000
    43  H    6.124056   4.523386   0.000000
    44  H   11.357500  10.295558   6.267200   0.000000
    45  H    4.946768   6.709249  10.804567  15.313469   0.000000
    46  H    6.002573   7.844418  12.125937  17.011024   2.516498
                   46
    46  H    0.000000
 Stoichiometry    C26H13N5S2
 Framework group  C1[X(C26H13N5S2)]
 Deg. of freedom   132
 Full point group                 C1      NOp   1
 Largest Abelian subgroup         C1      NOp   1
 Largest concise Abelian subgroup C1      NOp   1
                         Standard orientation:                         
 ---------------------------------------------------------------------
 Center     Atomic      Atomic             Coordinates (Angstroms)
 Number     Number       Type             X           Y           Z
 ---------------------------------------------------------------------
      1          6           0       -9.018472   -0.640849   -0.090888
      2          6           0       -8.092746   -1.266880    0.848589
      3          6           0       -7.004985   -1.064103    0.131963
      4          6           0       -5.958105   -1.929843    0.433564
      5          6           0       -5.322674   -2.051715   -0.709445
      6          6           0       -4.215023   -1.194737   -0.483706
      7          7           0       -3.156203   -2.104406   -0.424256
      8          6           0       -1.908753   -1.796580   -0.076656
      9          6           0       -1.529863   -0.520663    0.015609
     10          6           0        0.078731   -0.584222    0.207991
     11          7           0        0.971839   -1.683703    0.413422
     12          6           0        2.361607   -1.567676    0.644936
     13          6           0        3.055450   -0.380654    0.670722
     14          6           0        2.240326    0.712469    0.407313
     15          6           0        0.770382    0.610343    0.191851
     16          6           0       -0.157774    1.652377   -0.056187
     17          6           0        0.386017    2.920665   -0.170311
     18         16           0       -0.800245    4.064305   -0.563083
     19          6           0       -2.068232    2.911165   -0.572541
     20          6           0       -1.735219    1.640405   -0.195460
     21          6           0       -2.791682    0.571596   -0.127993
     22          6           0       -4.523963    0.168226   -0.176664
     23          6           0       -6.408056    0.361327   -0.089925
     24          6           0       -7.919117    0.735482    0.135366
     25          6           0        4.496987   -0.267995    0.906345
     26          7           0        4.969979    0.180745    2.121700
     27          6           0        6.319648    0.315534    2.359261
     28          6           0        7.361110    0.058479    1.471520
     29          6           0        6.924413   -0.382496    0.208775
     30          7           0        7.719982   -0.688262   -0.828897
     31         16           0        6.719714   -1.143831   -2.073854
     32          7           0        5.236262   -0.975708   -1.352639
     33          6           0        5.461501   -0.555035   -0.095809
     34          1           0       -9.846508   -1.179638    0.516266
     35          1           0       -9.863634   -0.060685   -0.484753
     36          1           0       -7.995186   -0.826377    1.872100
     37          1           0       -5.519111   -1.421917    1.335211
     38          1           0       -5.677930   -1.993050   -1.745054
     39          1           0       -1.247824   -2.664459    0.036240
     40          1           0        2.919906   -2.496125    0.829765
     41          1           0        2.746568    1.679486    0.383563
     42          1           0        1.414661    3.266833   -0.064128
     43          1           0       -3.037593    3.258513   -0.863119
     44          1           0       -8.572498    1.029489    1.053668
     45          1           0        6.561079    0.665768    3.365575
     46          1           0        8.404500    0.186199    1.721017
 ---------------------------------------------------------------------
 Rotational constants (GHZ):      0.2998419      0.0429480      0.0400633
 Standard basis: 6-31++G(d,p) (6D, 7F)
 There are   713 symmetry adapted basis functions of A   symmetry.
 Integral buffers will be    131072 words long.
 Raffenetti 2 integral format.
 Two-electron integral symmetry is turned on.
   713 basis functions,  1208 primitive gaussians,   713 cartesian basis functions
   118 alpha electrons      118 beta electrons
       nuclear repulsion energy      3106.5261004760 Hartrees.
 NAtoms=   46 NActive=   46 NUniq=   46 SFac= 1.00D+00 NAtFMM=   60 NAOKFM=F Big=F
 One-electron integrals computed using PRISM.
 NBasis=   713 RedAO= T  NBF=   713
 NBsUse=   704 1.00D-06 NBFU=   704
 Harris functional with IExCor=  402 diagonalized for initial guess.
 ExpMin= 3.60D-02 ExpMax= 2.19D+04 ExpMxC= 3.30D+03 IAcc=3 IRadAn=         5 AccDes= 0.00D+00
 HarFok:  IExCor=  402 AccDes= 0.00D+00 IRadAn=         5 IDoV= 1
 ScaDFX=  1.000000  1.000000  1.000000  1.000000
 FoFCou: FMM=F IPFlag=           0 FMFlag=      100000 FMFlg1=           0
         NFxFlg=           0 DoJE=T BraDBF=F KetDBF=T FulRan=T
         Omega=  0.000000  0.000000  1.000000  0.000000  0.000000 ICntrl=     500 IOpCl=  0
         NMat0=    1 NMatS0=    1 NMatT0=    0 NMatD0=    1 NMtDS0=    0 NMtDT0=    0
         I1Cent=           4 NGrid=           0.
 Petite list used in FoFCou.
 Initial guess orbital symmetries:
       Occupied  (A) (A) (A) (A) (A) (A) (A) (A) (A) (A) (A) (A)
                 (A) (A) (A) (A) (A) (A) (A) (A) (A) (A) (A) (A)
                 (A) (A) (A) (A) (A) (A) (A) (A) (A) (A) (A) (A)
                 (A) (A) (A) (A) (A) (A) (A) (A) (A) (A) (A) (A)
                 (A) (A) (A) (A) (A) (A) (A) (A) (A) (A) (A) (A)
                 (A) (A) (A) (A) (A) (A) (A) (A) (A) (A) (A) (A)
                 (A) (A) (A) (A) (A) (A) (A) (A) (A) (A) (A) (A)
                 (A) (A) (A) (A) (A) (A) (A) (A) (A) (A) (A) (A)
                 (A) (A) (A) (A) (A) (A) (A) (A) (A) (A) (A) (A)
                 (A) (A) (A) (A) (A) (A) (A) (A) (A) (A)
       Virtual   (A) (A) (A) (A) (A) (A) (A) (A) (A) (A) (A) (A)
                 (A) (A) (A) (A) (A) (A) (A) (A) (A) (A) (A) (A)
                 (A) (A) (A) (A) (A) (A) (A) (A) (A) (A) (A) (A)
                 (A) (A) (A) (A) (A) (A) (A) (A) (A) (A) (A) (A)
                 (A) (A) (A) (A) (A) (A) (A) (A) (A) (A) (A) (A)
                 (A) (A) (A) (A) (A) (A) (A) (A) (A) (A) (A) (A)
                 (A) (A) (A) (A) (A) (A) (A) (A) (A) (A) (A) (A)
                 (A) (A) (A) (A) (A) (A) (A) (A) (A) (A) (A) (A)
                 (A) (A) (A) (A) (A) (A) (A) (A) (A) (A) (A) (A)
                 (A) (A) (A) (A) (A) (A) (A) (A) (A) (A) (A) (A)
                 (A) (A) (A) (A) (A) (A) (A) (A) (A) (A) (A) (A)
                 (A) (A) (A) (A) (A) (A) (A) (A) (A) (A) (A) (A)
                 (A) (A) (A) (A) (A) (A) (A) (A) (A) (A) (A) (A)
                 (A) (A) (A) (A) (A) (A) (A) (A) (A) (A) (A) (A)
                 (A) (A) (A) (A) (A) (A) (A) (A) (A) (A) (A) (A)
                 (A) (A) (A) (A) (A) (A) (A) (A) (A) (A) (A) (A)
                 (A) (A) (A) (A) (A) (A) (A) (A) (A) (A) (A) (A)
                 (A) (A) (A) (A) (A) (A) (A) (A) (A) (A) (A) (A)
                 (A) (A) (A) (A) (A) (A) (A) (A) (A) (A) (A) (A)
                 (A) (A) (A) (A) (A) (A) (A) (A) (A) (A) (A) (A)
                 (A) (A) (A) (A) (A) (A) (A) (A) (A) (A) (A) (A)
                 (A) (A) (A) (A) (A) (A) (A) (A) (A) (A) (A) (A)
                 (A) (A) (A) (A) (A) (A) (A) (A) (A) (A) (A) (A)
                 (A) (A) (A) (A) (A) (A) (A) (A) (A) (A) (A) (A)
                 (A) (A) (A) (A) (A) (A) (A) (A) (A) (A) (A) (A)
                 (A) (A) (A) (A) (A) (A) (A) (A) (A) (A) (A) (A)
                 (A) (A) (A) (A) (A) (A) (A) (A) (A) (A) (A) (A)
                 (A) (A) (A) (A) (A) (A) (A) (A) (A) (A) (A) (A)
                 (A) (A) (A) (A) (A) (A) (A) (A) (A) (A) (A) (A)
                 (A) (A) (A) (A) (A) (A) (A) (A) (A) (A) (A) (A)
                 (A) (A) (A) (A) (A) (A) (A) (A) (A) (A) (A) (A)
                 (A) (A) (A) (A) (A) (A) (A) (A) (A) (A) (A) (A)
                 (A) (A) (A) (A) (A) (A) (A) (A) (A) (A) (A) (A)
                 (A) (A) (A) (A) (A) (A) (A) (A) (A) (A) (A) (A)
                 (A) (A) (A) (A) (A) (A) (A) (A) (A) (A) (A) (A)
                 (A) (A) (A) (A) (A) (A) (A) (A) (A) (A) (A) (A)
                 (A) (A) (A) (A) (A) (A) (A) (A) (A) (A) (A) (A)
                 (A) (A) (A) (A) (A) (A) (A) (A) (A) (A) (A) (A)
                 (A) (A) (A) (A) (A) (A) (A) (A) (A) (A) (A) (A)
                 (A) (A) (A) (A) (A) (A) (A) (A) (A) (A) (A) (A)
                 (A) (A) (A) (A) (A) (A) (A) (A) (A) (A) (A) (A)
                 (A) (A) (A) (A) (A) (A) (A) (A) (A) (A) (A) (A)
                 (A) (A) (A) (A) (A) (A) (A) (A) (A) (A) (A) (A)
                 (A) (A) (A) (A) (A) (A) (A) (A) (A) (A) (A) (A)
                 (A) (A) (A) (A) (A) (A) (A) (A) (A) (A) (A) (A)
                 (A) (A) (A) (A) (A) (A) (A) (A) (A) (A) (A) (A)
                 (A) (A) (A) (A) (A) (A) (A) (A) (A) (A) (A) (A)
                 (A) (A) (A) (A) (A) (A) (A) (A) (A) (A) (A) (A)
                 (A) (A) (A) (A) (A) (A) (A) (A) (A) (A)
 The electronic state of the initial guess is 1-A.
 Requested convergence on RMS density matrix=1.00D-08 within 128 cycles.
 Requested convergence on MAX density matrix=1.00D-06.
 Requested convergence on             energy=1.00D-06.
 No special actions if energy rises.
 EnCoef did     1 forward-backward iterations
 EnCoef did     2 forward-backward iterations
 EnCoef did     3 forward-backward iterations
 EnCoef did     1 forward-backward iterations
 EnCoef did     6 forward-backward iterations
 Restarting incremental Fock formation.
 Restarting incremental Fock formation.
 SCF Done:  E(RB3LYP) =  -2067.68675018     A.U. after   43 cycles
             Convg  =    0.8556D-08             -V/T =  2.0076

 **********************************************************************

            Population analysis using the SCF density.

 **********************************************************************

 Orbital symmetries:
       Occupied  (A) (A) (A) (A) (A) (A) (A) (A) (A) (A) (A) (A)
                 (A) (A) (A) (A) (A) (A) (A) (A) (A) (A) (A) (A)
                 (A) (A) (A) (A) (A) (A) (A) (A) (A) (A) (A) (A)
                 (A) (A) (A) (A) (A) (A) (A) (A) (A) (A) (A) (A)
                 (A) (A) (A) (A) (A) (A) (A) (A) (A) (A) (A) (A)
                 (A) (A) (A) (A) (A) (A) (A) (A) (A) (A) (A) (A)
                 (A) (A) (A) (A) (A) (A) (A) (A) (A) (A) (A) (A)
                 (A) (A) (A) (A) (A) (A) (A) (A) (A) (A) (A) (A)
                 (A) (A) (A) (A) (A) (A) (A) (A) (A) (A) (A) (A)
                 (A) (A) (A) (A) (A) (A) (A) (A) (A) (A)
       Virtual   (A) (A) (A) (A) (A) (A) (A) (A) (A) (A) (A) (A)
                 (A) (A) (A) (A) (A) (A) (A) (A) (A) (A) (A) (A)
                 (A) (A) (A) (A) (A) (A) (A) (A) (A) (A) (A) (A)
                 (A) (A) (A) (A) (A) (A) (A) (A) (A) (A) (A) (A)
                 (A) (A) (A) (A) (A) (A) (A) (A) (A) (A) (A) (A)
                 (A) (A) (A) (A) (A) (A) (A) (A) (A) (A) (A) (A)
                 (A) (A) (A) (A) (A) (A) (A) (A) (A) (A) (A) (A)
                 (A) (A) (A) (A) (A) (A) (A) (A) (A) (A) (A) (A)
                 (A) (A) (A) (A) (A) (A) (A) (A) (A) (A) (A) (A)
                 (A) (A) (A) (A) (A) (A) (A) (A) (A) (A) (A) (A)
                 (A) (A) (A) (A) (A) (A) (A) (A) (A) (A) (A) (A)
                 (A) (A) (A) (A) (A) (A) (A) (A) (A) (A) (A) (A)
                 (A) (A) (A) (A) (A) (A) (A) (A) (A) (A) (A) (A)
                 (A) (A) (A) (A) (A) (A) (A) (A) (A) (A) (A) (A)
                 (A) (A) (A) (A) (A) (A) (A) (A) (A) (A) (A) (A)
                 (A) (A) (A) (A) (A) (A) (A) (A) (A) (A) (A) (A)
                 (A) (A) (A) (A) (A) (A) (A) (A) (A) (A) (A) (A)
                 (A) (A) (A) (A) (A) (A) (A) (A) (A) (A) (A) (A)
                 (A) (A) (A) (A) (A) (A) (A) (A) (A) (A) (A) (A)
                 (A) (A) (A) (A) (A) (A) (A) (A) (A) (A) (A) (A)
                 (A) (A) (A) (A) (A) (A) (A) (A) (A) (A) (A) (A)
                 (A) (A) (A) (A) (A) (A) (A) (A) (A) (A) (A) (A)
                 (A) (A) (A) (A) (A) (A) (A) (A) (A) (A) (A) (A)
                 (A) (A) (A) (A) (A) (A) (A) (A) (A) (A) (A) (A)
                 (A) (A) (A) (A) (A) (A) (A) (A) (A) (A) (A) (A)
                 (A) (A) (A) (A) (A) (A) (A) (A) (A) (A) (A) (A)
                 (A) (A) (A) (A) (A) (A) (A) (A) (A) (A) (A) (A)
                 (A) (A) (A) (A) (A) (A) (A) (A) (A) (A) (A) (A)
                 (A) (A) (A) (A) (A) (A) (A) (A) (A) (A) (A) (A)
                 (A) (A) (A) (A) (A) (A) (A) (A) (A) (A) (A) (A)
                 (A) (A) (A) (A) (A) (A) (A) (A) (A) (A) (A) (A)
                 (A) (A) (A) (A) (A) (A) (A) (A) (A) (A) (A) (A)
                 (A) (A) (A) (A) (A) (A) (A) (A) (A) (A) (A) (A)
                 (A) (A) (A) (A) (A) (A) (A) (A) (A) (A) (A) (A)
                 (A) (A) (A) (A) (A) (A) (A) (A) (A) (A) (A) (A)
                 (A) (A) (A) (A) (A) (A) (A) (A) (A) (A) (A) (A)
                 (A) (A) (A) (A) (A) (A) (A) (A) (A) (A) (A) (A)
                 (A) (A) (A) (A) (A) (A) (A) (A) (A) (A) (A) (A)
                 (A) (A) (A) (A) (A) (A) (A) (A) (A) (A) (A) (A)
                 (A) (A) (A) (A) (A) (A) (A) (A) (A) (A) (A) (A)
                 (A) (A) (A) (A) (A) (A) (A) (A) (A) (A) (A) (A)
                 (A) (A) (A) (A) (A) (A) (A) (A) (A) (A) (A) (A)
                 (A) (A) (A) (A) (A) (A) (A) (A) (A) (A) (A) (A)
                 (A) (A) (A) (A) (A) (A) (A) (A) (A) (A) (A) (A)
                 (A) (A) (A) (A) (A) (A) (A) (A) (A) (A) (A) (A)
                 (A) (A) (A) (A) (A) (A) (A) (A) (A) (A) (A) (A)
                 (A) (A) (A) (A) (A) (A) (A) (A) (A) (A) (A) (A)
                 (A) (A) (A) (A) (A) (A) (A) (A) (A) (A) (A) (A)
                 (A) (A) (A) (A) (A) (A) (A) (A) (A) (A)
 The electronic state is 1-A.
 Alpha  occ. eigenvalues --  -89.00446 -88.92963 -14.40575 -14.40027 -14.37479
 Alpha  occ. eigenvalues --  -14.35816 -14.33643 -10.31571 -10.30347 -10.28204
 Alpha  occ. eigenvalues --  -10.28189 -10.27792 -10.27763 -10.27500 -10.26916
 Alpha  occ. eigenvalues --  -10.25824 -10.25675 -10.25547 -10.25087 -10.24880
 Alpha  occ. eigenvalues --  -10.24544 -10.24410 -10.23686 -10.23557 -10.23546
 Alpha  occ. eigenvalues --  -10.23302 -10.23054 -10.22853 -10.22734 -10.22077
 Alpha  occ. eigenvalues --  -10.21874 -10.20551 -10.18157  -8.05705  -7.98992
 Alpha  occ. eigenvalues --   -6.02259  -6.01673  -6.01478  -5.95381  -5.94994
 Alpha  occ. eigenvalues --   -5.94766  -1.03927  -0.95980  -0.94981  -0.93213
 Alpha  occ. eigenvalues --   -0.92331  -0.91994  -0.90289  -0.86330  -0.83757
 Alpha  occ. eigenvalues --   -0.82229  -0.81954  -0.80261  -0.78095  -0.77024
 Alpha  occ. eigenvalues --   -0.74299  -0.73494  -0.72670  -0.70238  -0.69397
 Alpha  occ. eigenvalues --   -0.66831  -0.65831  -0.65015  -0.64500  -0.63466
 Alpha  occ. eigenvalues --   -0.60401  -0.58365  -0.57851  -0.57545  -0.55597
 Alpha  occ. eigenvalues --   -0.54544  -0.54128  -0.53001  -0.52408  -0.51667
 Alpha  occ. eigenvalues --   -0.50784  -0.50278  -0.49147  -0.48537  -0.47677
 Alpha  occ. eigenvalues --   -0.47131  -0.45947  -0.44971  -0.44044  -0.43873
 Alpha  occ. eigenvalues --   -0.43556  -0.42896  -0.42657  -0.42076  -0.40926
 Alpha  occ. eigenvalues --   -0.40744  -0.40542  -0.40105  -0.39318  -0.39083
 Alpha  occ. eigenvalues --   -0.38484  -0.37205  -0.36619  -0.36333  -0.35270
 Alpha  occ. eigenvalues --   -0.34583  -0.33435  -0.33303  -0.31827  -0.30766
 Alpha  occ. eigenvalues --   -0.30322  -0.30124  -0.29014  -0.28257  -0.27869
 Alpha  occ. eigenvalues --   -0.27652  -0.26963  -0.24956  -0.24008  -0.22938
 Alpha  occ. eigenvalues --   -0.22403  -0.20948  -0.17821
 Alpha virt. eigenvalues --   -0.13159  -0.12584  -0.11315  -0.09840  -0.07455
 Alpha virt. eigenvalues --   -0.06557  -0.06025  -0.04114  -0.03591  -0.03139
 Alpha virt. eigenvalues --   -0.02735  -0.02488  -0.01394  -0.01168  -0.00754
 Alpha virt. eigenvalues --   -0.00325  -0.00077   0.00075   0.00532   0.00778
 Alpha virt. eigenvalues --    0.01440   0.01675   0.01899   0.02123   0.02325
 Alpha virt. eigenvalues --    0.02918   0.03273   0.03509   0.03749   0.03954
 Alpha virt. eigenvalues --    0.04277   0.04347   0.04668   0.05087   0.05294
 Alpha virt. eigenvalues --    0.05722   0.05858   0.06130   0.06487   0.06567
 Alpha virt. eigenvalues --    0.06874   0.07075   0.07438   0.07678   0.08296
 Alpha virt. eigenvalues --    0.08480   0.08547   0.08785   0.09124   0.09268
 Alpha virt. eigenvalues --    0.09325   0.09632   0.09827   0.10012   0.10084
 Alpha virt. eigenvalues --    0.10149   0.10416   0.10799   0.11015   0.11176
 Alpha virt. eigenvalues --    0.11379   0.11578   0.11760   0.11917   0.12140
 Alpha virt. eigenvalues --    0.12423   0.12526   0.12644   0.12905   0.13123
 Alpha virt. eigenvalues --    0.13485   0.13516   0.13739   0.13973   0.13997
 Alpha virt. eigenvalues --    0.14161   0.14284   0.14601   0.14799   0.14976
 Alpha virt. eigenvalues --    0.15393   0.15503   0.15693   0.15983   0.16166
 Alpha virt. eigenvalues --    0.16260   0.16668   0.16825   0.17132   0.17297
 Alpha virt. eigenvalues --    0.17453   0.17948   0.18241   0.18522   0.18626
 Alpha virt. eigenvalues --    0.18816   0.18956   0.19133   0.19352   0.19615
 Alpha virt. eigenvalues --    0.20006   0.20129   0.20451   0.20830   0.21018
 Alpha virt. eigenvalues --    0.21237   0.21538   0.21841   0.22080   0.22297
 Alpha virt. eigenvalues --    0.22353   0.22420   0.22813   0.23056   0.23215
 Alpha virt. eigenvalues --    0.23495   0.23534   0.23842   0.24041   0.24100
 Alpha virt. eigenvalues --    0.24262   0.24619   0.24733   0.24943   0.25102
 Alpha virt. eigenvalues --    0.25266   0.25516   0.25608   0.25771   0.26212
 Alpha virt. eigenvalues --    0.26358   0.26415   0.26626   0.26967   0.27350
 Alpha virt. eigenvalues --    0.27487   0.27828   0.28071   0.28451   0.28692
 Alpha virt. eigenvalues --    0.28801   0.29183   0.29761   0.29842   0.29877
 Alpha virt. eigenvalues --    0.30279   0.30483   0.30732   0.31068   0.31255
 Alpha virt. eigenvalues --    0.31500   0.31923   0.32341   0.32558   0.32712
 Alpha virt. eigenvalues --    0.32833   0.32993   0.33315   0.33603   0.33785
 Alpha virt. eigenvalues --    0.34060   0.34211   0.34501   0.34888   0.35551
 Alpha virt. eigenvalues --    0.35734   0.35898   0.36082   0.36349   0.36717
 Alpha virt. eigenvalues --    0.37139   0.37666   0.37835   0.38118   0.38489
 Alpha virt. eigenvalues --    0.38658   0.39110   0.39791   0.40271   0.40431
 Alpha virt. eigenvalues --    0.41073   0.41404   0.41707   0.42006   0.42562
 Alpha virt. eigenvalues --    0.43124   0.43497   0.43865   0.44423   0.44805
 Alpha virt. eigenvalues --    0.45253   0.45814   0.46337   0.47372   0.47778
 Alpha virt. eigenvalues --    0.48835   0.49437   0.49670   0.49962   0.50472
 Alpha virt. eigenvalues --    0.51123   0.51812   0.52585   0.53369   0.56100
 Alpha virt. eigenvalues --    0.56864   0.58752   0.59283   0.60639   0.61714
 Alpha virt. eigenvalues --    0.63803   0.64534   0.65019   0.65174   0.65775
 Alpha virt. eigenvalues --    0.66162   0.67263   0.67974   0.68526   0.68964
 Alpha virt. eigenvalues --    0.69148   0.69190   0.69516   0.69752   0.70135
 Alpha virt. eigenvalues --    0.70603   0.70723   0.71857   0.71995   0.72488
 Alpha virt. eigenvalues --    0.73012   0.73161   0.73943   0.74656   0.75004
 Alpha virt. eigenvalues --    0.75203   0.75445   0.75818   0.76112   0.76843
 Alpha virt. eigenvalues --    0.77380   0.77636   0.78555   0.78782   0.79357
 Alpha virt. eigenvalues --    0.79866   0.80005   0.81006   0.81180   0.81569
 Alpha virt. eigenvalues --    0.82064   0.82470   0.82643   0.83356   0.83822
 Alpha virt. eigenvalues --    0.84053   0.84137   0.84790   0.85815   0.86426
 Alpha virt. eigenvalues --    0.87007   0.87960   0.88374   0.89337   0.89996
 Alpha virt. eigenvalues --    0.90314   0.91192   0.91331   0.91616   0.92725
 Alpha virt. eigenvalues --    0.93467   0.93570   0.94937   0.95263   0.95492
 Alpha virt. eigenvalues --    0.95964   0.96563   0.96989   0.97962   0.98274
 Alpha virt. eigenvalues --    0.98712   0.99500   0.99760   1.00573   1.00717
 Alpha virt. eigenvalues --    1.01788   1.02313   1.03130   1.03647   1.03916
 Alpha virt. eigenvalues --    1.04307   1.04843   1.05207   1.05388   1.05975
 Alpha virt. eigenvalues --    1.06610   1.07046   1.07222   1.08377   1.08616
 Alpha virt. eigenvalues --    1.09416   1.10651   1.11256   1.12022   1.12463
 Alpha virt. eigenvalues --    1.12768   1.13109   1.13520   1.13817   1.14425
 Alpha virt. eigenvalues --    1.15580   1.16072   1.16734   1.16922   1.17336
 Alpha virt. eigenvalues --    1.18215   1.18510   1.18966   1.20161   1.20606
 Alpha virt. eigenvalues --    1.21114   1.21443   1.21792   1.22165   1.22755
 Alpha virt. eigenvalues --    1.23420   1.24090   1.25286   1.25577   1.25754
 Alpha virt. eigenvalues --    1.26029   1.26698   1.26987   1.27422   1.28423
 Alpha virt. eigenvalues --    1.29529   1.29915   1.30028   1.30969   1.31472
 Alpha virt. eigenvalues --    1.32013   1.32748   1.33296   1.33966   1.34839
 Alpha virt. eigenvalues --    1.35266   1.35980   1.36970   1.37234   1.37990
 Alpha virt. eigenvalues --    1.38689   1.39770   1.40157   1.40899   1.41875
 Alpha virt. eigenvalues --    1.42838   1.43857   1.44322   1.45931   1.46182
 Alpha virt. eigenvalues --    1.47610   1.48687   1.48994   1.49887   1.50526
 Alpha virt. eigenvalues --    1.52412   1.53600   1.54617   1.55786   1.56122
 Alpha virt. eigenvalues --    1.57969   1.59187   1.60830   1.62359   1.63111
 Alpha virt. eigenvalues --    1.65376   1.66133   1.67687   1.67928   1.69003
 Alpha virt. eigenvalues --    1.69553   1.70455   1.70494   1.71022   1.72249
 Alpha virt. eigenvalues --    1.73490   1.73897   1.74533   1.75152   1.75916
 Alpha virt. eigenvalues --    1.76483   1.77096   1.78687   1.79481   1.79899
 Alpha virt. eigenvalues --    1.81451   1.81974   1.82177   1.82835   1.83113
 Alpha virt. eigenvalues --    1.85450   1.85808   1.86079   1.86205   1.87434
 Alpha virt. eigenvalues --    1.88460   1.89404   1.89950   1.90491   1.92067
 Alpha virt. eigenvalues --    1.92873   1.93807   1.94224   1.95585   1.96071
 Alpha virt. eigenvalues --    1.96738   1.97749   1.99676   1.99826   2.00736
 Alpha virt. eigenvalues --    2.01298   2.02328   2.04190   2.05386   2.05938
 Alpha virt. eigenvalues --    2.07727   2.07913   2.09301   2.10576   2.10888
 Alpha virt. eigenvalues --    2.11806   2.12129   2.13195   2.13842   2.15626
 Alpha virt. eigenvalues --    2.16782   2.17669   2.18194   2.19298   2.19878
 Alpha virt. eigenvalues --    2.20910   2.21988   2.22503   2.23151   2.23953
 Alpha virt. eigenvalues --    2.25072   2.25394   2.25648   2.26389   2.27109
 Alpha virt. eigenvalues --    2.27804   2.29078   2.29219   2.29464   2.31731
 Alpha virt. eigenvalues --    2.32078   2.32145   2.32573   2.33340   2.34546
 Alpha virt. eigenvalues --    2.34735   2.36426   2.36687   2.37626   2.38710
 Alpha virt. eigenvalues --    2.39723   2.40129   2.40229   2.40636   2.41434
 Alpha virt. eigenvalues --    2.42422   2.43328   2.43496   2.44202   2.45247
 Alpha virt. eigenvalues --    2.45959   2.47122   2.47498   2.47981   2.48742
 Alpha virt. eigenvalues --    2.49439   2.52492   2.52851   2.52924   2.53327
 Alpha virt. eigenvalues --    2.53937   2.55844   2.56507   2.57687   2.57833
 Alpha virt. eigenvalues --    2.59083   2.59736   2.60428   2.60746   2.61357
 Alpha virt. eigenvalues --    2.61988   2.62949   2.63520   2.64995   2.65677
 Alpha virt. eigenvalues --    2.65761   2.66800   2.67338   2.67524   2.68296
 Alpha virt. eigenvalues --    2.68710   2.70776   2.71729   2.72919   2.74123
 Alpha virt. eigenvalues --    2.74649   2.75591   2.76037   2.77298   2.77820
 Alpha virt. eigenvalues --    2.78816   2.79194   2.81739   2.85581   2.86572
 Alpha virt. eigenvalues --    2.88454   2.89003   2.90334   2.94081   2.95088
 Alpha virt. eigenvalues --    2.96392   2.98251   2.99646   3.00058   3.02728
 Alpha virt. eigenvalues --    3.03575   3.06373   3.08846   3.11065   3.14242
 Alpha virt. eigenvalues --    3.14868   3.17579   3.19527   3.26956   3.27911
 Alpha virt. eigenvalues --    3.28996   3.31060   3.31315   3.34700   3.37489
 Alpha virt. eigenvalues --    3.41422   3.46064   3.51023   3.54546   3.56751
 Alpha virt. eigenvalues --    3.59973   3.61135   3.68542   3.93810   3.98982
 Alpha virt. eigenvalues --    4.08533   4.18748   4.20250   4.20502   4.26183
 Alpha virt. eigenvalues --    4.27786   4.29499   4.31386   4.32035   4.33969
 Alpha virt. eigenvalues --    4.35611   4.37019   4.40458   4.41470   4.44279
 Alpha virt. eigenvalues --    4.46485   4.46963   4.47599   4.52176   4.53650
 Alpha virt. eigenvalues --    4.54680   4.56971   4.59738   4.61291   4.64947
 Alpha virt. eigenvalues --    4.66209   4.70247   4.75162   4.77412   4.78040
 Alpha virt. eigenvalues --    4.83243
          Condensed to atoms (all electrons):
              1          2          3          4          5          6
     1  C   15.668372  -2.867312   0.540726  -6.350358  -2.116164  -1.119977
     2  C   -2.867312  17.824457 -12.114850   5.366708  -1.258998  -0.517987
     3  C    0.540726 -12.114850  47.500201 -18.820521  -1.748208  -4.039396
     4  C   -6.350358   5.366708 -18.820521  23.988128   0.751793  -0.112120
     5  C   -2.116164  -1.258998  -1.748208   0.751793  17.614654  -5.344402
     6  C   -1.119977  -0.517987  -4.039396  -0.112120  -5.344402  21.524229
     7  N    0.094530   0.053392   1.104784  -0.151444  -0.463012  -0.100054
     8  C    0.029756  -0.267263  -0.191564   0.352573   0.290676  -1.262340
     9  C   -0.097763   0.223369   0.364383  -0.099726  -0.295556  -0.893805
    10  C   -0.002488   0.017223  -0.099734   0.069242  -0.106694  -0.058431
    11  N   -0.000009  -0.000146   0.000376   0.002157  -0.004808  -0.038739
    12  C    0.000139   0.000281   0.010324   0.004888  -0.011097   0.025110
    13  C   -0.000075  -0.000056  -0.007854  -0.001698   0.002306  -0.035945
    14  C   -0.000092  -0.000246  -0.004903   0.005474  -0.006282  -0.144298
    15  C   -0.002447   0.001327  -0.075406   0.035473  -0.132912  -0.188496
    16  C   -0.004040   0.009895  -0.024959   0.027980   0.001669  -0.524401
    17  C    0.000205  -0.000116  -0.003552  -0.004638  -0.015890  -0.236612
    18  S    0.000394   0.001743   0.001710   0.004976  -0.003540   0.024309
    19  C   -0.015527   0.047135  -0.190462   0.055885   0.007609  -0.099419
    20  C   -0.022022  -0.000544  -0.332330   0.015378   0.201440   0.530882
    21  C   -0.207269   0.364461  -1.648179   1.049016  -1.243022   0.018786
    22  C   -0.699934   0.527435   0.245920  -1.108912   1.631987  -2.267151
    23  C    2.351094  -0.376647  -6.021558   1.012857  -0.919467   1.786655
    24  C    1.243364  -0.683944   0.129554  -0.261520  -0.605840   0.173008
    25  C   -0.000003   0.000008   0.000084  -0.000379  -0.001017  -0.000649
    26  N    0.000000   0.000000  -0.000000   0.000002   0.000014   0.000157
    27  C    0.000000   0.000000   0.000001   0.000002  -0.000000   0.000058
    28  C    0.000000  -0.000000  -0.000000  -0.000001   0.000001  -0.000013
    29  C    0.000000   0.000000   0.000000   0.000001   0.000016   0.000141
    30  N   -0.000000  -0.000000  -0.000000   0.000000  -0.000000  -0.000000
    31  S   -0.000000   0.000000  -0.000000  -0.000000   0.000003   0.000041
    32  N   -0.000000   0.000000   0.000000   0.000000   0.000009   0.000158
    33  C   -0.000000   0.000000  -0.000036  -0.000051  -0.000019  -0.000144
    34  H    0.570405  -0.224882  -0.206581  -0.002542  -0.043713   0.010173
    35  H    0.767190  -0.336751   0.052080  -0.227838  -0.059957  -0.022425
    36  H   -0.501883   0.835550  -0.435893   0.368477   0.042491   0.028972
    37  H   -0.072392   0.216061  -0.245149   0.537633  -0.492942   0.384400
    38  H   -0.088985  -0.095431   0.290041  -0.291736   0.454927   0.035808
    39  H   -0.001876  -0.008008  -0.038417   0.015400   0.027626  -0.022636
    40  H    0.000005   0.000007   0.000283   0.000258   0.000279  -0.000134
    41  H    0.000003  -0.000011   0.000363  -0.000104  -0.000374  -0.002539
    42  H   -0.000010   0.000017  -0.000628   0.000036   0.000148   0.000830
    43  H   -0.003537  -0.003113  -0.011564  -0.004559   0.021657  -0.006459
    44  H   -0.664313   0.295200   0.097174   0.313524   0.047999   0.010756
    45  H    0.000000   0.000000   0.000000   0.000000  -0.000000  -0.000002
    46  H   -0.000000  -0.000000  -0.000000  -0.000000   0.000000  -0.000000
              7          8          9         10         11         12
     1  C    0.094530   0.029756  -0.097763  -0.002488  -0.000009   0.000139
     2  C    0.053392  -0.267263   0.223369   0.017223  -0.000146   0.000281
     3  C    1.104784  -0.191564   0.364383  -0.099734   0.000376   0.010324
     4  C   -0.151444   0.352573  -0.099726   0.069242   0.002157   0.004888
     5  C   -0.463012   0.290676  -0.295556  -0.106694  -0.004808  -0.011097
     6  C   -0.100054  -1.262340  -0.893805  -0.058431  -0.038739   0.025110
     7  N    7.066758  -0.497726   0.415656   0.074138  -0.002497   0.001264
     8  C   -0.497726  21.198526  -8.859439  -0.140726  -0.070560  -0.361998
     9  C    0.415656  -8.859439  22.398815   0.555618  -0.074362   0.425554
    10  C    0.074138  -0.140726   0.555618   8.543527   0.094209   0.347040
    11  N   -0.002497  -0.070560  -0.074362   0.094209   6.987812  -0.165768
    12  C    0.001264  -0.361998   0.425554   0.347040  -0.165768  17.549184
    13  C   -0.001804   0.156379  -0.846088  -0.266568   0.350499  -6.169450
    14  C    0.001027   0.542384  -0.393412  -0.704539  -0.143384  -1.305697
    15  C    0.001601  -1.383441  -0.241095   0.172381   0.213581  -0.832151
    16  C    0.013601  -1.623770   1.886084   0.369403   0.109970  -1.422826
[...]
 0,0.00000726,-0.00000648,0.00002985,0.00001573,-0.00032063,0.37426970,
 0.00076092,-0.00016909,0.00020462,-0.00015959,-0.00027644,0.00047769,-
 0.00033710,0.00042311,0.00008557,0.00017720,0.00003455,-0.00010317,0.0
 0009073,-0.00039744,0.00015167,-0.00008186,-0.00030711,0.00031910,-0.0
 0035631,0.00002757,-0.00014205,0.00034260,0.00035300,-0.00013113,0.000
 21562,-0.00035246,0.00043554,-0.00006319,-0.00014789,-0.00012007,0.000
 00255,-0.00000903,0.00000177,-0.00000633,0.00002368,-0.00002162,0.0000
 8059,-0.00012983,-0.00006721,0.00000442,0.00001752,0.00015785,0.000447
 25,0.00089368,0.00011150,0.00094082,0.00354347,0.00317218,-0.00123968,
 -0.00074318,0.00219405,-0.00761637,-0.00255354,-0.00300420,-0.00316454
 ,-0.02504564,0.01034665,0.00870736,0.00202611,-0.00046661,0.00028016,-
 0.00239500,-0.00231413,-0.00012174,0.00011269,-0.00033770,-0.00035989,
 0.00123781,-0.00051954,0.00018047,-0.00016387,-0.00058255,-0.00000562,
 -0.00003771,0.00000406,0.00000058,-0.00000577,-0.00001893,0.00000032,0
 .00000283,0.00000212,0.00000147,-0.00000123,-0.00000147,-0.00000005,0.
 00000342,0.00000625,-0.00000040,-0.00000178,-0.00000126,0.00000229,0.0
 0000073,0.00000195,-0.00000040,-0.00000130,-0.00000427,0.00000705,0.00
 000957,0.00000486,0.00008168,-0.00009242,-0.00001596,-0.00006370,0.000
 05857,-0.00002130,-0.00008463,-0.00008389,0.00011022,0.00000100,-0.000
 01605,-0.00001219,-0.00003145,-0.00002240,-0.00002014,0.00000155,0.000
 00506,0.00000150,0.00000132,0.00000812,0.00000575,0.00001754,0.0000829
 0,0.00003582,-0.00029134,0.00259210,0.00044804,0.00169408,0.02198622,0
 .00049077,-0.00011639,-0.00006905,0.00005616,0.00013217,0.00023928,0.0
 0015802,0.00010443,-0.00000969,0.00007234,-0.00002525,-0.00001753,-0.0
 0015344,-0.00043416,0.00003149,0.00023241,0.00039528,-0.00007851,-0.00
 005062,-0.00011075,0.00009487,0.00007612,0.00006740,0.00001366,0.00026
 618,-0.00008779,0.00018582,-0.00018665,-0.00016699,0.00015283,0.000120
 68,0.00001219,-0.00003469,-0.00004721,-0.00000181,0.00001547,-0.000116
 18,-0.00008586,0.00003159,-0.00006719,0.00021062,-0.00041830,-0.001086
 74,-0.00002878,0.00093974,-0.00191240,0.00326740,-0.00327475,0.0030540
 4,0.00213546,-0.00508188,0.01972950,-0.00146822,0.00252475,-0.03966939
 ,0.01036909,-0.05228235,-0.02199559,-0.00289120,0.00614404,0.00043498,
 -0.00151245,0.00020012,-0.00019316,0.00014013,-0.00044668,0.00050440,0
 .00072295,-0.00127692,0.00039446,-0.00106560,-0.00049517,0.00000392,0.
 00002502,-0.00004666,-0.00000150,-0.00001151,0.00000724,-0.00000627,0.
 00000744,-0.00000624,-0.00000249,-0.00000527,0.00000330,0.00000140,0.0
 0000777,-0.00000439,-0.00000652,-0.00000262,0.00000045,0.00000090,-0.0
 0000065,0.00000176,-0.00000035,-0.00000049,-0.00000090,-0.00001902,-0.
 00000406,0.00000871,-0.00005922,0.00004795,0.00000233,-0.00009654,-0.0
 0002722,0.00002102,-0.00012679,-0.00003924,0.00004516,0.00001579,-0.00
 001163,0.00001709,0.00005150,0.00002775,-0.00000891,-0.00000094,0.0000
 1730,-0.00000315,-0.00000029,0.00000216,0.00000243,-0.00003223,0.00002
 167,0.00003304,0.00082900,0.00039581,0.00156126,0.03940817,-0.00981669
 ,0.05150940,-0.01214607,-0.00943692,0.00545349,-0.00735726,-0.00576323
 ,-0.00427068,-0.00055139,0.00193523,-0.00152283,0.00012141,-0.00110490
 ,-0.00053752,0.00002584,0.00036526,0.00033870,-0.00027029,-0.00054467,
 0.00017476,0.00010919,0.00011983,-0.00023964,0.00002560,-0.00000278,0.
 00009816,-0.00009855,0.00003670,-0.00009489,0.00004383,0.00000330,-0.0
 0000314,-0.00001859,0.00000374,-0.00000038,0.00000836,-0.00000076,0.00
 000441,-0.00001266,0.00000352,0.00000133,0.00000868,-0.00000357,0.0000
 0584,-0.00002796,0.00000561,-0.00002436,-0.00012303,0.00003664,0.00008
 444,-0.00009907,0.00001086,-0.00005424,0.00012802,0.00008606,0.0000096
 7,-0.00018360,0.00042808,0.00044911,-0.00016767,0.00025996,-0.00007007
 ,-0.00000434,-0.00023384,0.00029843,0.00041872,-0.00008640,-0.00032904
 ,0.00772180,0.00430220,0.00037428,-0.21602660,-0.14527481,0.03606392,0
 .00000002,0.00000389,-0.00000002,0.00000089,-0.00000297,0.00000134,-0.
 00000037,-0.00000102,0.00000107,0.00000012,0.00000082,0.00000014,0.000
 00029,-0.00000106,-0.00000046,0.00000149,0.00000053,-0.00000015,-0.000
 00019,-0.00000018,0.00000024,0.00000031,-0.00000025,0.00000048,0.00000
 008,-0.00000143,-0.00000133,0.00109955,-0.00015836,-0.00068172,-0.0011
 2420,0.00060820,0.00093355,0.00117739,0.00002180,0.00035149,0.00030176
 ,0.00016415,-0.00008662,0.00004699,0.00006891,-0.00008049,-0.00000427,
 -0.00002073,-0.00001144,-0.00000097,0.00000026,-0.00000056,-0.00000363
 ,0.00000258,0.00000170,-0.00000361,-0.00002722,-0.00001455,-0.00016100
 ,-0.00005623,-0.00006603,0.22714493,0.00557519,0.00184418,-0.00125634,
 0.00838578,0.00687609,0.00127908,0.00023227,-0.00644067,0.00374046,-0.
 00033645,0.00281990,0.00103606,-0.00006418,-0.00071771,-0.00068788,0.0
 0038961,0.00093743,-0.00000749,-0.00008073,-0.00021463,0.00044356,-0.0
 0013239,-0.00007093,0.00000835,0.00020289,-0.00000901,-0.00018529,-0.0
 0016156,-0.00003549,0.00003005,0.00006566,0.00000975,-0.00001329,-0.00
 003953,0.00001236,-0.00002276,0.00003930,-0.00000250,-0.00000324,-0.00
 005041,0.00001453,-0.00003549,0.00011314,-0.00001224,0.00007176,0.0000
 1502,-0.00000423,0.00003700,-0.00030397,-0.00003417,-0.00012269,0.0002
 6140,0.00014902,-0.00023965,-0.00003464,0.00045333,-0.00005996,0.00037
 109,-0.00001376,0.00023141,0.00002294,-0.00036255,0.00005877,-0.000639
 72,0.00031414,0.00075151,-0.01852388,-0.00539675,-0.00105932,-0.147970
 00,-0.17642151,0.03416293,0.00001007,-0.00000263,0.00000118,-0.0000087
 8,0.00000163,-0.00000661,0.00000440,0.00000327,-0.00000570,-0.00000264
 ,-0.00000081,0.00000159,-0.00000226,0.00000144,-0.00000158,-0.00000821
 ,-0.00000274,0.00000187,0.00000034,0.00000253,-0.00000221,-0.00000056,
 0.00000048,0.00000102,-0.00000275,0.00000318,-0.00000088,-0.00006947,0
 .00082637,0.00039239,0.00010548,-0.00014788,-0.00017083,-0.00113057,0.
 00037006,-0.00013955,-0.00032267,-0.00052367,0.00027354,-0.00001553,-0
 .00001745,0.00007868,0.00000852,0.00003513,0.00000747,0.00000389,-0.00
 000087,0.00000048,0.00002464,0.00000157,0.00000010,-0.00000349,0.00000
 657,-0.00001519,-0.00018031,-0.00049169,-0.00019515,0.15425323,0.17624
 054,-0.01385660,-0.01531288,0.00210452,0.00957162,0.01638259,-0.000371
 19,0.00178595,0.00001223,0.00172710,0.00066102,0.00268601,-0.00131781,
 -0.00018216,-0.00121909,-0.00078367,-0.00022727,0.00110525,-0.00051353
 ,0.00011774,-0.00009174,0.00020118,-0.00020278,-0.00004668,0.00000459,
 -0.00005751,-0.00001545,-0.00019799,-0.00002927,0.00001086,-0.00002474
 ,-0.00003073,0.00000174,-0.00003827,-0.00001442,0.00001550,-0.00001746
 ,-0.00000955,0.00000368,-0.00000358,-0.00003267,0.00000605,-0.00001899
 ,0.00005770,-0.00002720,0.00008060,-0.00012043,-0.00010695,-0.00002055
 ,-0.00010375,0.00001934,-0.00002372,0.00017746,0.00000362,-0.00024343,
 0.00019640,0.00003451,-0.00006031,0.00016507,-0.00003305,0.00019989,-0
 .00014713,0.00032238,-0.00006359,0.00034093,-0.00089641,0.00086915,0.0
 0648857,0.00530796,-0.00507024,0.03590694,0.03121428,-0.03729657,0.000
 04582,0.00000203,-0.00000347,-0.00002020,-0.00001345,0.00000385,0.0000
 0809,0.00000699,-0.00000798,-0.00000665,-0.00000350,0.00000320,-0.0000
 0458,0.00000334,-0.00000077,-0.00001107,-0.00000618,0.00000436,0.00000
 175,0.00000884,-0.00000591,-0.00000056,-0.00000362,0.00000319,-0.00000
 818,0.00000644,-0.00000734,0.00215484,-0.00006273,0.00002023,-0.003714
 76,0.00021460,0.00058396,-0.00143521,-0.00044332,0.00091956,-0.0007698
 5,-0.00009396,-0.00019677,-0.00010732,-0.00010995,0.00014034,0.0000024
 0,0.00001929,0.00000810,0.00000038,0.00000052,-0.00000077,0.00001844,0
 .00000223,0.00000285,-0.00001490,0.00003306,-0.00001091,-0.00003648,-0
 .00055831,-0.00023207,-0.03655630,-0.03837950,0.03965213,0.00000280,0.
 00000317,-0.00000142,0.00000192,0.00000243,-0.00000150,-0.00000210,-0.
 00000442,0.00000225,-0.00000922,-0.00000134,-0.00000672,-0.00000932,0.
 00001072,0.00001122,0.00000519,-0.00000344,0.00000256,-0.00002447,-0.0
 0000172,-0.00001088,0.00000430,0.00000928,-0.00001119,-0.00002784,0.00
 000756,-0.00001192,0.00008210,0.00001402,-0.00002050,-0.00013501,-0.00
 004655,0.00013038,-0.00031560,0.00008803,-0.00020479,0.00019107,-0.000
 57986,0.00079215,0.00002773,-0.00002573,0.00001451,-0.00005063,-0.0000
 0653,0.00005720,0.00001372,-0.00001438,0.00002956,-0.00000889,0.000007
 54,0.00001068,-0.00003020,0.00001332,-0.00003504,-0.00000216,0.0000009
 5,-0.00000019,0.00000517,0.00000939,-0.00001506,0.00001088,-0.00001630
 ,0.00003526,-0.00001082,-0.00000611,-0.00000714,0.00000722,-0.00002055
 ,0.00000895,-0.00000607,0.00000524,0.00000143,-0.00412697,-0.00137721,
 0.00170251,-0.01766850,-0.02351767,0.02690616,-0.06195006,-0.03060523,
 0.03496546,0.00886849,0.01524698,-0.01727721,-0.00360227,0.00185106,-0
 .00189978,0.00059737,0.00071439,-0.00078173,0.00004789,0.00027569,-0.0
 0031285,0.00036697,-0.00014607,0.00012973,-0.00093722,0.00014413,-0.00
 013538,-0.00000132,0.00000187,-0.00000180,-0.00000078,-0.00000085,0.00
 000010,-0.00000156,0.00000187,-0.00000037,0.00000085,0.00000083,0.0000
 0167,-0.00000262,0.00000205,-0.00000093,0.00000547,0.00000340,-0.00000
 660,-0.00000705,0.00000167,0.00000318,-0.00002141,-0.00004404,0.000034
 01,-0.00001586,-0.00001943,0.00000449,-0.00000028,0.00000099,-0.000003
 49,-0.00000016,0.00000057,-0.00000004,0.07810974,0.00000362,0.00000265
 ,-0.00000088,0.00000070,0.00000110,-0.00000079,-0.00000485,-0.00000371
 ,0.00000306,-0.00000906,0.00000097,-0.00000802,-0.00001169,0.00000359,
 0.00001677,0.00000728,-0.00000131,-0.00000330,-0.00002578,-0.00000453,
 -0.00000628,0.00000966,0.00001173,-0.00002006,-0.00004134,0.00000309,0
 .00000370,0.00007265,0.00001305,-0.00001189,-0.00012024,-0.00000781,0.
 00000367,-0.00000676,-0.00003111,-0.00012676,-0.00015343,0.00014999,0.
 00030033,-0.00002394,-0.00000170,-0.00001503,-0.00003619,-0.00002000,0
 .00009748,0.00001500,-0.00001546,0.00000661,0.00000411,-0.00001126,0.0
 0000180,-0.00001698,0.00000973,-0.00001586,-0.00001301,-0.00000448,-0.
 00000085,0.00000139,0.00000777,-0.00001102,0.00001922,-0.00000967,0.00
 002893,-0.00001062,-0.00001229,-0.00000458,0.00000905,-0.00001661,0.00
 000710,-0.00000483,0.00000611,0.00000183,0.00056900,0.00462617,0.00183
 247,-0.00541011,-0.00163021,0.00087842,-0.03163657,-0.16740900,0.14195
 397,-0.00400256,-0.00337207,0.01159362,0.00237258,0.00466354,0.0045085
 3,-0.00022596,0.00015455,0.00092073,0.00012463,-0.00093812,-0.00059093
 ,-0.00012045,-0.00021098,-0.00020083,0.00013927,0.00011527,-0.00023789
 ,0.00000004,0.00000181,-0.00000208,-0.00000121,-0.00000145,-0.00000011
 ,-0.00000041,0.00000185,-0.00000012,0.00000130,0.00000120,0.00000208,-
 0.00000179,0.00000458,-0.00000209,0.00000441,0.00000141,-0.00000446,0.
 00001948,0.00001793,-0.00000126,0.00000409,-0.00002552,0.00006484,-0.0
 0000361,0.00001167,0.00001531,-0.00000025,0.00000172,-0.00000065,0.000
 00010,-0.00000014,-0.00000020,0.03841897,0.16599547,-0.00000629,-0.000
 00434,0.00000178,-0.00000022,-0.00000187,0.00000160,0.00000263,0.00000
 445,-0.00000494,0.00001241,0.00000032,0.00001037,0.00001623,-0.0000059
 8,-0.00002087,-0.00000537,0.00000047,0.00000809,0.00003023,0.00000719,
 0.00000355,-0.00000787,-0.00002054,0.00002157,0.00003398,-0.00000722,-
 0.00000552,-0.00008049,-0.00001395,0.00003096,0.00011477,0.00000490,-0
 .00003898,-0.00002732,-0.00012295,0.00007647,0.00004618,0.00029763,-0.
 00000683,-0.00002602,0.00004142,0.00001873,0.00004362,0.00005089,-0.00
 007227,-0.00000695,-0.00000088,-0.00001461,-0.00001442,-0.00000708,-0.
 00000833,0.00001440,-0.00000277,0.00001522,0.00001735,-0.00000345,0.00
 000005,0.00000111,-0.00000305,0.00000759,-0.00002105,0.00000715,-0.000
 02437,0.00001123,0.00001490,0.00000186,-0.00001346,0.00002641,-0.00001
 087,0.00001074,-0.00000835,-0.00000422,-0.00022414,0.00194855,0.004175
 49,0.00706190,0.00119956,-0.00240032,0.03563429,0.14182769,-0.20347174
 ,0.00461294,0.01124355,-0.00587193,-0.00249299,0.00453673,0.00360360,0
 .00028738,0.00093375,-0.00008989,-0.00024427,-0.00053924,-0.00081446,0
 .00013663,-0.00025427,-0.00012263,-0.00024108,-0.00022114,0.00011822,0
 .00000041,-0.00000241,0.00000379,0.00000069,0.00000127,0.00000013,0.00
 000235,-0.00000302,-0.00000010,-0.00000146,-0.00000167,-0.00000345,0.0
 0000215,-0.00000573,0.00000162,-0.00000559,-0.00000107,0.00000666,0.00
 000276,0.00002510,0.00000440,-0.00002224,0.00001471,-0.00003612,-0.000
 00513,0.00000901,-0.00000227,0.00000056,0.00000156,0.00000070,-0.00000
 018,0.00000148,0.00000277,-0.04446658,-0.15859042,0.20642698,0.0000021
 8,0.00000111,-0.00000049,-0.00000021,0.00000056,-0.00000066,0.00000004
 ,-0.00000115,0.00000049,-0.00000256,0.00000036,-0.00000194,-0.00000498
 ,-0.00000171,0.00000586,-0.00000013,0.00000097,-0.00000342,-0.00000622
 ,-0.00000243,0.00000125,-0.00000086,0.00000106,0.00000056,0.00000426,-
 0.00000269,0.00000041,0.00001270,0.00000920,-0.00001421,-0.00003840,-0
 .00000879,0.00005087,-0.00001913,-0.00001614,-0.00001372,-0.00006072,-
 0.00006164,0.00007125,-0.00004295,0.00002533,-0.00004445,0.00001351,-0
 .00002804,0.00003604,0.00000518,-0.00000066,-0.00000154,0.00000540,-0.
 00000279,0.00000678,-0.00001267,0.00000220,-0.00000596,-0.00001214,0.0
 0000076,-0.00000235,0.00000163,0.00000355,-0.00000778,0.00000239,0.000
 00137,-0.00000121,-0.00000030,-0.00000210,-0.00000214,0.00000325,-0.00
 000685,0.00000341,-0.00000345,0.00000298,0.00000138,0.00067046,0.00044
 926,-0.00053371,-0.00150417,0.00247881,-0.00270622,-0.01453133,-0.0066
 0522,0.00774646,-0.32872453,-0.04704755,0.05803624,-0.00313065,0.00019
 005,-0.00015279,0.00064490,0.00011717,-0.00018158,0.00006544,-0.000356
 22,0.00037794,-0.00001139,0.00018592,-0.00016477,0.00133352,-0.0001108
 8,0.00014124,-0.00000004,0.00000086,-0.00000121,-0.00000032,-0.0000004
 9,-0.00000011,-0.00000057,0.00000082,0.00000015,0.00000073,0.00000039,
 0.00000114,-0.00000026,0.00000253,-0.00000097,0.00000362,0.00000153,-0
 .00000257,0.00001316,-0.00000488,-0.00000233,0.00007759,-0.00000550,0.
 00005859,0.00000174,-0.00000181,0.00000838,-0.00000041,-0.00000017,-0.
 00000051,0.00000020,-0.00000074,-0.00000076,0.00061948,0.00008511,-0.0
 0018381,0.34462703,-0.00000128,-0.00000062,0.00000040,-0.00000003,-0.0
 0000052,0.00000036,-0.00000005,0.00000119,-0.00000098,0.00000148,0.000
 00103,0.00000118,0.00000240,-0.00000099,-0.00000194,-0.00000137,-0.000
 00121,0.00000112,0.00000673,-0.00000542,-0.00000410,-0.00000122,0.0000
 0105,0.00000788,0.00000749,0.00000706,-0.00000299,-0.00001759,-0.00002
 794,0.00002776,-0.00000277,0.00013473,-0.00001971,0.00014693,-0.000085
 16,0.00000516,-0.00009813,-0.00082833,-0.00107337,-0.00007631,0.000011
 96,0.00007202,0.00004136,0.00000596,-0.00008313,-0.00001035,0.00000992
 ,-0.00000060,-0.00000416,-0.00000769,0.00000059,0.00000268,0.00000288,
 -0.00000184,0.00000615,-0.00000098,0.00000214,-0.00000034,-0.00000390,
 -0.00000266,-0.00000563,-0.00000392,-0.00000358,0.00000335,0.00000495,
 0.00000022,-0.00000331,0.00000486,-0.00000184,0.00000257,-0.00000184,-
 0.00000077,0.00007377,-0.00089053,0.00103561,0.00277722,0.00394646,0.0
 0540786,0.01403555,0.00597061,-0.00533518,-0.04707924,-0.05247032,0.02
 244497,-0.02014182,0.00052519,0.00285369,0.00043780,0.00014328,-0.0026
 7475,-0.00047624,-0.00034697,-0.00027081,-0.00093748,-0.00033272,0.001
 19163,0.00104411,0.00103041,0.00447412,0.00000015,-0.00000042,0.000000
 84,-0.00000010,0.00000005,0.00000003,0.00000082,-0.00000064,-0.0000000
 9,0.00000017,-0.00000027,-0.00000068,0.00000077,-0.00000075,-0.0000002
 5,0.00000016,0.00000350,0.00000354,0.00002599,-0.00002854,-0.00002986,
 -0.00006687,0.00008554,-0.00000730,-0.00000098,0.00000444,-0.00000254,
 -0.00000011,0.00000036,0.00000043,-0.00000012,0.00000055,0.00000084,-0
 .00039868,-0.00207951,-0.00237726,0.05070654,0.04522325,0.00000155,0.0
 0000103,-0.00000024,0.00000051,0.00000045,-0.00000013,-0.00000302,-0.0
 0000162,0.00000169,-0.00000505,0.00000107,-0.00000461,-0.00000573,0.00
 000332,0.00000862,0.00000329,-0.00000082,-0.00000073,-0.00001194,-0.00
 001004,-0.00000620,0.00000133,0.00001643,-0.00001299,-0.00002837,0.000
 00244,0.00000828,0.00003766,-0.00003334,0.00005675,-0.00011200,0.00011
 304,0.00001818,0.00010513,0.00000325,-0.00016780,-0.00032363,-0.001070
 18,-0.00053903,-0.00005361,-0.00001825,0.00005054,0.00005438,-0.000038
 36,0.00001235,0.00000031,0.00000798,0.00000387,0.00000281,-0.00000720,
 0.00000133,-0.00000439,0.00000511,-0.00000931,-0.00000465,-0.00000174,
 0.00000495,0.00000033,-0.00000051,-0.00001051,0.00001063,-0.00001171,0
 .00001620,-0.00000456,-0.00000400,0.00000129,0.00000364,-0.00000741,0.
 00000320,-0.00000174,0.00000222,0.00000082,0.00024092,0.00105994,-0.00
 116357,-0.00290129,0.00540372,0.00271687,-0.01552596,-0.00508154,0.007
 50352,0.05793796,0.02240678,-0.05942074,0.02277690,0.00259598,-0.00055
 934,-0.00056397,-0.00272224,0.00073793,0.00052874,-0.00022180,-0.00036
 374,0.00110981,0.00108890,-0.00048604,-0.00111668,0.00449424,-0.000018
 54,-0.00000012,0.00000079,-0.00000073,-0.00000058,-0.00000066,-0.00000
 009,-0.00000004,0.00000072,-0.00000008,0.00000053,0.00000058,0.0000007
 4,-0.00000071,0.00000155,-0.00000102,0.00000097,0.00000333,0.00000073,
 -0.00003424,-0.00002416,-0.00000273,0.00003154,0.00006218,0.00005649,0
 .00000105,0.00000156,0.00000699,-0.00000022,0.00000018,0.00000028,0.00
 000006,-0.00000013,0.00000003,0.00036964,-0.00238491,-0.00151746,-0.06
 251721,-0.02563616,0.05307396\\0.00000220,-0.00000518,0.00000705,-0.00
 000755,-0.00000428,-0.00000011,0.00000647,0.00000216,0.00000257,-0.000
 00499,0.00000196,0.00000149,0.00000148,0.00000028,0.00000460,0.0000029
 8,-0.00000334,-0.00000246,-0.00000169,-0.00000138,-0.00000072,0.000004
 97,0.00000226,-0.00000247,-0.00000037,0.00000221,0.00000403,-0.0000035
 0,-0.00000324,-0.00000934,-0.00000455,-0.00000064,0.00000028,0.0000049
 6,0.00000370,0.00000205,-0.00000526,-0.00000042,-0.00000077,0.00000760
 ,-0.00000017,0.00000034,-0.00000893,-0.00000126,0.00000318,0.00000178,
 -0.00000128,0.00000145,0.00000005,0.00000043,0.00000013,0.00000006,0.0
 0000036,0.00000107,-0.00000009,-0.00000139,0.00000041,-0.00000169,0.00
 000288,-0.00000054,0.00000094,-0.00000112,0.00000251,0.00000239,0.0000
 0288,-0.00000048,-0.00000480,-0.00000600,0.00000159,0.00000194,0.00000
 561,-0.00000124,0.00000451,0.00000064,-0.00000207,-0.00000774,0.000000
 91,0.,0.00001016,0.00000082,-0.00000071,-0.00000288,0.00000273,-0.0000
 0121,-0.00000026,0.00000033,-0.00000032,-0.00000114,0.00000030,0.00000
 049,0.00000057,-0.00000043,-0.00000145,0.00000441,0.00000085,0.0000021
 8,0.00000031,0.00000081,-0.00000498,-0.00000145,-0.00000076,-0.0000016
 3,-0.00000330,0.00000222,-0.00000384,0.00000175,-0.00000045,0.00000064
 ,-0.00000025,-0.00000283,0.00000208,-0.00000076,-0.00000102,-0.0000001
 3,0.00000098,-0.00000070,-0.00000009,0.00000022,-0.00000043,-0.0000016
 3,-0.00000078,0.00000050,-0.00000018,-0.00000012,0.00000036,-0.0000005
 7,-0.00000005,-0.00000074,0.00000026,0.00000300,0.00000031,0.00000119,
 -0.00000162,0.00000134,-0.00000037,0.00000006,0.00000020,-0.00000228\\
 \@


 10 WHATSOEVER THY HAND FINDETH TO DO, DO IT WITH THY  
 MIGHT. FOR THERE IS NO WORK, NOR DEVICE, NOR KNOWLEDGE, NOR  
 WISDOM, IN THE GRAVE, WHITHER THOU GOEST.                    
 11 I RETURNED AND SAW UNDER THE SUN, THAT THE RACE IS NOT TO 
 THE SWIFT, NOR THE BATTLE TO THE STRONG, NEITHER YET BREAD TO
 THE WISE, NOR YET RICHES TO MEN OF UNDERSTANDING, NOR YET    
 FAVOR TO MEN OF SKILL. BUT TIME AND CHANCE HAPPEN TO THEM ALL.
 12 FOR MAN ALSO KNOWETH NOT HIS TIME. AS THE FISHES   
 THAT ARE TAKEN IN AN EVIL NET, AND AS THE BIRDS THAT ARE     
 CAUGHT IN THE SNARE. SO ARE THE SONS OF MEN SNARED IN AN EVIL
 TIME, WHEN IT FALLETH SUDDENLY UPON THEM.
                                         ECCLESIASTES 9
 Job cpu time:  1 days 13 hours 26 minutes 36.0 seconds.
 File lengths (MBytes):  RWF=   2357 Int=      0 D2E=      0 Chk=     36 Scr=      1
 Normal termination of Gaussian 09 at Mon Dec 30 03:11:03 2013.
