 Entering Gaussian System, Link 0=g09
 Initial command:
 /opt/gaussian/g09/l1.exe /panfs/panfs.cluster/home/shuo/Gau-7718.inp -scrdir=/panfs/panfs.cluster/home/shuo/
 Default is to use a total of  12 processors:
                               12 via shared-memory
                                1 via Linda
 Entering Link 1 = /opt/gaussian/g09/l1.exe PID=      7720.
  
 Copyright (c) 1988,1990,1992,1993,1995,1998,2003,2009,2011,
            Gaussian, Inc.  All Rights Reserved.
  
 This is part of the Gaussian(R) 09 program.  It is based on
 the Gaussian(R) 03 system (copyright 2003, Gaussian, Inc.),
 the Gaussian(R) 98 system (copyright 1998, Gaussian, Inc.),
 the Gaussian(R) 94 system (copyright 1995, Gaussian, Inc.),
 the Gaussian 92(TM) system (copyright 1992, Gaussian, Inc.),
 the Gaussian 90(TM) system (copyright 1990, Gaussian, Inc.),
 the Gaussian 88(TM) system (copyright 1988, Gaussian, Inc.),
 the Gaussian 86(TM) system (copyright 1986, Carnegie Mellon
 University), and the Gaussian 82(TM) system (copyright 1983,
 Carnegie Mellon University). Gaussian is a federally registered
 trademark of Gaussian, Inc.
  
 This software contains proprietary and confidential information,
 including trade secrets, belonging to Gaussian, Inc.
  
 This software is provided under written license and may be
 used, copied, transmitted, or stored only in accord with that
 written license.
  
 The following legend is applicable only to US Government
 contracts under FAR:
  
                    RESTRICTED RIGHTS LEGEND
  
 Use, reproduction and disclosure by the US Government is
 subject to restrictions as set forth in subparagraphs (a)
 and (c) of the Commercial Computer Software - Restricted
 Rights clause in FAR 52.227-19.
  
 Gaussian, Inc.
 340 Quinnipiac St., Bldg. 40, Wallingford CT 06492
  
  
 ---------------------------------------------------------------
 Warning -- This program may not be used in any manner that
 competes with the business of Gaussian, Inc. or will provide
 assistance to any competitor of Gaussian, Inc.  The licensee
 of this program is prohibited from giving any competitor of
 Gaussian, Inc. access to this program.  By using this program,
 the user acknowledges that Gaussian, Inc. is engaged in the
 business of creating and licensing software in the field of
 computational chemistry and represents and warrants to the
 licensee that it is not a competitor of Gaussian, Inc. and that
 it will not use this program in any manner prohibited above.
 ---------------------------------------------------------------
  

 Cite this work as:
 Gaussian 09, Revision C.01,
 M. J. Frisch, G. W. Trucks, H. B. Schlegel, G. E. Scuseria, 
 M. A. Robb, J. R. Cheeseman, G. Scalmani, V. Barone, B. Mennucci, 
 G. A. Petersson, H. Nakatsuji, M. Caricato, X. Li, H. P. Hratchian, 
 A. F. Izmaylov, J. Bloino, G. Zheng, J. L. Sonnenberg, M. Hada, 
 M. Ehara, K. Toyota, R. Fukuda, J. Hasegawa, M. Ishida, T. Nakajima, 
 Y. Honda, O. Kitao, H. Nakai, T. Vreven, J. A. Montgomery, Jr., 
 J. E. Peralta, F. Ogliaro, M. Bearpark, J. J. Heyd, E. Brothers, 
 K. N. Kudin, V. N. Staroverov, T. Keith, R. Kobayashi, J. Normand, 
 K. Raghavachari, A. Rendell, J. C. Burant, S. S. Iyengar, J. Tomasi, 
 M. Cossi, N. Rega, J. M. Millam, M. Klene, J. E. Knox, J. B. Cross, 
 V. Bakken, C. Adamo, J. Jaramillo, R. Gomperts, R. E. Stratmann, 
 O. Yazyev, A. J. Austin, R. Cammi, C. Pomelli, J. W. Ochterski, 
 R. L. Martin, K. Morokuma, V. G. Zakrzewski, G. A. Voth, 
 P. Salvador, J. J. Dannenberg, S. Dapprich, A. D. Daniels, 
 O. Farkas, J. B. Foresman, J. V. Ortiz, J. Cioslowski, 
 and D. J. Fox, Gaussian, Inc., Wallingford CT, 2010.
 
 ******************************************
 Gaussian 09:  EM64L-G09RevC.01 23-Sep-2011
                28-Dec-2013 
 ******************************************
 %chk=27_C20H13N3SSi.chk
 %NProcShared=12
 Will use up to   12 processors via shared memory.
 %Mem=8000MB
 Default route:  MaxDisk=100GB
 --------------------------------------------
 #B3LYP/6-31++G(d,p) opt scf=direct freq test
 --------------------------------------------
 1/14=-1,18=20,19=15,26=3,38=1/1,3;
 2/9=110,12=2,17=6,18=5,40=1/2;
 3/5=1,6=6,7=1111,11=2,16=1,25=1,30=1,71=1,74=-5/1,2,3;
 4//1;
 5/5=2,38=5/2;
 6/7=2,8=2,9=2,10=2,28=1/1;
 7//1,2,3,16;
 1/14=-1,18=20,19=15/3(2);
 2/9=110/2;
 99//99;
 2/9=110/2;
 3/5=1,6=6,7=1111,11=2,16=1,25=1,30=1,71=1,74=-5/1,2,3;
 4/5=5,16=3/1;
 5/5=2,38=5/2;
 7//1,2,3,16;
 1/14=-1,18=20,19=15/3(-5);
 2/9=110/2;
 6/7=2,8=2,9=2,10=2,19=2,28=1/1;
 99/9=1/99;
 ----------------------------------------------------------------------
 Geom opt of No.27 candidate from the CEPDB database with SMILE code of
  C1C=Cc2c1c1cnc3C=C(Cc3c1c1=C[SiH2]C=c21)c1nccc2nsnc12, HPC, 20131227,
  Shuo Dai, Gaussian09
 ----------------------------------------------------------------------
 Charge =  0 Multiplicity = 1
 Symbolic Z-Matrix:
 C                     2.75673  -0.73741   0.49569 
 C                     2.34203   0.35288  -0.41003 
 C                     3.20903  -0.07263  -1.3548 
 C                     2.60521  -1.22347  -1.92675 
 C                     2.32242  -1.96763  -0.88639 
 C                     1.53576  -3.16595  -1.71729 
 C                     1.01589  -4.01698  -0.95118 
 N                     1.56218  -4.98391  -0.37348 
 C                     0.85231  -5.90682  -0.90647 
 C                     0.69595  -6.62822   0.32684 
 C                     0.08743  -7.75835   0.24825 
 C                    -0.40861  -7.35518  -1.40791 
 C                     0.31471  -5.7334   -2.40382 
 C                     0.93366  -4.03331  -2.83347 
 C                     1.30047  -2.50744  -4.01308 
 C                     1.21949  -1.75179  -5.26117 
 Si                    2.14886   0.23698  -5.45098 
 H                     3.50533   0.44346  -6.07719 
 H                     1.35859   1.52302  -5.33032 
 C                     2.59724  -0.09521  -3.79515 
 C                     2.19553  -1.28358  -3.26775 
 C                     0.12807  -8.49431   1.75124 
 N                     1.33378  -8.42616   2.60465 
 C                     1.472    -8.99243   3.91608 
 C                     0.52228  -9.6766    4.65816 
 C                    -0.69324  -9.74442   3.9603 
 N                    -1.78271  -10.34445   4.47004 
 S                    -2.97565  -10.17311   3.33811 
 N                    -2.20045  -9.33402   2.13074 
 C                    -0.9271   -9.14686   2.50311 
 H                     2.30449  -0.34893   1.44775 
 H                     3.75416  -0.06436   0.63984 
 H                     1.24108   0.2727   -0.41063 
 H                     4.24469  -0.45618  -1.13451 
 H                    -0.03338  -4.11411  -1.22446 
 H                     1.10538  -6.23026   1.24008 
 H                    -1.51759  -7.50415  -1.26344 
 H                    -0.08613  -8.35503  -1.82632 
 H                     0.89505  -1.6238   -6.29686 
 H                     3.14679   0.74139  -3.31625 
 H                     2.45951  -8.89376   4.40095 
 H                     0.67659  -10.11149   5.64779 
 

 GradGradGradGradGradGradGradGradGradGradGradGradGradGradGradGradGradGrad
 Berny optimization.
 Initialization pass.
                           ----------------------------
                           !    Initial Parameters    !
                           ! (Angstroms and Degrees)  !
 --------------------------                            --------------------------
 ! Name  Definition              Value          Derivative Info.                !
 --------------------------------------------------------------------------------
 ! R1    R(1,2)                  1.4768         estimate D2E/DX2                !
 ! R2    R(1,31)                 1.1233         estimate D2E/DX2                !
 ! R3    R(1,32)                 1.2119         estimate D2E/DX2                !
 ! R4    R(2,3)                  1.3511         estimate D2E/DX2                !
 ! R5    R(2,33)                 1.1039         estimate D2E/DX2                !
 ! R6    R(3,4)                  1.4199         estimate D2E/DX2                !
 ! R7    R(3,34)                 1.1262         estimate D2E/DX2                !
 ! R8    R(4,5)                  1.31           estimate D2E/DX2                !
 ! R9    R(4,21)                 1.4035         estimate D2E/DX2                !
 ! R10   R(5,6)                  1.6569         estimate D2E/DX2                !
 ! R11   R(6,7)                  1.2576         estimate D2E/DX2                !
 ! R12   R(6,14)                 1.5365         estimate D2E/DX2                !
 ! R13   R(7,8)                  1.2518         estimate D2E/DX2                !
 ! R14   R(7,14)                 1.8842         estimate D2E/DX2                !
 ! R15   R(7,35)                 1.0886         estimate D2E/DX2                !
 ! R16   R(8,9)                  1.2805         estimate D2E/DX2                !
 ! R17   R(9,10)                 1.4373         estimate D2E/DX2                !
 ! R18   R(9,13)                 1.6004         estimate D2E/DX2                !
 ! R19   R(10,11)                1.2859         estimate D2E/DX2                !
 ! R20   R(10,36)                1.077          estimate D2E/DX2                !
 ! R21   R(11,12)                1.7752         estimate D2E/DX2                !
 ! R22   R(11,22)                1.674          estimate D2E/DX2                !
 ! R23   R(12,37)                1.1282         estimate D2E/DX2                !
 ! R24   R(12,38)                1.1308         estimate D2E/DX2                !
 ! R25   R(13,14)                1.8596         estimate D2E/DX2                !
 ! R26   R(14,15)                1.9632         estimate D2E/DX2                !
 ! R27   R(15,16)                1.4613         estimate D2E/DX2                !
 ! R28   R(15,21)                1.6895         estimate D2E/DX2                !
 ! R29   R(16,17)                2.2034         estimate D2E/DX2                !
 ! R30   R(16,39)                1.0928         estimate D2E/DX2                !
 ! R31   R(17,18)                1.5082         estimate D2E/DX2                !
 ! R32   R(17,19)                1.5143         estimate D2E/DX2                !
 ! R33   R(17,20)                1.7473         estimate D2E/DX2                !
 ! R34   R(20,21)                1.3608         estimate D2E/DX2                !
 ! R35   R(20,40)                1.1096         estimate D2E/DX2                !
 ! R36   R(22,23)                1.4787         estimate D2E/DX2                !
 ! R37   R(22,30)                1.4507         estimate D2E/DX2                !
 ! R38   R(23,24)                1.4351         estimate D2E/DX2                !
 ! R39   R(24,25)                1.3859         estimate D2E/DX2                !
 ! R40   R(24,41)                1.1045         estimate D2E/DX2                !
 ! R41   R(25,26)                1.4032         estimate D2E/DX2                !
 ! R42   R(25,42)                1.0919         estimate D2E/DX2                !
 ! R43   R(26,27)                1.3442         estimate D2E/DX2                !
 ! R44   R(26,30)                1.5922         estimate D2E/DX2                !
 ! R45   R(27,28)                1.6534         estimate D2E/DX2                !
 ! R46   R(28,29)                1.6622         estimate D2E/DX2                !
 ! R47   R(29,30)                1.3398         estimate D2E/DX2                !
 ! A1    A(2,1,31)              98.7092         estimate D2E/DX2                !
 ! A2    A(2,1,32)              83.918          estimate D2E/DX2                !
 ! A3    A(31,1,32)             92.2048         estimate D2E/DX2                !
 ! A4    A(1,2,3)               90.9253         estimate D2E/DX2                !
 ! A5    A(1,2,33)             103.107          estimate D2E/DX2                !
 ! A6    A(3,2,33)             128.0807         estimate D2E/DX2                !
 ! A7    A(2,3,4)              105.3104         estimate D2E/DX2                !
 ! A8    A(2,3,34)             124.0995         estimate D2E/DX2                !
 ! A9    A(4,3,34)             101.1763         estimate D2E/DX2                !
 ! A10   A(3,4,5)              103.4335         estimate D2E/DX2                !
 ! A11   A(3,4,21)             122.9374         estimate D2E/DX2                !
 ! A12   A(5,4,21)             132.1811         estimate D2E/DX2                !
 ! A13   A(4,5,6)               96.6079         estimate D2E/DX2                !
 ! A14   A(5,6,7)              112.3468         estimate D2E/DX2                !
 ! A15   A(5,6,14)             163.4676         estimate D2E/DX2                !
 ! A16   A(6,7,8)              128.5681         estimate D2E/DX2                !
 ! A17   A(6,7,35)             107.8126         estimate D2E/DX2                !
 ! A18   A(8,7,14)             118.2534         estimate D2E/DX2                !
 ! A19   A(8,7,35)             117.8751         estimate D2E/DX2                !
 ! A20   A(14,7,35)             72.9249         estimate D2E/DX2                !
 ! A21   A(7,8,9)               97.0478         estimate D2E/DX2                !
 ! A22   A(8,9,10)              93.7208         estimate D2E/DX2                !
 ! A23   A(8,9,13)             119.8385         estimate D2E/DX2                !
 ! A24   A(10,9,13)            145.152          estimate D2E/DX2                !
 ! A25   A(9,10,11)            116.1118         estimate D2E/DX2                !
 ! A26   A(9,10,36)            120.05           estimate D2E/DX2                !
 ! A27   A(11,10,36)           123.8092         estimate D2E/DX2                !
 ! A28   A(10,11,12)            89.407          estimate D2E/DX2                !
 ! A29   A(10,11,22)           108.6636         estimate D2E/DX2                !
 ! A30   A(12,11,22)           160.778          estimate D2E/DX2                !
 ! A31   A(11,12,37)            97.1927         estimate D2E/DX2                !
 ! A32   A(11,12,38)            93.7096         estimate D2E/DX2                !
 ! A33   A(37,12,38)           102.1775         estimate D2E/DX2                !
 ! A34   A(9,13,14)            101.7379         estimate D2E/DX2                !
 ! A35   A(6,14,13)            118.6            estimate D2E/DX2                !
 ! A36   A(6,14,15)             85.6712         estimate D2E/DX2                !
 ! A37   A(7,14,13)             77.9732         estimate D2E/DX2                !
 ! A38   A(7,14,15)            125.8287         estimate D2E/DX2                !
 ! A39   A(13,14,15)           155.7243         estimate D2E/DX2                !
 ! A40   A(14,15,16)           154.7906         estimate D2E/DX2                !
 ! A41   A(14,15,21)           113.386          estimate D2E/DX2                !
 ! A42   A(16,15,21)            91.8084         estimate D2E/DX2                !
 ! A43   A(15,16,17)           121.128          estimate D2E/DX2                !
 ! A44   A(15,16,39)           152.4327         estimate D2E/DX2                !
 ! A45   A(17,16,39)            86.438          estimate D2E/DX2                !
 ! A46   A(16,17,18)           122.5938         estimate D2E/DX2                !
 ! A47   A(16,17,19)           122.6543         estimate D2E/DX2                !
 ! A48   A(16,17,20)            81.6631         estimate D2E/DX2                !
 ! A49   A(18,17,19)           112.7173         estimate D2E/DX2                !
 ! A50   A(18,17,20)           100.8764         estimate D2E/DX2                !
 ! A51   A(19,17,20)           102.7014         estimate D2E/DX2                !
 ! A52   A(17,20,21)           117.2289         estimate D2E/DX2                !
 ! A53   A(17,20,40)           113.1252         estimate D2E/DX2                !
 ! A54   A(21,20,40)           129.5949         estimate D2E/DX2                !
 ! A55   A(4,21,15)            127.3859         estimate D2E/DX2                !
 ! A56   A(4,21,20)            104.2849         estimate D2E/DX2                !
 ! A57   A(15,21,20)           128.1713         estimate D2E/DX2                !
 ! A58   A(11,22,23)           121.1778         estimate D2E/DX2                !
 ! A59   A(11,22,30)           130.1986         estimate D2E/DX2                !
 ! A60   A(23,22,30)           108.3413         estimate D2E/DX2                !
 ! A61   A(22,23,24)           125.995          estimate D2E/DX2                !
 ! A62   A(23,24,25)           128.1761         estimate D2E/DX2                !
 ! A63   A(23,24,41)           116.872          estimate D2E/DX2                !
 ! A64   A(25,24,41)           114.9427         estimate D2E/DX2                !
 ! A65   A(24,25,26)           110.5586         estimate D2E/DX2                !
 ! A66   A(24,25,42)           125.8069         estimate D2E/DX2                !
 ! A67   A(26,25,42)           123.6344         estimate D2E/DX2                !
 ! A68   A(25,26,27)           122.3481         estimate D2E/DX2                !
 ! A69   A(25,26,30)           124.3489         estimate D2E/DX2                !
 ! A70   A(27,26,30)           113.3            estimate D2E/DX2                !
 ! A71   A(26,27,28)           106.1953         estimate D2E/DX2                !
 ! A72   A(27,28,29)           102.3045         estimate D2E/DX2                !
 ! A73   A(28,29,30)           108.1727         estimate D2E/DX2                !
 ! A74   A(22,30,26)           122.4331         estimate D2E/DX2                !
 ! A75   A(22,30,29)           127.5941         estimate D2E/DX2                !
 ! A76   A(26,30,29)           109.9695         estimate D2E/DX2                !
 ! D1    D(31,1,2,3)           165.6481         estimate D2E/DX2                !
 ! D2    D(31,1,2,33)          -64.775          estimate D2E/DX2                !
 ! D3    D(32,1,2,3)            74.3407         estimate D2E/DX2                !
 ! D4    D(32,1,2,33)         -156.0825         estimate D2E/DX2                !
 ! D5    D(1,2,3,4)             75.824          estimate D2E/DX2                !
 ! D6    D(1,2,3,34)           -39.519          estimate D2E/DX2                !
 ! D7    D(33,2,3,4)           -31.6809         estimate D2E/DX2                !
 ! D8    D(33,2,3,34)         -147.0239         estimate D2E/DX2                !
 ! D9    D(2,3,4,5)            -52.0969         estimate D2E/DX2                !
 ! D10   D(2,3,4,21)           115.6779         estimate D2E/DX2                !
 ! D11   D(34,3,4,5)            78.1878         estimate D2E/DX2                !
 ! D12   D(34,3,4,21)         -114.0373         estimate D2E/DX2                !
 ! D13   D(3,4,5,6)            175.6251         estimate D2E/DX2                !
 ! D14   D(21,4,5,6)             9.5013         estimate D2E/DX2                !
 ! D15   D(3,4,21,15)         -171.7549         estimate D2E/DX2                !
 ! D16   D(3,4,21,20)            3.9481         estimate D2E/DX2                !
 ! D17   D(5,4,21,15)           -7.8921         estimate D2E/DX2                !
 ! D18   D(5,4,21,20)          167.8109         estimate D2E/DX2                !
 ! D19   D(4,5,6,7)           -174.0037         estimate D2E/DX2                !
 ! D20   D(4,5,6,14)             4.0093         estimate D2E/DX2                !
 ! D21   D(5,6,7,8)            -80.6873         estimate D2E/DX2                !
 ! D22   D(5,6,7,35)           127.1473         estimate D2E/DX2                !
 ! D23   D(5,6,14,13)          168.1136         estimate D2E/DX2                !
 ! D24   D(5,6,14,15)          -12.3757         estimate D2E/DX2                !
 ! D25   D(6,7,8,9)           -119.9035         estimate D2E/DX2                !
 ! D26   D(14,7,8,9)           -54.7668         estimate D2E/DX2                !
 ! D27   D(35,7,8,9)            29.9053         estimate D2E/DX2                !
 ! D28   D(8,7,14,13)           48.6746         estimate D2E/DX2                !
 ! D29   D(8,7,14,15)         -136.6085         estimate D2E/DX2                !
 ! D30   D(35,7,14,13)         -64.2916         estimate D2E/DX2                !
 ! D31   D(35,7,14,15)         110.4253         estimate D2E/DX2                !
 ! D32   D(7,8,9,10)          -137.3329         estimate D2E/DX2                !
 ! D33   D(7,8,9,13)            32.8624         estimate D2E/DX2                !
 ! D34   D(8,9,10,11)         -174.9715         estimate D2E/DX2                !
 ! D35   D(8,9,10,36)            3.1472         estimate D2E/DX2                !
 ! D36   D(13,9,10,11)          20.0105         estimate D2E/DX2                !
 ! D37   D(13,9,10,36)        -161.8708         estimate D2E/DX2                !
 ! D38   D(8,9,13,14)           -2.5025         estimate D2E/DX2                !
 ! D39   D(10,9,13,14)         160.1962         estimate D2E/DX2                !
 ! D40   D(9,10,11,12)         -11.6049         estimate D2E/DX2                !
 ! D41   D(9,10,11,22)         175.0719         estimate D2E/DX2                !
 ! D42   D(36,10,11,12)        170.355          estimate D2E/DX2                !
 ! D43   D(36,10,11,22)         -2.9682         estimate D2E/DX2                !
 ! D44   D(10,11,12,37)       -125.3965         estimate D2E/DX2                !
 ! D45   D(10,11,12,38)        131.8215         estimate D2E/DX2                !
 ! D46   D(22,11,12,37)         35.0564         estimate D2E/DX2                !
 ! D47   D(22,11,12,38)        -67.7256         estimate D2E/DX2                !
 ! D48   D(10,11,22,23)        -39.2979         estimate D2E/DX2                !
 ! D49   D(10,11,22,30)        133.8455         estimate D2E/DX2                !
 ! D50   D(12,11,22,23)        161.3812         estimate D2E/DX2                !
 ! D51   D(12,11,22,30)        -25.4754         estimate D2E/DX2                !
 ! D52   D(9,13,14,6)           -9.6118         estimate D2E/DX2                !
 ! D53   D(9,13,14,7)          -18.887          estimate D2E/DX2                !
 ! D54   D(9,13,14,15)         171.5749         estimate D2E/DX2                !
 ! D55   D(6,14,15,16)        -170.242          estimate D2E/DX2                !
 ! D56   D(6,14,15,21)           7.6665         estimate D2E/DX2                !
 ! D57   D(7,14,15,16)        -158.6339         estimate D2E/DX2                !
 ! D58   D(7,14,15,21)          19.2746         estimate D2E/DX2                !
 ! D59   D(13,14,15,16)          8.7131         estimate D2E/DX2                !
 ! D60   D(13,14,15,21)       -173.3784         estimate D2E/DX2                !
 ! D61   D(14,15,16,17)        177.9387         estimate D2E/DX2                !
 ! D62   D(14,15,16,39)         -1.442          estimate D2E/DX2                !
 ! D63   D(21,15,16,17)         -0.1407         estimate D2E/DX2                !
 ! D64   D(21,15,16,39)       -179.5215         estimate D2E/DX2                !
 ! D65   D(14,15,21,4)          -4.2566         estimate D2E/DX2                !
 ! D66   D(14,15,21,20)       -178.9572         estimate D2E/DX2                !
 ! D67   D(16,15,21,4)         174.8523         estimate D2E/DX2                !
 ! D68   D(16,15,21,20)          0.1517         estimate D2E/DX2                !
 ! D69   D(15,16,17,18)         97.738          estimate D2E/DX2                !
 ! D70   D(15,16,17,19)        -99.6744         estimate D2E/DX2                !
 ! D71   D(15,16,17,20)          0.1147         estimate D2E/DX2                !
 ! D72   D(39,16,17,18)        -82.5491         estimate D2E/DX2                !
 ! D73   D(39,16,17,19)         80.0384         estimate D2E/DX2                !
 ! D74   D(39,16,17,20)        179.8276         estimate D2E/DX2                !
 ! D75   D(16,17,20,21)         -0.0093         estimate D2E/DX2                !
 ! D76   D(16,17,20,40)       -177.6636         estimate D2E/DX2                !
 ! D77   D(18,17,20,21)       -121.7607         estimate D2E/DX2                !
 ! D78   D(18,17,20,40)         60.585          estimate D2E/DX2                !
 ! D79   D(19,17,20,21)        121.7251         estimate D2E/DX2                !
 ! D80   D(19,17,20,40)        -55.9292         estimate D2E/DX2                !
 ! D81   D(17,20,21,4)        -175.7457         estimate D2E/DX2                !
 ! D82   D(17,20,21,15)         -0.0887         estimate D2E/DX2                !
 ! D83   D(40,20,21,4)           1.4545         estimate D2E/DX2                !
 ! D84   D(40,20,21,15)        177.1114         estimate D2E/DX2                !
 ! D85   D(11,22,23,24)        178.6059         estimate D2E/DX2                !
 ! D86   D(30,22,23,24)          4.1187         estimate D2E/DX2                !
 ! D87   D(11,22,30,26)       -177.6008         estimate D2E/DX2                !
 ! D88   D(11,22,30,29)          1.6679         estimate D2E/DX2                !
 ! D89   D(23,22,30,26)         -3.7782         estimate D2E/DX2                !
 ! D90   D(23,22,30,29)        175.4904         estimate D2E/DX2                !
 ! D91   D(22,23,24,25)         -1.7272         estimate D2E/DX2                !
 ! D92   D(22,23,24,41)        177.1034         estimate D2E/DX2                !
 ! D93   D(23,24,25,26)         -1.3139         estimate D2E/DX2                !
 ! D94   D(23,24,25,42)        178.5904         estimate D2E/DX2                !
 ! D95   D(41,24,25,26)        179.8365         estimate D2E/DX2                !
 ! D96   D(41,24,25,42)         -0.2593         estimate D2E/DX2                !
 ! D97   D(24,25,26,27)       -179.2473         estimate D2E/DX2                !
 ! D98   D(24,25,26,30)          1.4242         estimate D2E/DX2                !
 ! D99   D(42,25,26,27)          0.846          estimate D2E/DX2                !
 ! D100  D(42,25,26,30)       -178.4825         estimate D2E/DX2                !
 ! D101  D(25,26,27,28)        179.2014         estimate D2E/DX2                !
 ! D102  D(30,26,27,28)         -1.4022         estimate D2E/DX2                !
 ! D103  D(25,26,30,22)          1.345          estimate D2E/DX2                !
 ! D104  D(25,26,30,29)       -178.0385         estimate D2E/DX2                !
 ! D105  D(27,26,30,22)       -178.0374         estimate D2E/DX2                !
 ! D106  D(27,26,30,29)          2.5791         estimate D2E/DX2                !
 ! D107  D(26,27,28,29)          0.0563         estimate D2E/DX2                !
 ! D108  D(27,28,29,30)          1.5089         estimate D2E/DX2                !
 ! D109  D(28,29,30,22)        178.3323         estimate D2E/DX2                !
 ! D110  D(28,29,30,26)         -2.3245         estimate D2E/DX2                !
 --------------------------------------------------------------------------------
 Trust Radius=3.00D-01 FncErr=1.00D-07 GrdErr=1.00D-06
 Number of steps in this run=    243 maximum allowed number of steps=    252.
 GradGradGradGradGradGradGradGradGradGradGradGradGradGradGradGradGradGrad

                          Input orientation:                          
 ---------------------------------------------------------------------
 Center     Atomic      Atomic             Coordinates (Angstroms)
 Number     Number       Type             X           Y           Z
 ---------------------------------------------------------------------
      1          6           0        2.756730   -0.737410    0.495690
      2          6           0        2.342030    0.352880   -0.410030
      3          6           0        3.209030   -0.072630   -1.354800
      4          6           0        2.605210   -1.223470   -1.926750
      5          6           0        2.322420   -1.967630   -0.886390
      6          6           0        1.535760   -3.165950   -1.717290
      7          6           0        1.015890   -4.016980   -0.951180
      8          7           0        1.562180   -4.983910   -0.373480
      9          6           0        0.852310   -5.906820   -0.906470
     10          6           0        0.695950   -6.628220    0.326840
     11          6           0        0.087430   -7.758350    0.248250
     12          6           0       -0.408610   -7.355180   -1.407910
     13          6           0        0.314710   -5.733400   -2.403820
     14          6           0        0.933660   -4.033310   -2.833470
     15          6           0        1.300470   -2.507440   -4.013080
     16          6           0        1.219490   -1.751790   -5.261170
     17         14           0        2.148860    0.236980   -5.450980
     18          1           0        3.505330    0.443460   -6.077190
     19          1           0        1.358590    1.523020   -5.330320
     20          6           0        2.597240   -0.095210   -3.795150
     21          6           0        2.195530   -1.283580   -3.267750
     22          6           0        0.128070   -8.494310    1.751240
     23          7           0        1.333780   -8.426160    2.604650
     24          6           0        1.472000   -8.992430    3.916080
     25          6           0        0.522280   -9.676600    4.658160
     26          6           0       -0.693240   -9.744420    3.960300
     27          7           0       -1.782710  -10.344450    4.470040
     28         16           0       -2.975650  -10.173110    3.338110
     29          7           0       -2.200450   -9.334020    2.130740
     30          6           0       -0.927100   -9.146860    2.503110
     31          1           0        2.304490   -0.348930    1.447750
     32          1           0        3.754160   -0.064360    0.639840
     33          1           0        1.241080    0.272700   -0.410630
     34          1           0        4.244690   -0.456180   -1.134510
     35          1           0       -0.033380   -4.114110   -1.224460
     36          1           0        1.105380   -6.230260    1.240080
     37          1           0       -1.517590   -7.504150   -1.263440
     38          1           0       -0.086130   -8.355030   -1.826320
     39          1           0        0.895050   -1.623800   -6.296860
     40          1           0        3.146790    0.741390   -3.316250
     41          1           0        2.459510   -8.893760    4.400950
     42          1           0        0.676590  -10.111490    5.647790
 ---------------------------------------------------------------------
                    Distance matrix (angstroms):
                    1          2          3          4          5
     1  C    0.000000
     2  C    1.476833   0.000000
     3  C    2.017628   1.351051   0.000000
     4  C    2.475364   2.203312   1.419915   0.000000
     5  C    1.900582   2.368981   2.143947   1.309997   0.000000
     6  C    3.505118   3.839422   3.535514   2.227291   1.656864
     7  C    3.984914   4.598605   4.531078   3.358776   2.431266
     8  N    4.496128   5.393592   5.272170   4.200175   3.152616
     9  C    5.684687   6.453647   6.308162   5.103665   4.204622
    10  C    6.243154   7.210292   7.219366   6.159161   5.083152
    11  C    7.515317   8.444442   8.448932   7.333110   6.309915
    12  C    7.578783   8.244754   8.131769   6.852020   6.062689
    13  C    6.271406   6.717740   6.443745   5.080694   4.529295
    14  C    5.026912   5.205308   4.801121   3.392849   3.160191
    15  C    5.057935   4.716805   4.078891   2.775554   3.333462
    16  C    6.044296   5.405857   4.694419   3.649342   4.516829
    17  Si   6.056552   5.045981   4.242465   3.842052   5.072072
    18  H    6.719941   5.786033   4.759738   4.562348   5.844402
    19  H    6.403650   5.152246   4.666368   4.547698   5.732549
    20  C    4.341563   3.424172   2.515970   2.182648   3.470211
    21  C    3.844051   3.296366   2.480516   1.403471   2.480907
    22  C    8.285877   9.372592   9.490231   8.516393   7.373589
    23  N    8.098727   9.336831   9.432670   8.604003   7.407927
    24  C    9.027456  10.334747  10.505345   9.786704   8.551886
    25  C   10.110788  11.383695  11.645194  10.915816   9.664924
    26  C   10.248514  11.413506  11.705619  10.869394   9.646920
    27  N   11.344478  12.460395  12.820161  11.973514  10.757070
    28  S   11.400525  12.374277  12.739441  11.788164  10.641703
    29  N   10.057272  10.996621  11.277624  10.263460   9.155497
    30  C    9.397829  10.460337  10.692647   9.740687   8.578428
    31  H    1.123324   1.986276   2.957841   3.498929   2.840549
    32  H    1.211875   1.808432   2.067807   3.041547   2.828727
    33  H    2.034437   1.103866   2.209873   2.529426   2.532730
    34  H    2.225010   2.190791   1.126157   1.975923   2.457878
    35  H    4.705925   5.124438   5.183027   3.976326   3.204912
    36  H    5.783811   6.898543   7.005366   6.111158   4.916612
    37  H    8.194701   8.795334   8.807768   7.542175   6.748400
    38  H    8.455869   9.150384   8.926285   7.623158   6.890824
    39  H    7.098611   6.376189   5.673146   4.709859   5.606139
    40  H    4.107296   3.040509   2.124568   2.466717   3.731299
    41  H    9.047952  10.423995  10.559487   9.944565   8.714702
    42  H   10.896995  12.205487  12.499129  11.835968  10.570086
                    6          7          8          9         10
     6  C    0.000000
     7  C    1.257554   0.000000
     8  N    2.260863   1.251848   0.000000
     9  C    2.938861   1.897433   1.280530   0.000000
    10  C    4.107440   2.924769   1.986091   1.437331   0.000000
    11  C    5.201072   4.037143   3.202960   2.312268   1.285950
    12  C    4.628816   3.658057   3.252227   1.984719   2.181257
    13  C    2.924737   2.355401   2.498039   1.600358   2.898715
    14  C    1.536456   1.884156   2.711130   2.688863   4.096050
    15  C    2.399927   3.425628   4.409998   4.626841   6.015079
    16  C    3.828702   4.873249   5.869715   6.030133   7.435020
    17  Si   5.088837   6.295077   7.306360   7.751122   9.089836
    18  H    5.992977   7.236630   8.109530   8.608189   9.945495
    19  H    5.922146   7.070071   8.182411   8.661945   9.944107
    20  C    3.856642   5.095990   6.056283   6.720421   7.955245
    21  C    2.526369   3.772204   4.740293   5.362297   6.613244
    22  C    6.511813   5.304506   4.346725   3.779292   2.415304
    23  N    6.811004   5.673257   4.557467   4.348201   2.971167
    24  C    8.104739   6.975196   5.871685   5.758645   4.367423
    25  C    9.168537   7.983711   6.958458   6.729433   5.299350
    26  C    8.971050   7.736106   6.821365   6.387593   4.984233
    27  N   10.041223   8.789691   7.961367   7.452701   6.092637
    28  S    9.747317   8.498726   7.829151   7.132389   5.925761
    29  N    8.173842   6.936425   6.273114   5.503607   4.354830
    30  C    7.723260   6.482515   5.639276   5.028856   3.703240
    31  H    4.306277   4.568364   5.034972   6.208166   6.578246
    32  H    4.482992   5.064847   5.480289   6.704189   7.248095
    33  H    3.690327   4.329464   5.266539   6.211559   6.961589
    34  H    3.875666   4.810203   5.317459   6.424151   7.267956
    35  H    1.898444   1.088616   2.006622   2.024691   3.042894
    36  H    4.280334   3.115804   2.089409   2.185483   1.077039
    37  H    5.324369   4.321618   4.077821   2.880159   2.862866
    38  H    5.437735   4.560592   4.023943   2.778583   2.868731
    39  H    4.874546   5.858174   6.842648   6.884939   8.304051
    40  H    4.518783   5.725066   6.629475   7.434405   8.578454
    41  H    8.431725   7.383246   6.235969   6.298699   4.984093
    42  H   10.159877   8.989137   7.958143   7.788996   6.359721
                   11         12         13         14         15
    11  C    0.000000
    12  C    1.775237   0.000000
    13  C    3.344481   2.035976   0.000000
    14  C    4.908057   3.855999   1.859571   0.000000
    15  C    6.870404   5.762677   3.737413   1.963239   0.000000
    16  C    8.228854   6.992589   4.983603   3.343764   1.461264
    17  Si  10.032747   8.973737   6.949441   5.153974   3.212345
    18  H   10.907012   9.896458   7.863034   6.097268   4.222531
    19  H   10.903216   9.865634   7.893651   6.106360   4.240649
    20  C    9.020640   8.212260   6.239786   4.381890   2.747355
    21  C    7.663484   6.863299   4.907622   3.056457   1.689521
    22  C    1.673998   3.400863   4.992192   6.447407   8.393123
    23  N    2.748087   4.503727   5.777044   7.002169   8.878441
    24  C    4.110105   5.878958   7.204286   8.392801  10.244808
    25  C    4.828673   6.561460   8.090950   9.388316  11.277980
    26  C    4.281733   5.882785   7.589879   9.023242  10.950961
    27  N    5.292339   6.736036   8.538788  10.027483  11.953579
    28  S    4.976018   6.087292   7.969144   9.542969  11.449353
    29  N    3.355726   4.432668   6.312902   7.909713   9.828792
    30  C    2.835776   4.333016   6.105060   7.621674   9.565809
    31  H    7.826472   8.037614   6.912766   5.812287   5.957171
    32  H    8.532042   8.641643   7.296006   5.980942   5.799905
    33  H    8.140196   7.867693   6.395640   4.950392   4.550863
    34  H    8.515663   8.326113   6.701115   5.161903   4.600246
    35  H    3.932424   3.267872   2.033263   1.878991   3.483812
    36  H    2.086866   3.251071   3.761653   4.631402   6.441517
    37  H    2.219440   1.128229   2.791656   4.529939   6.361532
    38  H    2.165639   1.130823   2.714244   4.553195   6.395224
    39  H    9.006854   7.645265   5.690463   4.219277   2.482103
    40  H    9.711381   9.046385   7.125736   5.284769   3.801232
    41  H    4.915367   6.658543   7.803393   8.848109  10.626587
    42  H    5.919410   7.652307   9.172080  10.437535  12.310289
                   16         17         18         19         20
    16  C    0.000000
    17  Si   2.203398   0.000000
    18  H    3.272625   1.508239   0.000000
    19  H    3.278492   1.514260   2.516298   0.000000
    20  C    2.606083   1.747332   2.514458   2.551405   0.000000
    21  C    2.268391   2.660972   3.548408   3.582132   1.360788
    22  C    9.789110  11.497434  12.352082  12.329216  10.363596
    23  N   10.316560  11.857804  12.600005  12.725979  10.581044
    24  C   11.692414  13.167458  13.893736  14.002981  11.827500
    25  C   12.715417  14.252001  15.051975  15.029991  12.944765
    26  C   12.352173  14.009928  14.905438  14.747231  12.809431
    27  N   13.324543  15.028325  15.987071  15.708331  13.876031
    28  S   12.746193  14.556053  15.600081  15.189693  13.546386
    29  N   11.127737  12.961598  13.983031  13.645860  11.978715
    30  C   10.935216  12.680123  13.610372  13.432548  11.576762
    31  H    6.939369   6.925315   7.661241   7.095150   5.257193
    32  H    6.640323   6.306020   6.740793   6.625809   4.583509
    33  H    5.256117   5.121569   6.104579   5.077446   3.664629
    34  H    5.278235   4.848184   5.078001   5.463664   3.150142
    35  H    4.842031   6.446521   7.539423   7.111463   5.447951
    36  H    7.895313   9.363991  10.190228  10.166003   8.075768
    37  H    7.520844   9.534330  10.562501  10.310273   8.844986
    38  H    7.556826   9.589368  10.410663  10.580222   8.905133
    39  H    1.092839   2.397927   3.336972   3.324386   3.390072
    40  H    3.703126   2.409848   2.800018   2.804475   1.109617
    41  H   12.078988  13.436050  14.073693  14.297515  12.025369
    42  H   13.754444  15.246019  16.027598  16.010804  13.899060
                   21         22         23         24         25
    21  C    0.000000
    22  C    9.025479   0.000000
    23  N    9.286773   1.478746   0.000000
    24  C   10.562068   2.596306   1.435136   0.000000
    25  C   11.664587   3.162814   2.537526   1.385907   0.000000
    26  C   11.496761   2.667821   2.772076   2.292533   1.403245
    27  N   12.561813   3.803416   4.107557   3.567628   2.407154
    28  S   12.223021   3.869057   4.707546   4.637849   3.771547
    29  N   10.643210   2.504224   3.679617   4.097684   3.730747
    30  C   10.241329   1.450694   2.375142   2.788550   2.650579
    31  H    4.808470   8.436594   8.217198   9.027502  10.024392
    32  H    4.380078   9.243798   8.924036   9.780206  10.908121
    33  H    3.390592   9.097963   9.207099  10.228215  11.189186
    34  H    3.071540   9.480804   9.272286  10.298730  11.507715
    35  H    4.141856   5.297831   5.926634   7.244952   8.115126
    36  H    6.780752   2.518401   2.595418   3.863285   4.888817
    37  H    7.516649   3.574480   4.893111   6.162796   6.629175
    38  H    7.568956   3.586672   4.653461   5.984079   6.645690
    39  H    3.313986  10.609622  11.211667  12.606892  13.601434
    40  H    2.237801  10.958571  11.062913  12.241682  13.379603
    41  H   10.807103   3.551920   2.170855   1.104541   2.105197
    42  H   12.638276   4.254321   3.540189   2.209930   1.091929
                   26         27         28         29         30
    26  C    0.000000
    27  N    1.344178   0.000000
    28  S    2.404224   1.653399   0.000000
    29  N    2.405702   2.582208   1.662152   0.000000
    30  C    1.592222   2.456645   2.438641   1.339817   0.000000
    31  H   10.177157  11.213825  11.312288  10.074364   9.431889
    32  H   11.158332  12.288515  12.440170  11.117858  10.386423
    33  H   11.099068  12.070133  11.872186  10.516262  10.095494
    34  H   11.688098  12.865396  12.905672  11.446298  10.747447
    35  H    7.682288   8.620013   8.135446   6.572748   6.326301
    36  H    4.794158   5.974970   6.050008   4.621159   3.772635
    37  H    5.743328   6.403935   5.515755   3.916016   4.151394
    38  H    5.981969   6.817648   6.190806   4.592069   4.480869
    39  H   13.178637  14.111919  13.450118  11.834444  11.719903
    40  H   13.328399  14.416037  14.173605  12.640275  12.175345
    41  H    3.295091   4.483939   5.683954   5.202202   3.890371
    42  H    2.204268   2.736699   4.321721   4.609931   3.659419
                   31         32         33         34         35
    31  H    0.000000
    32  H    1.683818   0.000000
    33  H    2.229538   2.744571   0.000000
    34  H    3.231709   1.882143   3.174420   0.000000
    35  H    5.175222   5.849919   4.640115   5.629425   0.000000
    36  H    6.005917   6.737555   6.710570   6.988129   3.442212
    37  H    8.553129   9.314736   8.295598   9.104635   3.700915
    38  H    8.973975   9.463878   8.843268   9.034735   4.283739
    39  H    7.974384   7.663170   6.193880   6.263648   5.726506
    40  H    4.959230   4.082742   3.506284   2.720211   6.169680
    41  H    9.042098   9.684027  10.424004  10.247973   7.791328
    42  H   10.751650  11.640267  12.035552  12.327041   9.148795
                   36         37         38         39         40
    36  H    0.000000
    37  H    3.843225   0.000000
    38  H    3.916268   1.757814   0.000000
    39  H    8.835676   8.107692   8.139896   0.000000
    40  H    8.575045   9.693266   9.768138   4.421368   0.000000
    41  H    4.349598   7.059296   6.749030  13.028545  12.363804
    42  H    5.888609   7.705696   7.715518  14.654804  14.291288
                   41         42
    41  H    0.000000
    42  H    2.493247   0.000000
 Stoichiometry    C22H14N4SSi
 Framework group  C1[X(C22H14N4SSi)]
 Deg. of freedom   120
 Full point group                 C1      NOp   1
 Largest Abelian subgroup         C1      NOp   1
 Largest concise Abelian subgroup C1      NOp   1
                         Standard orientation:                         
 ---------------------------------------------------------------------
 Center     Atomic      Atomic             Coordinates (Angstroms)
 Number     Number       Type             X           Y           Z
 ---------------------------------------------------------------------
      1          6           0       -3.477376    3.277876    0.750546
      2          6           0       -4.717217    2.795316    1.391614
      3          6           0       -5.173296    2.328698    0.208569
      4          6           0       -4.441019    1.136101   -0.031517
      5          6           0       -3.193844    1.511013    0.110220
      6          6           0       -2.520849    0.008306   -0.074574
      7          6           0       -1.280527    0.011094    0.132872
      8          7           0       -0.360121    0.353136   -0.643649
      9          6           0        0.248630   -0.773099   -0.671475
     10          6           0        1.552486   -0.176920   -0.569242
     11          6           0        2.551455   -0.981556   -0.660274
     12          6           0        1.436587   -2.354094   -0.503181
     13          6           0       -0.586741   -2.132932   -0.552496
     14          6           0       -2.318005   -1.494445   -0.322143
     15          6           0       -4.271188   -1.630399   -0.177573
     16          6           0       -5.542687   -2.342747   -0.072009
     17         14           0       -7.447688   -1.251360    0.114560
     18          1           0       -8.348050   -0.981044   -1.064872
     19          1           0       -8.146868   -1.049231    1.442444
     20          6           0       -6.374250    0.124907    0.032162
     21          6           0       -5.043363   -0.130087   -0.092189
     22          6           0        3.964545   -0.084118   -0.653220
     23          7           0        4.057273    1.203508   -1.374406
     24          6           0        5.202645    2.067304   -1.414332
     25          6           0        6.422291    1.902724   -0.777060
     26          6           0        6.420786    0.730854   -0.005168
     27          7           0        7.482625    0.349578    0.725545
     28         16           0        7.042776   -1.054018    1.480648
     29          7           0        5.487749   -1.276285    0.937292
     30          6           0        5.195245   -0.281240    0.089097
     31          1           0       -3.106013    3.942048    1.576876
     32          1           0       -4.196594    4.148438    0.310670
     33          1           0       -4.344024    2.215809    2.253832
     34          1           0       -5.045123    2.864966   -0.773378
     35          1           0       -1.064387   -0.760567    0.869694
     36          1           0        1.650444    0.889582   -0.455268
     37          1           0        1.947825   -2.852050    0.370648
     38          1           0        1.877726   -2.907960   -1.384878
     39          1           0       -6.140119   -3.256595   -0.024542
     40          1           0       -6.901897    1.095794    0.133247
     41          1           0        5.123460    2.972762   -2.041936
     42          1           0        7.278291    2.576487   -0.852000
 ---------------------------------------------------------------------
 Rotational constants (GHZ):      0.4395210      0.0516266      0.0482486
 Standard basis: 6-31++G(d,p) (6D, 7F)
 There are   624 symmetry adapted basis functions of A   symmetry.
 Integral buffers will be    131072 words long.
 Raffenetti 2 integral format.
 Two-electron integral symmetry is turned on.
   624 basis functions,  1056 primitive gaussians,   624 cartesian basis functions
   102 alpha electrons      102 beta electrons
       nuclear repulsion energy      2404.8036731761 Hartrees.
 NAtoms=   42 NActive=   42 NUniq=   42 SFac= 1.00D+00 NAtFMM=   60 NAOKFM=F Big=F
 One-electron integrals computed using PRISM.
 NBasis=   624 RedAO= T  NBF=   624
 NBsUse=   618 1.00D-06 NBFU=   618
 Harris functional with IExCor=  402 diagonalized for initial guess.
 ExpMin= 3.31D-02 ExpMax= 2.19D+04 ExpMxC= 3.30D+03 IAcc=3 IRadAn=         5 AccDes= 0.00D+00
 HarFok:  IExCor=  402 AccDes= 0.00D+00 IRadAn=         5 IDoV= 1
 ScaDFX=  1.000000  1.000000  1.000000  1.000000
 FoFCou: FMM=F IPFlag=           0 FMFlag=      100000 FMFlg1=           0
         NFxFlg=           0 DoJE=T BraDBF=F KetDBF=T FulRan=T
         Omega=  0.000000  0.000000  1.000000  0.000000  0.000000 ICntrl=     500 IOpCl=  0
         NMat0=    1 NMatS0=    1 NMatT0=    0 NMatD0=    1 NMtDS0=    0 NMtDT0=    0
         I1Cent=           4 NGrid=           0.
 Petite list used in FoFCou.
 Initial guess orbital symmetries:
       Occupied  (A) (A) (A) (A) (A) (A) (A) (A) (A) (A) (A) (A)
                 (A) (A) (A) (A) (A) (A) (A) (A) (A) (A) (A) (A)
                 (A) (A) (A) (A) (A) (A) (A) (A) (A) (A) (A) (A)
                 (A) (A) (A) (A) (A) (A) (A) (A) (A) (A) (A) (A)
                 (A) (A) (A) (A) (A) (A) (A) (A) (A) (A) (A) (A)
                 (A) (A) (A) (A) (A) (A) (A) (A) (A) (A) (A) (A)
                 (A) (A) (A) (A) (A) (A) (A) (A) (A) (A) (A) (A)
                 (A) (A) (A) (A) (A) (A) (A) (A) (A) (A) (A) (A)
                 (A) (A) (A) (A) (A) (A)
       Virtual   (A) (A) (A) (A) (A) (A) (A) (A) (A) (A) (A) (A)
                 (A) (A) (A) (A) (A) (A) (A) (A) (A) (A) (A) (A)
                 (A) (A) (A) (A) (A) (A) (A) (A) (A) (A) (A) (A)
                 (A) (A) (A) (A) (A) (A) (A) (A) (A) (A) (A) (A)
                 (A) (A) (A) (A) (A) (A) (A) (A) (A) (A) (A) (A)
                 (A) (A) (A) (A) (A) (A) (A) (A) (A) (A) (A) (A)
                 (A) (A) (A) (A) (A) (A) (A) (A) (A) (A) (A) (A)
                 (A) (A) (A) (A) (A) (A) (A) (A) (A) (A) (A) (A)
                 (A) (A) (A) (A) (A) (A) (A) (A) (A) (A) (A) (A)
                 (A) (A) (A) (A) (A) (A) (A) (A) (A) (A) (A) (A)
                 (A) (A) (A) (A) (A) (A) (A) (A) (A) (A) (A) (A)
                 (A) (A) (A) (A) (A) (A) (A) (A) (A) (A) (A) (A)
                 (A) (A) (A) (A) (A) (A) (A) (A) (A) (A) (A) (A)
                 (A) (A) (A) (A) (A) (A) (A) (A) (A) (A) (A) (A)
                 (A) (A) (A) (A) (A) (A) (A) (A) (A) (A) (A) (A)
                 (A) (A) (A) (A) (A) (A) (A) (A) (A) (A) (A) (A)
                 (A) (A) (A) (A) (A) (A) (A) (A) (A) (A) (A) (A)
                 (A) (A) (A) (A) (A) (A) (A) (A) (A) (A) (A) (A)
                 (A) (A) (A) (A) (A) (A) (A) (A) (A) (A) (A) (A)
                 (A) (A) (A) (A) (A) (A) (A) (A) (A) (A) (A) (A)
                 (A) (A) (A) (A) (A) (A) (A) (A) (A) (A) (A) (A)
                 (A) (A) (A) (A) (A) (A) (A) (A) (A) (A) (A) (A)
                 (A) (A) (A) (A) (A) (A) (A) (A) (A) (A) (A) (A)
                 (A) (A) (A) (A) (A) (A) (A) (A) (A) (A) (A) (A)
                 (A) (A) (A) (A) (A) (A) (A) (A) (A) (A) (A) (A)
                 (A) (A) (A) (A) (A) (A) (A) (A) (A) (A) (A) (A)
                 (A) (A) (A) (A) (A) (A) (A) (A) (A) (A) (A) (A)
                 (A) (A) (A) (A) (A) (A) (A) (A) (A) (A) (A) (A)
                 (A) (A) (A) (A) (A) (A) (A) (A) (A) (A) (A) (A)
                 (A) (A) (A) (A) (A) (A) (A) (A) (A) (A) (A) (A)
                 (A) (A) (A) (A) (A) (A) (A) (A) (A) (A) (A) (A)
                 (A) (A) (A) (A) (A) (A) (A) (A) (A) (A) (A) (A)
                 (A) (A) (A) (A) (A) (A) (A) (A) (A) (A) (A) (A)
                 (A) (A) (A) (A) (A) (A) (A) (A) (A) (A) (A) (A)
                 (A) (A) (A) (A) (A) (A) (A) (A) (A) (A) (A) (A)
                 (A) (A) (A) (A) (A) (A) (A) (A) (A) (A) (A) (A)
                 (A) (A) (A) (A) (A) (A) (A) (A) (A) (A) (A) (A)
                 (A) (A) (A) (A) (A) (A) (A) (A) (A) (A) (A) (A)
                 (A) (A) (A) (A) (A) (A) (A) (A) (A) (A) (A) (A)
                 (A) (A) (A) (A) (A) (A) (A) (A) (A) (A) (A) (A)
                 (A) (A) (A) (A) (A) (A) (A) (A) (A) (A) (A) (A)
                 (A) (A) (A) (A) (A) (A) (A) (A) (A) (A) (A) (A)
                 (A) (A) (A) (A) (A) (A) (A) (A) (A) (A) (A) (A)
 The electronic state of the initial guess is 1-A.
 Requested convergence on RMS density matrix=1.00D-08 within 128 cycles.
 Requested convergence on MAX density matrix=1.00D-06.
 Requested convergence on             energy=1.00D-06.
 No special actions if energy rises.
 EnCoef did     5 forward-backward iterations
 EnCoef did     3 forward-backward iterations
 EnCoef did     6 forward-backward iterations
 EnCoef did     2 forward-backward iterations
 EnCoef did     8 forward-backward iterations
 EnCoef did     5 forward-backward iterations
 Restarting incremental Fock formation.
 SCF Done:  E(RB3LYP) =  -1752.01602172     A.U. after   27 cycles
             Convg  =    0.9066D-08             -V/T =  2.0071

 **********************************************************************

            Population analysis using the SCF density.

 **********************************************************************

 Orbital symmetries:
       Occupied  (A) (A) (A) (A) (A) (A) (A) (A) (A) (A) (A) (A)
                 (A) (A) (A) (A) (A) (A) (A) (A) (A) (A) (A) (A)
                 (A) (A) (A) (A) (A) (A) (A) (A) (A) (A) (A) (A)
                 (A) (A) (A) (A) (A) (A) (A) (A) (A) (A) (A) (A)
                 (A) (A) (A) (A) (A) (A) (A) (A) (A) (A) (A) (A)
                 (A) (A) (A) (A) (A) (A) (A) (A) (A) (A) (A) (A)
                 (A) (A) (A) (A) (A) (A) (A) (A) (A) (A) (A) (A)
                 (A) (A) (A) (A) (A) (A) (A) (A) (A) (A) (A) (A)
                 (A) (A) (A) (A) (A) (A)
       Virtual   (A) (A) (A) (A) (A) (A) (A) (A) (A) (A) (A) (A)
                 (A) (A) (A) (A) (A) (A) (A) (A) (A) (A) (A) (A)
                 (A) (A) (A) (A) (A) (A) (A) (A) (A) (A) (A) (A)
                 (A) (A) (A) (A) (A) (A) (A) (A) (A) (A) (A) (A)
                 (A) (A) (A) (A) (A) (A) (A) (A) (A) (A) (A) (A)
                 (A) (A) (A) (A) (A) (A) (A) (A) (A) (A) (A) (A)
                 (A) (A) (A) (A) (A) (A) (A) (A) (A) (A) (A) (A)
                 (A) (A) (A) (A) (A) (A) (A) (A) (A) (A) (A) (A)
                 (A) (A) (A) (A) (A) (A) (A) (A) (A) (A) (A) (A)
                 (A) (A) (A) (A) (A) (A) (A) (A) (A) (A) (A) (A)
                 (A) (A) (A) (A) (A) (A) (A) (A) (A) (A) (A) (A)
                 (A) (A) (A) (A) (A) (A) (A) (A) (A) (A) (A) (A)
                 (A) (A) (A) (A) (A) (A) (A) (A) (A) (A) (A) (A)
                 (A) (A) (A) (A) (A) (A) (A) (A) (A) (A) (A) (A)
                 (A) (A) (A) (A) (A) (A) (A) (A) (A) (A) (A) (A)
                 (A) (A) (A) (A) (A) (A) (A) (A) (A) (A) (A) (A)
                 (A) (A) (A) (A) (A) (A) (A) (A) (A) (A) (A) (A)
                 (A) (A) (A) (A) (A) (A) (A) (A) (A) (A) (A) (A)
                 (A) (A) (A) (A) (A) (A) (A) (A) (A) (A) (A) (A)
                 (A) (A) (A) (A) (A) (A) (A) (A) (A) (A) (A) (A)
                 (A) (A) (A) (A) (A) (A) (A) (A) (A) (A) (A) (A)
                 (A) (A) (A) (A) (A) (A) (A) (A) (A) (A) (A) (A)
                 (A) (A) (A) (A) (A) (A) (A) (A) (A) (A) (A) (A)
                 (A) (A) (A) (A) (A) (A) (A) (A) (A) (A) (A) (A)
                 (A) (A) (A) (A) (A) (A) (A) (A) (A) (A) (A) (A)
                 (A) (A) (A) (A) (A) (A) (A) (A) (A) (A) (A) (A)
                 (A) (A) (A) (A) (A) (A) (A) (A) (A) (A) (A) (A)
                 (A) (A) (A) (A) (A) (A) (A) (A) (A) (A) (A) (A)
                 (A) (A) (A) (A) (A) (A) (A) (A) (A) (A) (A) (A)
                 (A) (A) (A) (A) (A) (A) (A) (A) (A) (A) (A) (A)
                 (A) (A) (A) (A) (A) (A) (A) (A) (A) (A) (A) (A)
                 (A) (A) (A) (A) (A) (A) (A) (A) (A) (A) (A) (A)
                 (A) (A) (A) (A) (A) (A) (A) (A) (A) (A) (A) (A)
                 (A) (A) (A) (A) (A) (A) (A) (A) (A) (A) (A) (A)
                 (A) (A) (A) (A) (A) (A) (A) (A) (A) (A) (A) (A)
                 (A) (A) (A) (A) (A) (A) (A) (A) (A) (A) (A) (A)
                 (A) (A) (A) (A) (A) (A) (A) (A) (A) (A) (A) (A)
                 (A) (A) (A) (A) (A) (A) (A) (A) (A) (A) (A) (A)
                 (A) (A) (A) (A) (A) (A) (A) (A) (A) (A) (A) (A)
                 (A) (A) (A) (A) (A) (A) (A) (A) (A) (A) (A) (A)
                 (A) (A) (A) (A) (A) (A) (A) (A) (A) (A) (A) (A)
                 (A) (A) (A) (A) (A) (A) (A) (A) (A) (A) (A) (A)
                 (A) (A) (A) (A) (A) (A) (A) (A) (A) (A) (A) (A)
 The electronic state is 1-A.
 Alpha  occ. eigenvalues --  -88.98890 -66.15173 -14.39447 -14.39069 -14.37275
 Alpha  occ. eigenvalues --  -14.33561 -10.31253 -10.30101 -10.29532 -10.28859
 Alpha  occ. eigenvalues --  -10.27962 -10.27767 -10.27267 -10.26480 -10.25675
 Alpha  occ. eigenvalues --  -10.25397 -10.24947 -10.24918 -10.24886 -10.23436
 Alpha  occ. eigenvalues --  -10.23422 -10.23184 -10.22927 -10.22627 -10.22187
 Alpha  occ. eigenvalues --  -10.21732 -10.20097 -10.19333  -8.04200  -6.00766
 Alpha  occ. eigenvalues --   -6.00173  -5.99943  -5.30136  -3.66085  -3.65912
 Alpha  occ. eigenvalues --   -3.65884  -1.04255  -1.02292  -0.94558  -0.91467
 Alpha  occ. eigenvalues --   -0.91032  -0.88193  -0.84764  -0.83333  -0.80033
 Alpha  occ. eigenvalues --   -0.77614  -0.77417  -0.73311  -0.72023  -0.69204
 Alpha  occ. eigenvalues --   -0.69063  -0.67123  -0.64662  -0.63361  -0.63016
 Alpha  occ. eigenvalues --   -0.60147  -0.59692  -0.58422  -0.57157  -0.55358
 Alpha  occ. eigenvalues --   -0.53273  -0.52812  -0.51960  -0.51563  -0.50755
 Alpha  occ. eigenvalues --   -0.50430  -0.49406  -0.47650  -0.46682  -0.45865
 Alpha  occ. eigenvalues --   -0.44605  -0.43985  -0.43363  -0.42210  -0.42038
 Alpha  occ. eigenvalues --   -0.41378  -0.39753  -0.39178  -0.38696  -0.38160
 Alpha  occ. eigenvalues --   -0.37440  -0.35895  -0.35732  -0.35670  -0.34453
 Alpha  occ. eigenvalues --   -0.34217  -0.33278  -0.32844  -0.32428  -0.32315
 Alpha  occ. eigenvalues --   -0.31245  -0.29391  -0.28148  -0.27775  -0.27018
 Alpha  occ. eigenvalues --   -0.26859  -0.26083  -0.25407  -0.25222  -0.23258
 Alpha  occ. eigenvalues --   -0.22245  -0.20856
 Alpha virt. eigenvalues --   -0.16370  -0.11591  -0.10705  -0.09714  -0.08816
 Alpha virt. eigenvalues --   -0.07349  -0.06035  -0.04564  -0.03638  -0.03188
 Alpha virt. eigenvalues --   -0.02311  -0.01675  -0.01273  -0.01094  -0.00725
 Alpha virt. eigenvalues --   -0.00341  -0.00049   0.00431   0.00715   0.01027
 Alpha virt. eigenvalues --    0.01716   0.02080   0.02179   0.02537   0.02825
 Alpha virt. eigenvalues --    0.03008   0.03150   0.03482   0.03760   0.04055
 Alpha virt. eigenvalues --    0.04488   0.04825   0.04930   0.05675   0.05849
 Alpha virt. eigenvalues --    0.05910   0.06377   0.06671   0.06866   0.07002
 Alpha virt. eigenvalues --    0.07398   0.07513   0.08083   0.08143   0.08512
 Alpha virt. eigenvalues --    0.08819   0.09217   0.09307   0.09522   0.09708
 Alpha virt. eigenvalues --    0.10026   0.10281   0.10364   0.10670   0.10766
 Alpha virt. eigenvalues --    0.11166   0.11464   0.11487   0.11926   0.12050
 Alpha virt. eigenvalues --    0.12120   0.12366   0.12544   0.12591   0.12943
 Alpha virt. eigenvalues --    0.12974   0.13467   0.13698   0.13852   0.13895
 Alpha virt. eigenvalues --    0.14307   0.14426   0.14740   0.14896   0.14981
 Alpha virt. eigenvalues --    0.15136   0.15249   0.15458   0.15672   0.15807
 Alpha virt. eigenvalues --    0.16062   0.16196   0.16316   0.16860   0.17093
 Alpha virt. eigenvalues --    0.17282   0.17587   0.17938   0.18122   0.18385
 Alpha virt. eigenvalues --    0.18677   0.19169   0.19328   0.19597   0.19706
 Alpha virt. eigenvalues --    0.19833   0.20186   0.20383   0.20477   0.21033
 Alpha virt. eigenvalues --    0.21371   0.21453   0.21677   0.22024   0.22310
 Alpha virt. eigenvalues --    0.22741   0.22878   0.23069   0.23196   0.23727
 Alpha virt. eigenvalues --    0.24113   0.24268   0.24364   0.24620   0.24819
 Alpha virt. eigenvalues --    0.25172   0.25338   0.25681   0.25877   0.26307
 Alpha virt. eigenvalues --    0.26405   0.26505   0.26657   0.27130   0.27666
 Alpha virt. eigenvalues --    0.27883   0.28145   0.28201   0.28635   0.28693
 Alpha virt. eigenvalues --    0.28975   0.29674   0.29782   0.30220   0.30571
 Alpha virt. eigenvalues --    0.31012   0.31245   0.31707   0.31857   0.32114
 Alpha virt. eigenvalues --    0.32624   0.32696   0.33224   0.33688   0.34264
 Alpha virt. eigenvalues --    0.34706   0.34922   0.35160   0.35341   0.35566
 Alpha virt. eigenvalues --    0.35925   0.36248   0.36466   0.37255   0.37561
 Alpha virt. eigenvalues --    0.37970   0.38271   0.38402   0.38946   0.39756
 Alpha virt. eigenvalues --    0.40044   0.40170   0.40644   0.41031   0.41261
 Alpha virt. eigenvalues --    0.41804   0.42172   0.42537   0.42787   0.43394
 Alpha virt. eigenvalues --    0.43774   0.44963   0.45363   0.45761   0.47450
 Alpha virt. eigenvalues --    0.47732   0.48657   0.49223   0.50447   0.50504
 Alpha virt. eigenvalues --    0.51464   0.52261   0.54703   0.54954   0.56158
 Alpha virt. eigenvalues --    0.58789   0.61217   0.62226   0.64293   0.64619
 Alpha virt. eigenvalues --    0.66133   0.66567   0.66804   0.66955   0.67555
 Alpha virt. eigenvalues --    0.67764   0.68665   0.68893   0.69657   0.70078
 Alpha virt. eigenvalues --    0.70374   0.71152   0.71367   0.72257   0.72820
 Alpha virt. eigenvalues --    0.73248   0.73680   0.73792   0.74604   0.74851
 Alpha virt. eigenvalues --    0.74970   0.75394   0.75745   0.76184   0.76787
 Alpha virt. eigenvalues --    0.77463   0.78261   0.78627   0.78975   0.79485
 Alpha virt. eigenvalues --    0.80348   0.80734   0.81234   0.81727   0.82810
 Alpha virt. eigenvalues --    0.83397   0.83858   0.84923   0.85421   0.86291
 Alpha virt. eigenvalues --    0.86812   0.87896   0.88716   0.88922   0.89497
 Alpha virt. eigenvalues --    0.90166   0.90439   0.90921   0.91331   0.91431
 Alpha virt. eigenvalues --    0.92684   0.94081   0.94734   0.95565   0.95830
 Alpha virt. eigenvalues --    0.96899   0.98120   0.98979   0.99339   0.99888
 Alpha virt. eigenvalues --    1.00073   1.00572   1.00753   1.01453   1.01606
 Alpha virt. eigenvalues --    1.02153   1.02723   1.03021   1.03497   1.04574
 Alpha virt. eigenvalues --    1.04840   1.05127   1.05622   1.06862   1.07072
 Alpha virt. eigenvalues --    1.08052   1.08573   1.09362   1.10622   1.10655
 Alpha virt. eigenvalues --    1.10909   1.11655   1.11917   1.12862   1.13374
 Alpha virt. eigenvalues --    1.14568   1.14901   1.15442   1.16272   1.16834
 Alpha virt. eigenvalues --    1.17455   1.17579   1.18419   1.18777   1.19374
 Alpha virt. eigenvalues --    1.19963   1.20288   1.20450   1.22124   1.23228
 Alpha virt. eigenvalues --    1.23816   1.23865   1.25359   1.25742   1.26168
 Alpha virt. eigenvalues --    1.27522   1.28206   1.29353   1.29945   1.30219
 Alpha virt. eigenvalues --    1.31098   1.32121   1.32838   1.33845   1.34316
 Alpha virt. eigenvalues --    1.34972   1.36565   1.37119   1.37532   1.38176
 Alpha virt. eigenvalues --    1.38784   1.39578   1.40193   1.40756   1.42098
 Alpha virt. eigenvalues --    1.42879   1.44988   1.45522   1.45796   1.46475
 Alpha virt. eigenvalues --    1.48090   1.49358   1.51496   1.52353   1.53306
 Alpha virt. eigenvalues --    1.55486   1.56310   1.56887   1.59066   1.62822
 Alpha virt. eigenvalues --    1.62997   1.64648   1.65123   1.67413   1.67863
 Alpha virt. eigenvalues --    1.68696   1.69103   1.70598   1.71402   1.72586
 Alpha virt. eigenvalues --    1.73125   1.73522   1.74911   1.75243   1.76880
 Alpha virt. eigenvalues --    1.77259   1.78519   1.79191   1.80063   1.80176
 Alpha virt. eigenvalues --    1.81111   1.82457   1.83462   1.84710   1.85559
 Alpha virt. eigenvalues --    1.86774   1.87290   1.88853   1.89912   1.90692
 Alpha virt. eigenvalues --    1.92544   1.93215   1.93667   1.94605   1.96152
 Alpha virt. eigenvalues --    1.97518   1.98867   1.99978   2.00982   2.01716
 Alpha virt. eigenvalues --    2.03021   2.03433   2.04814   2.05315   2.06458
 Alpha virt. eigenvalues --    2.06629   2.07047   2.07606   2.09667   2.10298
 Alpha virt. eigenvalues --    2.11296   2.11876   2.12378   2.12694   2.14357
 Alpha virt. eigenvalues --    2.15103   2.17369   2.17681   2.18064   2.19630
 Alpha virt. eigenvalues --    2.20237   2.21344   2.22278   2.23746   2.24865
 Alpha virt. eigenvalues --    2.25524   2.25718   2.26437   2.27838   2.28446
 Alpha virt. eigenvalues --    2.29459   2.29613   2.30574   2.31299   2.31752
 Alpha virt. eigenvalues --    2.32650   2.34139   2.35150   2.35266   2.36932
 Alpha virt. eigenvalues --    2.38195   2.38457   2.39354   2.40498   2.40682
 Alpha virt. eigenvalues --    2.41541   2.41917   2.43188   2.43467   2.45105
 Alpha virt. eigenvalues --    2.46301   2.46902   2.48066   2.48550   2.49492
 Alpha virt. eigenvalues --    2.50311   2.51002   2.51631   2.52264   2.53647
 Alpha virt. eigenvalues --    2.54250   2.55881   2.56467   2.57256   2.57807
 Alpha virt. eigenvalues --    2.58665   2.59514   2.60666   2.60856   2.61407
 Alpha virt. eigenvalues --    2.63198   2.64209   2.64343   2.65208   2.65728
 Alpha virt. eigenvalues --    2.67203   2.68278   2.70969   2.72711   2.73196
 Alpha virt. eigenvalues --    2.74282   2.74862   2.75594   2.76273   2.78690
 Alpha virt. eigenvalues --    2.80118   2.80305   2.82691   2.84487   2.85727
 Alpha virt. eigenvalues --    2.86970   2.89060   2.90367   2.92097   2.93625
 Alpha virt. eigenvalues --    2.96118   2.97093   3.00183   3.03443   3.04618
 Alpha virt. eigenvalues --    3.10224   3.11572   3.12246   3.14194   3.17289
 Alpha virt. eigenvalues --    3.20326   3.21279   3.21888   3.26407   3.32010
 Alpha virt. eigenvalues --    3.33244   3.40930   3.43156   3.45844   3.48410
 Alpha virt. eigenvalues --    3.48930   3.53603   3.56801   3.62613   3.93832
 Alpha virt. eigenvalues --    4.06073   4.16679   4.19473   4.20232   4.23397
 Alpha virt. eigenvalues --    4.26774   4.29884   4.30856   4.34937   4.36121
 Alpha virt. eigenvalues --    4.40056   4.42843   4.43967   4.45039   4.45760
 Alpha virt. eigenvalues --    4.50800   4.51745   4.54791   4.55113   4.58143
 Alpha virt. eigenvalues --    4.62072   4.65313   4.67609   4.72171   4.72536
 Alpha virt. eigenvalues --    4.77076
          Condensed to atoms (all electrons):
              1          2          3          4          5          6
     1  C    7.685085  -1.105035  -1.984974   1.747817   0.361535  -0.458571
     2  C   -1.105035   9.567816  -0.025712  -1.739401  -0.441701   0.068205
     3  C   -1.984974  -0.025712  15.581475  -8.444162  -1.663720   0.177458
     4  C    1.747817  -1.739401  -8.444162  23.155871  -1.384021  -2.583175
     5  C    0.361535  -0.441701  -1.663720  -1.384021  10.716150   1.459363
     6  C   -0.458571   0.068205   0.177458  -2.583175   1.459363  15.421568
     7  C   -0.185609  -0.104529   0.017637   1.651440  -1.803383   0.561146
     8  N    0.011251  -0.034318  -0.043164  -0.189087   0.346030  -0.283757
     9  C   -0.044837   0.020183   0.193413  -0.176503  -0.471139  -0.340077
    10  C    0.040573  -0.030797  -0.102144  -0.170312   0.412670  -0.074915
    11  C   -0.023738  -0.004444   0.002944  -0.034242   0.012579  -0.586874
    12  C    0.011217  -0.002779  -0.003888  -0.039309   0.050859  -0.126330
    13  C    0.028193  -0.191081  -0.112718   1.460861  -0.147398   1.701715
    14  C    0.043903  -0.069372   0.973178  -2.081131   0.327615  -0.829776
    15  C   -0.178608   0.376848   1.757126  -2.918370  -1.690735  -0.302483
    16  C   -0.008700  -0.063491  -0.393066  -0.253157   0.291057  -2.579512
    17  Si   0.011783  -0.100846  -0.344945   0.228401   0.030779  -0.044582
    18  H   -0.000289   0.007274  -0.000399   0.011081  -0.000730   0.000047
    19  H   -0.001057   0.005749   0.036981   0.011483   0.004747   0.012167
    20  C   -0.113749   0.562645  -1.323358  -1.032230  -1.494701  -2.616457
    21  C   -0.203795  -0.319101   1.128540  -0.428982   1.096264  -2.081074
    22  C   -0.001824  -0.001976  -0.000148  -0.005720  -0.005177  -0.101332
    23  N   -0.000057  -0.000046  -0.000038   0.000290  -0.000369  -0.000440
    24  C   -0.000140   0.000003   0.000123  -0.000042  -0.000686  -0.002320
    25  C    0.000032   0.000005  -0.000050   0.000428   0.000230   0.002427
    26  C   -0.000192   0.000008   0.000064  -0.000450  -0.001190  -0.015401
    27  N    0.000000  -0.000000  -0.000000   0.000001   0.000007   0.000072
    28  S   -0.000004  -0.000001   0.000002   0.000037   0.000006   0.000685
    29  N    0.000008  -0.000001  -0.000002   0.000033  -0.000001   0.000657
    30  C   -0.001431  -0.000022   0.000578   0.008896   0.002623   0.076893
    31  H    0.581029  -0.069102  -0.128517   0.074300  -0.089032  -0.030701
    32  H    0.236499  -0.075285   0.190837  -0.119341  -0.002346  -0.003692
    33  H    0.061830   0.134301  -0.011454   0.115280  -0.031310  -0.112585
    34  H    0.004825  -0.268152   0.626277  -0.302473   0.101379   0.031092
    35  H   -0.008375   0.005787  -0.006055  -0.187240  -0.082339  -0.253751
    36  H    0.003936   0.000419  -0.000726  -0.011242  -0.015369   0.041827
    37  H    0.000193   0.000027   0.000203   0.006425  -0.000818   0.048817
    38  H   -0.000061   0.000040  -0.000132  -0.004777   0.001190  -0.030783
    39  H   -0.000907   0.001220   0.004678   0.002187  -0.003319  -0.091222
    40  H   -0.030925   0.081172   0.066911  -0.186399  -0.029397   0.081101
    41  H   -0.000025   0.000001   0.000013  -0.000063  -0.000070  -0.000108
    42  H    0.000000   0.000000  -0.000000   0.000004  -0.000002   0.000045
              7          8          9         10         11         12
     1  C   -0.185609   0.011251  -0.044837   0.040573  -0.023738   0.011217
     2  C   -0.104529  -0.034318   0.020183  -0.030797  -0.004444  -0.002779
     3  C    0.017637  -0.043164   0.193413  -0.102144   0.002944  -0.003888
     4  C    1.651440  -0.189087  -0.176503  -0.170312  -0.034242  -0.039309
     5  C   -1.803383   0.346030  -0.471139   0.412670   0.012579   0.050859
     6  C    0.561146  -0.283757  -0.340077  -0.074915  -0.586874  -0.126330
     7  C   10.017660  -0.153830  -0.312564  -0.635054  -0.563308  -0.153776
     8  N   -0.153830   7.125557  -0.126273   0.105995   0.545727  -0.162177
     9  C   -0.312564  -0.126273  16.305830  -0.100110  -6.138583   2.248280
    10  C   -0.635054   0.105995  -0.100110  16.668861  -6.779273   2.335691
    11  C   -0.563308   0.545727  -6.138583  -6.779273  20.559877  -6.708885
    12  C   -0.153776  -0.162177   2.248280   2.335691  -6.708885  11.543704
    13  C    0.647159  -0.037652  -3.845539  -1.787730   3.397689  -1.694927
    14  C   -3.041904   0.210475   1.728636   0.415420  -0.064685  -0.511569
    15  C    0.160671  -0.030883  -0.105295   0.304658  -0.019131   0.132288
    16  C   -0.033560   0.004866  -0.062620   0.045477   0.035175   0.008528
    17  Si   0.028685   0.001789  -0.007086   0.003008  -0.000112   0.000195
    18  H   -0.000668  -0.000062  -0.000203  -0.000103  -0.000015  -0.000011
    19  H   -0.004254  -0.000050   0.000565  -0.000144  -0.000004   0.000016
    20  C    0.773200  -0.027077  -0.150245   0.073307  -0.000323  -0.015549
    21  C   -0.171583  -0.042805  -0.723706   0.318881  -0.037685   0.091549
    22  C   -0.373841   0.025666  -1.337666  -3.062350   3.037157  -0.653811
    23  N   -0.008868   0.000481  -0.083833   0.359490  -0.189403  -0.067284
    24  C   -0.027157  -0.003129  -0.037248  -0.858454   0.395149   0.068051
    25  C    0.017842   0.003195   0.059535   0.718059  -1.012626  -0.140613
    26  C   -0.035724  -0.005978   0.015322  -0.826950  -0.481924  -0.055647
    27  N   -0.000006   0.000003  -0.005304  -0.006757   0.070997   0.001074
    28  S   -0.000180   0.000195  -0.008762   0.030666  -0.041743  -0.009028
    29  N    0.000200  -0.000123   0.028141   0.106502  -0.030513   0.019403
    30  C    0.029064   0.025342  -1.543005  -1.677547   1.430783  -0.926518
    31  H   -0.017273  -0.000415  -0.003100   0.001756   0.000566  -0.000153
    32  H    0.007201  -0.002908   0.001088  -0.002952  -0.000905   0.000190
    33  H    0.040909  -0.002933  -0.003564  -0.003306  -0.000966   0.000306
    34  H   -0.005539   0.001192  -0.001155   0.001867   0.000813   0.000001
    35  H    0.275817  -0.051700   0.189059   0.026930  -0.031824   0.033730
    36  H    0.055570  -0.130912   0.213969   0.435850  -0.371063   0.097346
    37  H    0.044687  -0.002307   0.120388   0.202983  -0.386724   0.633983
    38  H   -0.026526   0.002000   0.049644  -0.077946  -0.174608   0.521178
    39  H    0.004405  -0.000238  -0.003525   0.000408   0.000215   0.000746
    40  H    0.002136   0.000688   0.004487   0.000229   0.000272  -0.000549
    41  H   -0.001837  -0.000184  -0.002775  -0.059645   0.027929   0.001925
    42  H    0.000227   0.000043  -0.000062   0.009193  -0.007333  -0.000995
             13         14         15         16         17         18
     1  C    0.028193   0.043903  -0.178608  -0.008700   0.011783  -0.000289
     2  C   -0.191081  -0.069372   0.376848  -0.063491  -0.100846   0.007274
     3  C   -0.112718   0.973178   1.757126  -0.393066  -0.344945  -0.000399
     4  C    1.460861  -2.081131  -2.918370  -0.253157   0.228401   0.011081
     5  C   -0.147398   0.327615  -1.690735   0.291057   0.030779  -0.000730
     6  C    1.701715  -0.829776  -0.302483  -2.579512  -0.044582   0.000047
     7  C    0.647159  -3.041904   0.160671  -0.033560   0.028685  -0.000668
     8  N   -0.037652   0.210475  -0.030883   0.004866   0.001789  -0.000062
     9  C   -3.845539   1.728636  -0.105295  -0.062620  -0.007086  -0.000203
    10  C   -1.787730   0.415420   0.304658   0.045477   0.003008  -0.000103
    11  C    3.397689  -0.064685  -0.019131   0.035175  -0.000112  -0.000015
    12  C   -1.694927  -0.511569   0.132288   0.008528   0.000195  -0.000011
    13  C   20.531924 -10.565311  -3.290453   0.399002   0.011862  -0.000063
    14  C  -10.565311  22.327852   2.421717  -1.589382  -0.200372   0.007807
    15  C   -3.290453   2.421717  22.120007  -9.088457  -0.729583   0.007021
    16  C    0.399002  -1.589382  -9.088457  14.167236   0.856162  -0.030296
    17  Si   0.011862  -0.200372  -0.729583   0.856162  13.212765   0.354046
    18  H   -0.000063   0.007807   0.007021  -0.030296   0.354046   0.748908
    19  H    0.000028   0.023234   0.056419  -0.077914   0.287284  -0.024858
    20  C   -0.741528  -2.449087   0.545824   1.881328   0.360397  -0.125696
    21  C    0.123237  -1.230381  -4.245797   2.448291  -0.130711   0.116712
    22  C    0.270226   0.160330   0.031311   0.003876  -0.000015  -0.000002
    23  N    0.018597  -0.009586   0.000315   0.000011   0.000001  -0.000000
    24  C   -0.006181   0.014839   0.000762   0.000023  -0.000001  -0.000000
    25  C    0.005977  -0.012973  -0.000460  -0.000013   0.000000   0.000000
    26  C    0.028812   0.015873   0.000828   0.000034  -0.000001  -0.000000
    27  N    0.000075  -0.000058  -0.000000   0.000000   0.000000  -0.000000
    28  S   -0.001581  -0.001078  -0.000004   0.000001   0.000000  -0.000000
    29  N   -0.000843  -0.001568  -0.000100  -0.000006   0.000000  -0.000000
    30  C    0.068642  -0.137620   0.001930   0.000501  -0.000004  -0.000000
    31  H   -0.001451   0.004953  -0.001378  -0.000012  -0.001162   0.000053
    32  H   -0.006019   0.002428   0.006352   0.001938  -0.002083  -0.000174
    33  H    0.013624  -0.010582  -0.005677   0.006465   0.000295   0.000013
    34  H    0.010421   0.022035   0.004301   0.000442   0.008008  -0.000100
    35  H   -0.243306   0.355165   0.032331   0.046056  -0.003363   0.000103
    36  H    0.007079  -0.009306  -0.003936  -0.002542   0.000018   0.000001
    37  H   -0.114880  -0.165586  -0.010009  -0.002262   0.000020   0.000001
    38  H   -0.160317   0.115899   0.009902   0.001328  -0.000024  -0.000001
    39  H    0.005390  -0.060790  -0.330803   0.643515  -0.088041  -0.001845
    40  H   -0.023677  -0.037460   0.064149   0.018678  -0.138651  -0.016341
    41  H   -0.000243   0.001170   0.000075   0.000003  -0.000000  -0.000000
    42  H   -0.000005  -0.000125  -0.000004  -0.000000   0.000000   0.000000
             19         20         21         22         23         24
     1  C   -0.001057  -0.113749  -0.203795  -0.001824  -0.000057  -0.000140
     2  C    0.005749   0.562645  -0.319101  -0.001976  -0.000046   0.000003
     3  C    0.036981  -1.323358   1.128540  -0.000148  -0.000038   0.000123
     4  C    0.011483  -1.032230  -0.428982  -0.005720   0.000290  -0.000042
     5  C    0.004747  -1.494701   1.096264  -0.005177  -0.000369  -0.000686
     6  C    0.012167  -2.616457  -2.081074  -0.101332  -0.000440  -0.002320
     7  C   -0.004254   0.773200  -0.171583  -0.373841  -0.008868  -0.027157
     8  N   -0.000050  -0.027077  -0.042805   0.025666   0.000481  -0.003129
     9  C    0.000565  -0.150245  -0.723706  -1.337666  -0.083833  -0.037248
    10  C   -0.000144   0.073307   0.318881  -3.062350   0.359490  -0.858454
    11  C   -0.000004  -0.000323  -0.037685   3.037157  -0.189403   0.395149
    12  C    0.000016  -0.015549   0.091549  -0.653811  -0.067284   0.068051
    13  C    0.000028  -0.741528   0.123237   0.270226   0.018597  -0.006181
    14  C    0.023234  -2.449087  -1.230381   0.160330  -0.009586   0.014839
    15  C    0.056419   0.545824  -4.245797   0.031311   0.000315   0.000762
    16  C   -0.077914   1.881328   2.448291   0.003876   0.000011   0.000023
    17  Si   0.287284   0.360397  -0.130711  -0.000015   0.000001  -0.000001
    18  H   -0.024858  -0.125696   0.116712  -0.000002  -0.000000  -0.000000
    19  H    0.777088  -0.281048   0.243390  -0.000000  -0.000000   0.000000
    20  C   -0.281048  17.579440  -6.129295   0.001496   0.000006   0.000022
    21  C    0.243390  -6.129295  16.546897   0.012075   0.000022   0.000266
    22  C   -0.000000   0.001496   0.012075  17.322202   0.194020   0.639260
    23  N   -0.000000   0.000006   0.000022   0.194020   6.794539  -0.165524
    24  C    0.000000   0.000022   0.000266   0.639260  -0.165524   7.773235
    25  C   -0.000000  -0.000005  -0.000103  -1.295902   0.224388  -2.661147
    26  C    0.000000   0.000002   0.000018   2.748557  -0.265341   2.735346
    27  N    0.000000   0.000000   0.000000   0.029166   0.003640   0.033708
    28  S   -0.000000   0.000001   0.000008  -0.445529   0.012675  -0.077130
    29  N   -0.000000  -0.000000  -0.000008  -0.068724   0.007605   0.048209
    30  C   -0.000000   0.000323   0.002580 -10.195174   0.348040  -1.944231
    31  H    0.000050  -0.008576  -0.019990   0.000096   0.000002  -0.000003
    32  H    0.000278   0.021450   0.025247  -0.000269  -0.000013   0.000002
    33  H   -0.000848   0.030589   0.026353  -0.000133  -0.000001  -0.000005
    34  H   -0.000329  -0.101592   0.094546   0.000186   0.000006   0.000003
    35  H    0.000155  -0.009087  -0.029066   0.018247  -0.002181   0.000272
    36  H    0.000002  -0.002592  -0.002385  -0.042673  -0.019321  -0.042783
    37  H   -0.000002  -0.000309  -0.001217  -0.128992   0.001491  -0.004804
    38  H    0.000002   0.000229   0.000993   0.087494  -0.002701   0.003563
    39  H   -0.004198   0.091156   0.097079   0.000065   0.000000   0.000000
    40  H   -0.005490   0.650421  -0.379688  -0.000002  -0.000001   0.000000
    41  H    0.000000   0.000004   0.000036   0.067363  -0.119824   0.558283
    42  H   -0.000000  -0.000000  -0.000001  -0.025726   0.015554  -0.179522
             25         26         27         28         29         30
     1  C    0.000032  -0.000192   0.000000  -0.000004   0.000008  -0.001431
     2  C    0.000005   0.000008  -0.000000  -0.000001  -0.000001  -0.000022
     3  C   -0.000050   0.000064  -0.000000   0.000002  -0.000002   0.000578
     4  C    0.000428  -0.000450   0.000001   0.000037   0.000033   0.008896
     5  C    0.000230  -0.001190   0.000007   0.000006  -0.000001   0.002623
     6  C    0.002427  -0.015401   0.000072   0.000685   0.000657   0.076893
     7  C    0.017842  -0.035724  -0.000006  -0.000180   0.000200   0.029064
     8  N    0.003195  -0.005978   0.000003   0.000195  -0.000123   0.025342
     9  C    0.059535   0.015322  -0.005304  -0.008762   0.028141  -1.543005
    10  C    0.718059  -0.826950  -0.006757   0.030666   0.106502  -1.677547
    11  C   -1.012626  -0.481924   0.070997  -0.041743  -0.030513   1.430783
    12  C   -0.140613  -0.055647   0.001074  -0.009028   0.019403  -0.926518
[...]
 0004692,-0.00119105,0.00023874,0.00007735,-0.00019232,-0.00002053,0.00
 001565,-0.00004176,0.00001167,-0.00002515,0.00004981,-0.00004560,-0.00
 003989,0.00005369,0.00013715,0.00004372,-0.00011777,-0.00077004,-0.000
 68473,0.00033533,-0.00027528,0.00072149,-0.00035101,-0.00001689,-0.000
 30857,0.00001176,0.00006930,0.00009769,0.00010055,0.00007303,0.0001454
 7,-0.00017653,-0.00002891,-0.00027726,0.00005954,-0.00004381,0.0000220
 4,0.00030384,-0.00082275,-0.00028089,-0.00016441,0.00041762,0.00033070
 ,-0.00020097,-0.00000754,-0.00000423,-0.00000443,-0.00001427,-0.000018
 15,-0.00000144,-0.00000561,-0.00001762,0.00000219,0.00000843,-0.000003
 32,0.00000107,0.00000688,-0.00005587,-0.00001371,-0.00195819,0.0004233
 7,0.00011503,-0.00494379,0.00476214,0.00623304,-0.09212170,0.10825419,
 0.19151760,0.00001363,-0.00008719,0.00011772,-0.00001391,-0.00010329,-
 0.00009078,-0.00037646,0.00006839,0.00002532,0.00017109,-0.00070970,0.
 00001905,0.00000747,0.00017962,-0.00003015,-0.00010979,-0.00015400,-0.
 00026461,0.00049737,-0.00030569,-0.00007409,-0.00011203,0.00015104,0.0
 0004987,0.00010150,-0.00015023,-0.00021378,-0.00000453,-0.00000966,0.0
 0002179,-0.00036471,0.00002804,0.00014998,0.00038612,-0.00007988,0.000
 20818,0.00013243,-0.00013508,-0.00010685,-0.00550822,0.00166342,0.0026
 2616,0.00293677,-0.01148636,0.00384374,-0.03439166,-0.03103131,0.00340
 924,0.00193289,0.00357215,-0.00086979,-0.00022356,0.00025412,-0.000559
 24,-0.00030285,-0.00046032,0.00042886,-0.00125496,0.00129290,-0.000665
 49,0.00743600,-0.00247448,-0.00378808,0.00010733,0.00018239,0.00004521
 ,-0.00004367,-0.00007644,0.00002631,0.00000957,0.00003003,-0.00001683,
 0.00000126,-0.00002604,-0.00000134,0.00003323,0.00000821,-0.00001491,-
 0.00000482,0.00005202,-0.00006024,-0.00006685,-0.00019752,-0.00005840,
 -0.00008705,0.00013927,-0.00008585,0.00002510,0.00008775,0.00007721,0.
 00000738,0.00001196,-0.00001025,-0.00002218,-0.00001592,0.00003249,0.0
 0001930,0.00008902,-0.00000614,-0.00001331,0.00004563,0.00003037,-0.00
 002838,0.00001089,0.00000582,0.00007594,-0.00004172,-0.00002190,-0.000
 20686,-0.00033911,0.00133984,0.00060468,0.00094481,-0.00092888,0.02735
 227,0.00002138,-0.00003752,-0.00013867,-0.00003057,-0.00007638,-0.0000
 5322,-0.00006902,0.00003451,-0.00013646,0.00013218,-0.00097595,0.00095
 130,0.00014994,0.00012037,0.00006294,-0.00008835,-0.00024520,0.0002604
 6,-0.00013127,0.00014623,-0.00004850,0.00001253,-0.00005928,0.00005641
 ,0.00002976,0.00014548,-0.00010657,-0.00001026,-0.00018813,0.00016550,
 0.00013328,0.00009889,0.00037643,-0.00052337,-0.00134919,0.00323428,-0
 .00014220,-0.00005685,-0.00102150,0.00181897,0.00057118,0.00028325,-0.
 00083223,-0.01559604,0.01127427,-0.03627203,-0.32089854,0.08853366,-0.
 00085384,-0.00021917,-0.00181575,0.00012439,-0.00020794,0.00035456,0.0
 0011348,-0.00004762,0.00018707,0.00017190,0.00059467,-0.00070217,-0.00
 337508,-0.00061357,-0.00292246,0.00013079,0.00022016,0.00007327,-0.000
 03761,-0.00011811,0.00004850,0.00000794,0.00002830,-0.00001553,-0.0000
 1190,-0.00001842,0.00000422,-0.00000395,0.00002590,-0.00000136,0.00000
 562,0.00003393,-0.00004696,-0.00009081,-0.00010156,-0.00007097,0.00012
 332,0.00003461,-0.00008693,0.00004645,0.00004749,0.00004513,-0.0000255
 0,-0.00001055,-0.00001024,0.00002596,0.00002422,0.00000519,-0.00004199
 ,0.00000223,-0.00004255,0.00000360,-0.00003766,-0.00003703,0.00001830,
 0.00001356,0.00002050,0.00001519,0.00005709,0.00005368,0.00052691,-0.0
 0004243,0.00035772,0.00011021,-0.00044228,0.00230128,0.03902032,0.3389
 3624,0.00002514,0.00009250,0.00000668,0.00010861,-0.00002968,-0.000062
 71,-0.00001927,-0.00012346,-0.00016684,-0.00007479,-0.00062433,0.00091
 600,0.00001056,-0.00006423,0.00007931,0.00001297,0.00008933,0.00014654
 ,-0.00003009,0.00014264,0.00020420,0.00018610,0.00020575,-0.00003051,-
 0.00016058,-0.00014145,0.00022395,0.00012669,0.00009824,0.00033415,-0.
 00009438,0.00043375,-0.00081442,0.00063402,0.00101972,-0.00341942,-0.0
 0077157,-0.00082892,-0.00083911,0.00258345,0.00039689,0.00046415,-0.00
 288416,-0.02040367,0.00997733,0.00694154,0.10604190,-0.07807199,0.0022
 3876,0.01152728,-0.00029909,0.00012836,-0.00049423,-0.00051478,-0.0005
 3084,-0.00017784,-0.00053583,0.00016142,0.00257771,-0.00261279,-0.0040
 0020,-0.00104720,-0.00193963,0.00017496,0.00027436,0.00009385,-0.00004
 434,-0.00013822,0.00007945,0.00000792,0.00004209,-0.00004217,-0.000019
 79,-0.00003869,0.00002371,-0.00002360,-0.00002533,-0.00005332,-0.00003
 673,-0.00012097,0.00004655,-0.00006524,-0.00009218,0.00004748,-0.00000
 246,-0.00004925,-0.00011007,-0.00000304,0.00006922,-0.00007054,-0.0000
 0076,-0.00003195,0.00000310,0.00000050,0.00000992,-0.00000969,-0.00002
 663,-0.00003370,-0.00001041,0.00004555,-0.00004567,-0.00004429,0.00001
 830,0.00000747,0.00001863,0.00004280,0.00002049,0.00003012,0.00041710,
 0.00055554,-0.00124940,-0.00057816,0.00171546,-0.00161633,-0.00448534,
 -0.10157996,0.07891917,-0.00000318,0.00032292,-0.00003447,0.00047984,-
 0.00017666,-0.00001941,0.00025401,-0.00014843,-0.00019656,-0.00572954,
 0.00292430,0.00272019,0.00003239,-0.00041832,0.00020682,0.00014419,0.0
 0012429,-0.00009736,-0.00000638,-0.00003068,0.00002671,0.00002495,0.00
 004776,0.00004546,-0.00003772,0.00003365,-0.00009796,0.00001777,-0.000
 01016,-0.00003654,-0.00008210,-0.00001573,0.00003344,0.00011059,-0.000
 03239,-0.00002471,-0.00044148,0.00000727,0.00004685,0.00043086,0.00044
 730,-0.00046474,0.00680787,-0.00247043,-0.00419284,-0.00117351,-0.0012
 8112,0.00053488,0.00089744,-0.00310813,0.00310807,-0.00022436,-0.00053
 722,-0.00014236,-0.00036579,0.00041625,-0.00017828,-0.03073656,-0.0190
 0345,0.00413188,0.00402935,0.00884178,-0.00683127,0.00002680,0.0000538
 2,-0.00001318,-0.00000481,-0.00002331,0.00003298,0.00000814,0.00001369
 ,-0.00001387,-0.00000593,-0.00000812,0.00000386,0.00000112,-0.00000204
 ,0.00000355,-0.00000615,-0.00001162,0.00001145,0.00000676,0.00001207,-
 0.00001415,-0.00000464,-0.00000044,0.00001652,-0.00000573,-0.00000857,
 -0.00002133,-0.00004587,-0.00003133,0.00001279,-0.00003011,-0.00004451
 ,-0.00003018,-0.00007314,-0.00012401,0.00001868,0.00029275,0.00005254,
 -0.00004397,0.00000196,0.00000125,-0.00001127,0.00001259,-0.00000030,-
 0.00000526,-0.00002176,-0.00000713,-0.00002263,-0.00000144,0.00003854,
 0.00001043,0.00128307,-0.00019668,-0.00000701,0.02413734,-0.00003290,-
 0.00023173,-0.00008015,-0.00036319,0.00022692,0.00008946,0.00031471,0.
 00019391,0.00045173,0.00154499,-0.00051817,-0.00092543,0.00017398,0.00
 030451,0.00003085,-0.00008500,-0.00019528,0.00023014,-0.00003690,0.000
 03307,-0.00009894,0.00001396,-0.00003813,0.00009044,0.00001601,0.00002
 248,-0.00001822,0.00001531,0.00001808,0.00005766,0.00000133,0.00002157
 ,-0.00006003,0.00000112,-0.00001339,0.00004985,0.00015443,0.00002966,0
 .00002570,-0.00011240,0.00005739,-0.00010581,-0.00193662,0.00093278,0.
 00028391,-0.00022713,-0.00240786,0.00018914,0.00136995,-0.00356539,0.0
 0755788,0.00008731,-0.00036297,-0.00058768,-0.00046266,-0.00056959,-0.
 00035462,-0.01320457,-0.27033895,0.13982479,-0.00160568,0.00282361,-0.
 00330302,0.00002135,0.00004175,0.00000409,-0.00000499,-0.00002382,0.00
 003036,-0.00000071,0.00000846,-0.00001337,0.00000065,-0.00000420,0.000
 00610,-0.00000228,-0.00000382,-0.00000640,-0.00000521,-0.00002005,0.00
 002057,0.00001667,0.00003628,-0.00000726,-0.00000596,-0.00001955,0.000
 01394,-0.00001460,-0.00001350,-0.00002073,-0.00000775,0.00003677,-0.00
 001285,0.00004122,0.00004117,-0.00000257,0.00006430,0.00005288,0.00000
 607,-0.00014945,-0.00002529,-0.00009387,0.00001194,0.00001094,0.000021
 45,0.00000269,-0.00000163,0.00000662,0.00002980,-0.00000227,-0.0000240
 6,-0.00003087,0.00003204,-0.00000593,0.00005206,0.00021278,0.00078001,
 0.01435568,0.27322279,0.00000613,-0.00013203,0.00003703,-0.00027291,0.
 00001502,0.00003945,-0.00002748,-0.00030480,-0.00026404,0.00274138,-0.
 00098754,0.00099563,-0.00002865,0.00014487,0.00019975,0.00009206,0.000
 12046,0.00012288,0.00000565,-0.00010014,0.00004387,-0.00001718,-0.0000
 0265,0.00000103,0.00011829,0.00010386,0.00001293,-0.00002879,0.0000037
 2,-0.00003870,0.00003131,0.00004015,-0.00001160,-0.00004381,-0.0000573
 5,0.00005303,-0.00009582,-0.00020704,-0.00049811,0.00025991,0.00158066
 ,0.00025693,-0.00458852,-0.00118012,-0.00310828,-0.00015445,-0.0029479
 0,0.00010902,-0.00037206,-0.00582751,0.00418976,0.00022926,0.00012714,
 -0.00039468,-0.00030369,-0.00024474,-0.00022264,-0.00069233,0.12542571
 ,-0.12077884,0.00175052,0.02848389,-0.01150645,-0.00001442,-0.00002650
 ,-0.00000391,0.00000367,0.00001100,-0.00000682,-0.00000248,-0.00000258
 ,0.00000537,0.00000497,0.00000368,-0.00000278,-0.00000551,0.00000273,0
 .00000265,0.00000212,-0.00000044,0.00000096,0.00000748,0.00001532,0.00
 000316,-0.00000203,-0.00000724,0.00000389,0.00000303,-0.00000219,-0.00
 000128,0.00002293,0.00004382,0.00001294,-0.00001890,-0.00000317,-0.000
 00910,0.00004860,0.00002080,0.00002740,-0.00008765,-0.00027776,-0.0001
 1367,-0.00001198,0.00000034,-0.00002325,0.00000400,0.00001701,-0.00000
 068,0.00002207,-0.00000380,-0.00001046,-0.00002320,0.00001925,0.000005
 33,-0.00009456,0.00019002,0.00089738,0.00153324,-0.14405460,0.12997412
 ,0.00000110,0.00000025,0.00000084,0.00000079,-0.00000129,0.00000055,-0
 .00000170,0.00000108,0.00000083,0.00000115,-0.00000059,-0.00000016,-0.
 00000078,0.00000006,-0.00000244,-0.00000376,-0.00000817,-0.00000157,-0
 .00000171,-0.00000842,0.00000541,-0.00001067,0.00000141,-0.00000342,0.
 00002461,-0.00001183,-0.00002900,0.00001634,-0.00002079,-0.00001262,0.
 00043790,-0.00008678,0.00033388,-0.00017228,-0.00004863,-0.00002662,-0
 .00000843,-0.00001312,0.00005867,-0.00000857,0.00000171,-0.00001494,-0
 .00000466,0.00000163,0.00000111,0.00000090,0.00000156,0.00000542,0.000
 00145,-0.00000455,-0.00000372,-0.00000094,0.00000125,0.00000120,-0.000
 00049,0.00000096,0.00000067,0.00000166,-0.00000028,0.00000028,-0.00000
 223,0.00000104,0.00000054,0.00443340,-0.00446369,0.00027387,-0.0000403
 3,-0.00628571,0.01545961,-0.05093447,0.00478578,-0.03922145,0.00458305
 ,0.00319825,-0.01504254,0.00500092,-0.00529492,-0.00295702,0.00071767,
 0.00001380,-0.00084610,-0.00114151,0.00053392,0.00003865,-0.00017002,0
 .00031297,0.00016908,-0.00032996,-0.00039066,0.00004760,-0.00000029,-0
 .00000019,-0.00000060,-0.00000051,-0.00000126,0.00000042,0.00000030,-0
 .00000023,0.00000012,0.00000078,-0.00000004,-0.00000077,0.00000071,-0.
 00000149,0.00000039,-0.00002231,-0.00001661,0.00001936,0.00000781,0.00
 001687,-0.00002862,-0.00000828,-0.00001291,0.00002341,0.00000112,-0.00
 000291,-0.00000300,-0.00000021,0.00000041,0.00000002,0.04050636,-0.000
 00242,0.00001752,0.00001846,0.00001678,0.00000546,0.00000135,-0.000000
 27,-0.00000534,-0.00000442,-0.00000245,0.00000087,0.00000061,-0.000026
 76,-0.00004287,-0.00000679,-0.00001624,-0.00001397,-0.00004617,0.00000
 810,-0.00004249,0.00007090,-0.00000198,0.00000295,-0.00001625,-0.00000
 784,0.00003211,-0.00005199,-0.00002479,0.00000228,0.00000753,0.0001278
 8,0.00014485,0.00093004,-0.00009611,-0.00024903,-0.00017115,0.00001192
 ,-0.00007669,0.00016368,-0.00000798,0.00001525,-0.00005626,-0.00000046
 ,0.00000493,-0.00001204,0.00000561,-0.00000018,0.00002722,-0.00001569,
 0.00000198,-0.00003730,0.00000214,0.00000014,0.00000940,0.00000577,-0.
 00000057,0.00000838,0.00000531,-0.00000906,0.00001509,0.00000249,0.000
 00867,-0.00000075,-0.00381251,-0.00207481,0.00264108,-0.00024032,-0.01
 766633,0.03157575,0.00458248,-0.06704999,0.06390697,-0.00348987,0.0094
 7126,-0.01807002,-0.00514086,-0.00067485,-0.00140521,-0.00031162,0.000
 71179,-0.00074376,0.00050877,-0.00020597,-0.00048319,0.00032177,0.0001
 8124,0.00012846,-0.00036539,-0.00074887,-0.00017456,0.00000045,0.00000
 325,-0.00000031,-0.00000612,-0.00000779,0.00000118,0.00000065,-0.00000
 262,-0.00000040,0.00000197,-0.00000176,0.00000477,-0.00000414,-0.00000
 854,0.00000161,-0.00000141,-0.00003999,0.00004571,0.00000947,-0.000010
 75,0.00001107,-0.00000704,0.00002101,-0.00001302,-0.00000300,-0.000006
 43,-0.00000967,-0.00000175,-0.00000206,0.00000052,0.00604447,0.0786710
 9,0.00000266,-0.00003510,-0.00003214,-0.00003135,-0.00001322,0.0000017
 0,0.00000010,0.00000754,0.00000479,0.00000390,0.00000009,-0.00000121,0
 .00004401,0.00007973,0.00000953,0.00001603,-0.00000517,0.00008027,-0.0
 0001717,0.00005345,-0.00011568,-0.00000490,-0.00002793,0.00000989,-0.0
 0001587,-0.00001408,0.00000887,-0.00003616,-0.00004117,-0.00002229,0.0
 0000690,0.00026626,-0.00012283,0.00007653,0.00004160,0.00008176,0.0000
 0866,0.00005901,-0.00009632,0.00000470,-0.00003022,0.00004595,0.000007
 18,-0.00000751,0.00001262,-0.00000409,0.00000331,-0.00003343,0.0000128
 0,-0.00001060,0.00006089,-0.00000065,0.00000069,-0.00001543,-0.0000061
 2,0.00000248,-0.00001357,-0.00000611,0.00001299,-0.00002440,-0.0000028
 2,-0.00000949,0.00000095,-0.00104843,0.00004998,0.00262892,0.00360138,
 0.00862362,-0.00414362,-0.03872960,0.06490932,-0.31440421,-0.00206334,
 0.00702244,-0.01452481,-0.00326855,-0.00199589,0.00015839,-0.00021333,
 0.00046892,-0.00077816,0.00011754,-0.00034242,-0.00033692,0.00015253,0
 .00009730,0.00000415,-0.00000576,-0.00026931,0.00036664,-0.00000087,-0
 .00000445,0.00000149,0.00001105,0.00001415,-0.00000310,-0.00000117,0.0
 0000345,0.00000031,-0.00000388,0.00000308,-0.00000732,0.00000495,0.000
 01263,-0.00000028,-0.00001695,-0.00001148,-0.00005022,-0.00000265,-0.0
 0001011,-0.00000247,-0.00000513,0.00000019,-0.00001423,-0.00000241,0.0
 0000291,0.00000677,0.00000236,0.00000418,-0.00000001,0.04057536,-0.078
 25071,0.33091648,0.00000004,0.00000129,0.00000744,0.00000281,0.0000007
 6,-0.00000264,-0.00000218,-0.00000102,0.00000112,-0.00000022,-0.000001
 44,-0.00000032,-0.00001735,0.00000230,0.00000310,0.00000322,-0.0000015
 0,-0.00000484,0.00000612,0.00000027,0.00000501,-0.00001144,-0.00001217
 ,-0.00000282,-0.00004167,0.00006571,0.00001410,0.00007339,-0.00007161,
 -0.00003348,-0.00124212,0.00055450,0.00044098,-0.00010538,0.00003051,0
 .00002339,-0.00001382,-0.00000082,0.00003639,0.00006705,-0.00003800,-0
 .00002552,-0.00000458,0.00000458,-0.00000265,-0.00000196,0.00000175,0.
 00000892,0.00000899,-0.00000029,-0.00001128,-0.00000249,0.00000061,0.0
 0000318,-0.00000219,-0.00000046,0.00000244,-0.00000293,-0.00000210,0.0
 0000322,0.00000124,0.00000284,-0.00000051,0.00002157,0.00037968,-0.000
 77361,0.00504764,-0.00441222,-0.00371069,-0.00258250,-0.01103059,0.007
 16606,-0.08049473,-0.10703666,0.02657999,0.00412158,0.00365377,-0.0013
 8912,-0.00151571,0.00094966,0.00102939,-0.00033658,0.00038881,0.000327
 30,0.00061187,0.00001083,-0.00059938,0.00375321,-0.00160674,-0.0017660
 7,0.00000057,0.00000096,-0.00000090,-0.00000156,-0.00000281,0.00000110
 ,0.00000097,0.00000033,0.,0.00000109,-0.00000016,-0.00000005,-0.000002
 15,-0.00000233,0.00000039,0.00013464,-0.00003637,-0.00001533,0.0000127
 5,-0.00000469,0.00001730,-0.00000022,-0.00000853,-0.00001654,0.0000002
 7,-0.00000285,-0.00000275,0.00000064,-0.00000101,-0.00000022,-0.002873
 89,0.00193102,0.00083867,0.07538601,0.00000025,0.00000191,-0.00000116,
 -0.00000046,-0.00000163,0.00000095,0.00000256,-0.00000038,-0.00000117,
 -0.00000168,-0.00000199,0.00000440,0.00000577,-0.00000808,-0.00000471,
 0.00000330,0.00000751,0.00000951,-0.00000137,0.00000741,-0.00001327,-0
 .00001636,-0.00003050,-0.00000721,0.00004796,0.00002815,-0.00000995,-0
 .00008635,-0.00001720,-0.00005146,0.00069318,-0.00031083,-0.00004221,0
 .00003193,-0.00004803,-0.00002803,0.00001995,-0.00000594,0.00003088,-0
 .00004038,0.00000742,0.00001095,0.00000201,-0.00000025,0.00000043,-0.0
 0000320,-0.00000208,-0.00000049,-0.00000248,0.00001533,-0.00001005,0.0
 0000036,-0.00000323,0.00000194,0.00000104,-0.00000333,0.00000208,-0.00
 000046,-0.00000767,0.00000292,0.00000221,0.00000359,0.00000019,0.00013
 312,0.00054340,-0.00046356,-0.00436156,0.00102257,-0.00218342,-0.00386
 166,-0.01057495,0.00838782,-0.10699846,-0.27841600,0.07629920,-0.00338
 140,-0.00414361,0.00042123,0.00106705,0.00012531,-0.00066322,0.0003540
 2,-0.00015394,0.00042334,-0.00038426,0.00003066,-0.00003060,-0.0012464
 4,0.00214803,0.00099365,-0.00000016,0.00000107,-0.00000019,-0.00000052
 ,-0.00000015,0.00000060,-0.00000041,0.00000047,-0.00000066,0.00000008,
 -0.00000068,0.00000116,-0.00000115,-0.00000318,0.00000017,-0.00003039,
 0.00006785,0.00004364,-0.00000962,0.00001008,-0.00000270,0.00000976,0.
 00000671,0.00001105,0.00000291,0.00000097,0.00000031,-0.00000058,-0.00
 000219,0.00000016,0.00175766,-0.00035573,-0.00066045,0.11629423,0.2900
 6311,-0.00000124,0.00001415,0.00001158,0.00001325,0.00000608,-0.000000
 16,-0.00000023,-0.00000297,-0.00000240,-0.00000144,0.00000452,-0.00000
 295,-0.00001408,-0.00003373,-0.00000213,-0.00000859,-0.00000110,-0.000
 03038,0.00000755,-0.00001994,0.00004962,0.00001178,0.00002319,0.000000
 85,0.00003518,0.00000495,0.00002896,0.00002033,0.00009731,0.00002607,0
 .00028531,-0.00037969,0.00015385,0.00000277,-0.00004721,-0.00002734,-0
 .00001114,-0.00005595,0.00004562,-0.00001475,0.00002443,-0.00000909,-0
 .00000457,-0.00000185,-0.00001085,0.00001116,-0.00000053,0.00002109,-0
 .00001364,-0.00000930,-0.00001385,0.00000247,0.00000177,0.00000374,0.0
 0000450,0.00000265,0.00000338,0.00000619,0.00000200,0.00000643,-0.0000
 0216,0.00000026,0.00000120,-0.00038593,0.00027340,-0.00191457,-0.00381
 364,-0.00240099,-0.00136085,-0.00683039,-0.01858501,0.01167526,0.02654
 642,0.07622665,-0.08062340,0.01232674,0.02693756,-0.00341104,0.0007840
 7,-0.00112227,0.00290951,0.00040125,0.00055461,-0.00019595,0.00018237,
 0.00146740,-0.00142684,-0.00253235,-0.00048453,-0.00354859,0.00000052,
 0.00000091,0.00000006,-0.00000390,-0.00000466,0.00000031,0.00000027,-0
 .00000214,0.00000070,0.00000154,-0.00000103,0.00000273,-0.00000116,-0.
 00000345,0.00000033,-0.00000275,0.00004792,0.00003964,0.00000773,-0.00
 003007,-0.00000112,-0.00002794,-0.00001039,0.00001845,-0.00000725,-0.0
 0000573,-0.00000519,-0.00000082,0.00000062,0.00000079,0.00117732,-0.00
 001578,0.00034227,-0.02815076,-0.08247208,0.07724428\\-0.00001464,-0.0
 0000139,-0.00000434,-0.00001636,-0.00001100,0.00001623,0.00000553,0.00
 000735,0.00000081,0.00002251,-0.00000370,-0.00001587,0.00003385,0.0000
 2472,0.00000968,-0.00004041,-0.00001162,-0.00004826,0.00000730,0.00000
 358,0.00000956,0.00003259,0.00002078,0.00003275,-0.00003334,-0.0000210
 9,-0.00003160,-0.00000991,0.00000693,-0.00001138,0.00001112,0.00000551
 ,-0.00000187,0.00000650,0.00001226,0.00001465,-0.00000474,-0.00001356,
 0.00003011,0.00001973,0.00001457,0.00001111,-0.00000040,0.00000893,-0.
 00000965,-0.00000523,-0.00000496,-0.00001411,0.00001031,-0.00001443,0.
 00000282,0.00000029,0.00000421,-0.00000349,-0.00000046,0.00000374,0.00
 000317,0.00001501,0.00000576,-0.00000212,-0.00002263,0.00000611,0.0000
 0433,0.00000457,0.00001366,-0.00000449,0.00000453,0.00000489,0.0000021
 7,-0.00000758,-0.00001002,-0.00000021,-0.00000071,-0.00000118,0.000001
 64,-0.00000109,-0.00000258,-0.00000146,-0.00000420,-0.00000476,-0.0000
 0391,0.00000496,-0.00000014,0.00000637,-0.00000057,0.00000417,-0.00000
 530,0.00000063,0.00000024,-0.00000222,-0.00000130,-0.00000662,0.000003
 27,0.00000084,-0.00000112,-0.00000067,0.00000792,-0.00000505,-0.000001
 93,-0.00001566,-0.00001300,-0.00000319,-0.00000765,-0.00001119,0.00002
 099,0.00000140,-0.00000028,-0.00000250,0.00000384,0.00000102,-0.000002
 98,-0.00000111,-0.00000926,-0.00000191,-0.00000351,0.00000016,0.000000
 77,0.00000109,0.00000051,0.00000247,-0.00000238,-0.00000121,0.00000070
 ,-0.00000063,-0.00000091,-0.00000015\\\@


 CHILDREN YOU ARE VERY LITTLE,
 AND YOUR BONES ARE VERY BRITTLE;
 IF YOU WOULD GROW GREAT AND STATELY
 YOU MUST TRY TO WALK SEDATELY.
 YOU MUST STILL BE BRIGHT AND QUIET,
 AND CONTENT WITH SIMPLE DIET;
 AND REMAIN, THROUGH ALL BEWILD'RING
 INNOCENT AND HONEST CHILDREN.
     -- A CHILD'S GARDEN OF VERSE,
        ROBERT LOUIS STEVENSON
 Job cpu time:  0 days 21 hours  8 minutes  5.2 seconds.
 File lengths (MBytes):  RWF=   1665 Int=      0 D2E=      0 Chk=     28 Scr=      1
 Normal termination of Gaussian 09 at Sun Dec 29 13:19:42 2013.
