 Entering Gaussian System, Link 0=g09
 Initial command:
 /opt/gaussian/g09/l1.exe /panfs/panfs.cluster/home/shuo/Gau-11038.inp -scrdir=/panfs/panfs.cluster/home/shuo/
 Default is to use a total of  12 processors:
                               12 via shared-memory
                                1 via Linda
 Entering Link 1 = /opt/gaussian/g09/l1.exe PID=     11039.
  
 Copyright (c) 1988,1990,1992,1993,1995,1998,2003,2009,2011,
            Gaussian, Inc.  All Rights Reserved.
  
 This is part of the Gaussian(R) 09 program.  It is based on
 the Gaussian(R) 03 system (copyright 2003, Gaussian, Inc.),
 the Gaussian(R) 98 system (copyright 1998, Gaussian, Inc.),
 the Gaussian(R) 94 system (copyright 1995, Gaussian, Inc.),
 the Gaussian 92(TM) system (copyright 1992, Gaussian, Inc.),
 the Gaussian 90(TM) system (copyright 1990, Gaussian, Inc.),
 the Gaussian 88(TM) system (copyright 1988, Gaussian, Inc.),
 the Gaussian 86(TM) system (copyright 1986, Carnegie Mellon
 University), and the Gaussian 82(TM) system (copyright 1983,
 Carnegie Mellon University). Gaussian is a federally registered
 trademark of Gaussian, Inc.
  
 This software contains proprietary and confidential information,
 including trade secrets, belonging to Gaussian, Inc.
  
 This software is provided under written license and may be
 used, copied, transmitted, or stored only in accord with that
 written license.
  
 The following legend is applicable only to US Government
 contracts under FAR:
  
                    RESTRICTED RIGHTS LEGEND
  
 Use, reproduction and disclosure by the US Government is
 subject to restrictions as set forth in subparagraphs (a)
 and (c) of the Commercial Computer Software - Restricted
 Rights clause in FAR 52.227-19.
  
 Gaussian, Inc.
 340 Quinnipiac St., Bldg. 40, Wallingford CT 06492
  
  
 ---------------------------------------------------------------
 Warning -- This program may not be used in any manner that
 competes with the business of Gaussian, Inc. or will provide
 assistance to any competitor of Gaussian, Inc.  The licensee
 of this program is prohibited from giving any competitor of
 Gaussian, Inc. access to this program.  By using this program,
 the user acknowledges that Gaussian, Inc. is engaged in the
 business of creating and licensing software in the field of
 computational chemistry and represents and warrants to the
 licensee that it is not a competitor of Gaussian, Inc. and that
 it will not use this program in any manner prohibited above.
 ---------------------------------------------------------------
  

 Cite this work as:
 Gaussian 09, Revision C.01,
 M. J. Frisch, G. W. Trucks, H. B. Schlegel, G. E. Scuseria, 
 M. A. Robb, J. R. Cheeseman, G. Scalmani, V. Barone, B. Mennucci, 
 G. A. Petersson, H. Nakatsuji, M. Caricato, X. Li, H. P. Hratchian, 
 A. F. Izmaylov, J. Bloino, G. Zheng, J. L. Sonnenberg, M. Hada, 
 M. Ehara, K. Toyota, R. Fukuda, J. Hasegawa, M. Ishida, T. Nakajima, 
 Y. Honda, O. Kitao, H. Nakai, T. Vreven, J. A. Montgomery, Jr., 
 J. E. Peralta, F. Ogliaro, M. Bearpark, J. J. Heyd, E. Brothers, 
 K. N. Kudin, V. N. Staroverov, T. Keith, R. Kobayashi, J. Normand, 
 K. Raghavachari, A. Rendell, J. C. Burant, S. S. Iyengar, J. Tomasi, 
 M. Cossi, N. Rega, J. M. Millam, M. Klene, J. E. Knox, J. B. Cross, 
 V. Bakken, C. Adamo, J. Jaramillo, R. Gomperts, R. E. Stratmann, 
 O. Yazyev, A. J. Austin, R. Cammi, C. Pomelli, J. W. Ochterski, 
 R. L. Martin, K. Morokuma, V. G. Zakrzewski, G. A. Voth, 
 P. Salvador, J. J. Dannenberg, S. Dapprich, A. D. Daniels, 
 O. Farkas, J. B. Foresman, J. V. Ortiz, J. Cioslowski, 
 and D. J. Fox, Gaussian, Inc., Wallingford CT, 2010.
 
 ******************************************
 Gaussian 09:  EM64L-G09RevC.01 23-Sep-2011
                29-Dec-2013 
 ******************************************
 %chk=88_C22H14N4SSeSi.chk
 %NProcShared=12
 Will use up to   12 processors via shared memory.
 %Mem=8000MB
 Default route:  MaxDisk=100GB
 --------------------------------------------
 #B3LYP/6-31++G(d,p) opt scf=direct freq test
 --------------------------------------------
 1/14=-1,18=20,19=15,26=3,38=1/1,3;
 2/9=110,12=2,17=6,18=5,40=1/2;
 3/5=1,6=6,7=1111,11=2,16=1,25=1,30=1,71=1,74=-5/1,2,3;
 4//1;
 5/5=2,38=5/2;
 6/7=2,8=2,9=2,10=2,28=1/1;
 7//1,2,3,16;
 1/14=-1,18=20,19=15/3(2);
 2/9=110/2;
 99//99;
 2/9=110/2;
 3/5=1,6=6,7=1111,11=2,16=1,25=1,30=1,71=1,74=-5/1,2,3;
 4/5=5,16=3/1;
 5/5=2,38=5/2;
 7//1,2,3,16;
 1/14=-1,18=20,19=15/3(-5);
 2/9=110/2;
 6/7=2,8=2,9=2,10=2,19=2,28=1/1;
 99/9=1/99;
 ----------------------------------------------------------------------
 Geom opt of No.88 candidate from the CEPDB database with SMILE code of
  c1cc2csc(-c3cc4[nH]c5c(c4cn3)c3nsnc3c3ccc4nsnc4c53)c2o1, HPC, 2013122
 7, Shuo Dai, Gaussian09
 ----------------------------------------------------------------------
 Charge =  0 Multiplicity = 1
 Symbolic Z-Matrix:
 C                    -1.98843  -0.52504   0.00046 
 C                    -1.57345   0.81244   0.00043 
 C                    -0.16992   0.75533   0.00083 
 C                     0.89558   1.58211   0.00287 
 S                     2.31577   0.62056  -0.00189 
 C                     1.44585  -0.89319  -0.00095 
 C                     2.17195  -2.16074  -0.00097 
 C                     3.57751  -2.1747    0.0012 
 C                     4.20724  -3.41185   0.00016 
 N                     5.56061  -3.73742  -0.00043 
 H                     6.30611  -3.05468   0.00085 
 C                     5.73862  -5.11172  -0.00651 
 C                     4.42127  -5.58511  -0.00252 
 C                     3.45256  -4.57601  -0.00155 
 C                     2.05026  -4.49305  -0.00297 
 N                     1.42807  -3.28609  -0.00315 
 C                     4.1326   -6.98567  -0.00314 
 N                     2.91039  -7.48937  -0.00553 
 S                     3.18556  -9.13812  -0.00864 
 N                     4.85123  -9.14881  -0.00477 
 C                     5.26654  -7.85815  -0.0053 
 C                     6.60663  -7.39186  -0.01077 
 C                     7.58309  -8.40685  -0.01704 
 C                     8.93391  -8.13703  -0.0253 
 C                     9.32199  -6.78364  -0.00579 
 N                     10.59678  -6.41902   0.03237 
 S                     10.59424  -4.77195  -0.03653 
 N                     8.94209  -4.45054  -0.03134 
 C                     8.29557  -5.64381  -0.01611 
 C                     6.88147  -5.96351  -0.01302 
 C                     0.12294  -0.59475  -0.00024 
 O                    -0.94946  -1.44168  -0.00001 
 H                    -2.97406  -0.97593   0.00086 
 H                    -2.22397   1.67601   0.00025 
 H                     1.00199   2.65396   0.00624 
 H                     4.17181  -1.27303   0.00285 
 H                     1.39815  -5.36161  -0.00534 
 H                     7.28224  -9.4564   -0.00343 
 H                     9.68757  -8.9063   -0.03182 
 

 GradGradGradGradGradGradGradGradGradGradGradGradGradGradGradGradGradGrad
 Berny optimization.
 Initialization pass.
                           ----------------------------
                           !    Initial Parameters    !
                           ! (Angstroms and Degrees)  !
 --------------------------                            --------------------------
 ! Name  Definition              Value          Derivative Info.                !
 --------------------------------------------------------------------------------
 ! R1    R(1,2)                  1.4004         estimate D2E/DX2                !
 ! R2    R(1,32)                 1.3855         estimate D2E/DX2                !
 ! R3    R(1,33)                 1.0839         estimate D2E/DX2                !
 ! R4    R(2,3)                  1.4047         estimate D2E/DX2                !
 ! R5    R(2,34)                 1.0812         estimate D2E/DX2                !
 ! R6    R(3,4)                  1.3487         estimate D2E/DX2                !
 ! R7    R(3,31)                 1.3815         estimate D2E/DX2                !
 ! R8    R(4,5)                  1.7151         estimate D2E/DX2                !
 ! R9    R(4,35)                 1.0771         estimate D2E/DX2                !
 ! R10   R(5,6)                  1.7459         estimate D2E/DX2                !
 ! R11   R(6,7)                  1.4608         estimate D2E/DX2                !
 ! R12   R(6,31)                 1.3562         estimate D2E/DX2                !
 ! R13   R(7,8)                  1.4056         estimate D2E/DX2                !
 ! R14   R(7,16)                 1.349          estimate D2E/DX2                !
 ! R15   R(8,9)                  1.3882         estimate D2E/DX2                !
 ! R16   R(8,36)                 1.0799         estimate D2E/DX2                !
 ! R17   R(9,10)                 1.392          estimate D2E/DX2                !
 ! R18   R(9,14)                 1.3874         estimate D2E/DX2                !
 ! R19   R(10,11)                1.0109         estimate D2E/DX2                !
 ! R20   R(10,12)                1.3858         estimate D2E/DX2                !
 ! R21   R(12,13)                1.3998         estimate D2E/DX2                !
 ! R22   R(12,30)                1.4254         estimate D2E/DX2                !
 ! R23   R(13,14)                1.3988         estimate D2E/DX2                !
 ! R24   R(13,17)                1.43           estimate D2E/DX2                !
 ! R25   R(14,15)                1.4048         estimate D2E/DX2                !
 ! R26   R(15,16)                1.3579         estimate D2E/DX2                !
 ! R27   R(15,37)                1.0861         estimate D2E/DX2                !
 ! R28   R(17,18)                1.3219         estimate D2E/DX2                !
 ! R29   R(17,21)                1.4308         estimate D2E/DX2                !
 ! R30   R(18,19)                1.6716         estimate D2E/DX2                !
 ! R31   R(19,20)                1.6657         estimate D2E/DX2                !
 ! R32   R(20,21)                1.3558         estimate D2E/DX2                !
 ! R33   R(21,22)                1.4189         estimate D2E/DX2                !
 ! R34   R(22,23)                1.4084         estimate D2E/DX2                !
 ! R35   R(22,30)                1.4546         estimate D2E/DX2                !
 ! R36   R(23,24)                1.3775         estimate D2E/DX2                !
 ! R37   R(23,38)                1.0919         estimate D2E/DX2                !
 ! R38   R(24,25)                1.4081         estimate D2E/DX2                !
 ! R39   R(24,39)                1.077          estimate D2E/DX2                !
 ! R40   R(25,26)                1.3265         estimate D2E/DX2                !
 ! R41   R(25,29)                1.5339         estimate D2E/DX2                !
 ! R42   R(26,27)                1.6485         estimate D2E/DX2                !
 ! R43   R(27,28)                1.6831         estimate D2E/DX2                !
 ! R44   R(28,29)                1.3572         estimate D2E/DX2                !
 ! R45   R(29,30)                1.4498         estimate D2E/DX2                !
 ! R46   R(31,32)                1.3665         estimate D2E/DX2                !
 ! A1    A(2,1,32)             114.1831         estimate D2E/DX2                !
 ! A2    A(2,1,33)             131.8199         estimate D2E/DX2                !
 ! A3    A(32,1,33)            113.997          estimate D2E/DX2                !
 ! A4    A(1,2,3)              104.9075         estimate D2E/DX2                !
 ! A5    A(1,2,34)             125.772          estimate D2E/DX2                !
 ! A6    A(3,2,34)             129.3205         estimate D2E/DX2                !
 ! A7    A(2,3,4)              139.86           estimate D2E/DX2                !
 ! A8    A(2,3,31)             104.5691         estimate D2E/DX2                !
 ! A9    A(4,3,31)             115.5709         estimate D2E/DX2                !
 ! A10   A(3,4,5)              108.0896         estimate D2E/DX2                !
 ! A11   A(3,4,35)             133.4795         estimate D2E/DX2                !
 ! A12   A(5,4,35)             118.431          estimate D2E/DX2                !
 ! A13   A(4,5,6)               94.2151         estimate D2E/DX2                !
 ! A14   A(5,6,7)              120.3092         estimate D2E/DX2                !
 ! A15   A(5,6,31)             107.1723         estimate D2E/DX2                !
 ! A16   A(7,6,31)             132.5184         estimate D2E/DX2                !
 ! A17   A(6,7,8)              120.3747         estimate D2E/DX2                !
 ! A18   A(6,7,16)             116.7287         estimate D2E/DX2                !
 ! A19   A(8,7,16)             122.8966         estimate D2E/DX2                !
 ! A20   A(7,8,9)              117.5458         estimate D2E/DX2                !
 ! A21   A(7,8,36)             122.8203         estimate D2E/DX2                !
 ! A22   A(9,8,36)             119.6339         estimate D2E/DX2                !
 ! A23   A(8,9,10)             130.5031         estimate D2E/DX2                !
 ! A24   A(8,9,14)             120.0694         estimate D2E/DX2                !
 ! A25   A(10,9,14)            109.4275         estimate D2E/DX2                !
 ! A26   A(9,10,11)            123.9898         estimate D2E/DX2                !
 ! A27   A(9,10,12)            110.9064         estimate D2E/DX2                !
 ! A28   A(11,10,12)           125.1036         estimate D2E/DX2                !
 ! A29   A(10,12,13)           102.3847         estimate D2E/DX2                !
 ! A30   A(10,12,30)           134.0787         estimate D2E/DX2                !
 ! A31   A(13,12,30)           123.5365         estimate D2E/DX2                !
 ! A32   A(12,13,14)           114.0642         estimate D2E/DX2                !
 ! A33   A(12,13,17)           121.4119         estimate D2E/DX2                !
 ! A34   A(14,13,17)           124.5237         estimate D2E/DX2                !
 ! A35   A(9,14,13)            103.2162         estimate D2E/DX2                !
 ! A36   A(9,14,15)            119.5682         estimate D2E/DX2                !
 ! A37   A(13,14,15)           137.2157         estimate D2E/DX2                !
 ! A38   A(14,15,16)           120.6568         estimate D2E/DX2                !
 ! A39   A(14,15,37)           123.5134         estimate D2E/DX2                !
 ! A40   A(16,15,37)           115.8297         estimate D2E/DX2                !
 ! A41   A(7,16,15)            119.2632         estimate D2E/DX2                !
 ! A42   A(13,17,18)           124.0438         estimate D2E/DX2                !
 ! A43   A(13,17,21)           115.9294         estimate D2E/DX2                !
 ! A44   A(18,17,21)           120.0265         estimate D2E/DX2                !
 ! A45   A(17,18,19)           102.9227         estimate D2E/DX2                !
 ! A46   A(18,19,20)            99.8425         estimate D2E/DX2                !
 ! A47   A(19,20,21)           107.4694         estimate D2E/DX2                !
 ! A48   A(17,21,20)           109.7383         estimate D2E/DX2                !
 ! A49   A(17,21,22)           123.239          estimate D2E/DX2                !
 ! A50   A(20,21,22)           127.0225         estimate D2E/DX2                !
 ! A51   A(21,22,23)           114.7067         estimate D2E/DX2                !
 ! A52   A(21,22,30)           120.0773         estimate D2E/DX2                !
 ! A53   A(23,22,30)           125.2159         estimate D2E/DX2                !
 ! A54   A(22,23,24)           122.5965         estimate D2E/DX2                !
 ! A55   A(22,23,38)           120.107          estimate D2E/DX2                !
 ! A56   A(24,23,38)           117.2927         estimate D2E/DX2                !
 ! A57   A(23,24,25)           117.2872         estimate D2E/DX2                !
 ! A58   A(23,24,39)           123.118          estimate D2E/DX2                !
 ! A59   A(25,24,39)           119.589          estimate D2E/DX2                !
 ! A60   A(24,25,26)           121.9705         estimate D2E/DX2                !
 ! A61   A(24,25,29)           121.9863         estimate D2E/DX2                !
 ! A62   A(26,25,29)           116.0415         estimate D2E/DX2                !
 ! A63   A(25,26,27)           105.7808         estimate D2E/DX2                !
 ! A64   A(26,27,28)           101.0798         estimate D2E/DX2                !
 ! A65   A(27,28,29)           107.4411         estimate D2E/DX2                !
 ! A66   A(25,29,28)           109.5507         estimate D2E/DX2                !
 ! A67   A(25,29,30)           119.2621         estimate D2E/DX2                !
 ! A68   A(28,29,30)           131.1869         estimate D2E/DX2                !
 ! A69   A(12,30,22)           115.8055         estimate D2E/DX2                !
 ! A70   A(12,30,29)           130.5629         estimate D2E/DX2                !
 ! A71   A(22,30,29)           113.631          estimate D2E/DX2                !
 ! A72   A(3,31,6)             114.9518         estimate D2E/DX2                !
 ! A73   A(3,31,32)            116.061          estimate D2E/DX2                !
 ! A74   A(6,31,32)            128.9873         estimate D2E/DX2                !
 ! A75   A(1,32,31)            100.2794         estimate D2E/DX2                !
 ! D1    D(32,1,2,3)            -0.0391         estimate D2E/DX2                !
 ! D2    D(32,1,2,34)          179.9673         estimate D2E/DX2                !
 ! D3    D(33,1,2,3)           179.9555         estimate D2E/DX2                !
 ! D4    D(33,1,2,34)           -0.0381         estimate D2E/DX2                !
 ! D5    D(2,1,32,31)            0.0038         estimate D2E/DX2                !
 ! D6    D(33,1,32,31)        -179.9918         estimate D2E/DX2                !
 ! D7    D(1,2,3,4)           -179.8793         estimate D2E/DX2                !
 ! D8    D(1,2,3,31)             0.0557         estimate D2E/DX2                !
 ! D9    D(34,2,3,4)             0.1141         estimate D2E/DX2                !
 ! D10   D(34,2,3,31)         -179.9509         estimate D2E/DX2                !
 ! D11   D(2,3,4,5)           -179.8819         estimate D2E/DX2                !
 ! D12   D(2,3,4,35)             0.0874         estimate D2E/DX2                !
 ! D13   D(31,3,4,5)             0.1879         estimate D2E/DX2                !
 ! D14   D(31,3,4,35)         -179.8429         estimate D2E/DX2                !
 ! D15   D(2,3,31,6)           179.9592         estimate D2E/DX2                !
 ! D16   D(2,3,31,32)           -0.0608         estimate D2E/DX2                !
 ! D17   D(4,3,31,6)            -0.0873         estimate D2E/DX2                !
 ! D18   D(4,3,31,32)          179.8927         estimate D2E/DX2                !
 ! D19   D(3,4,5,6)             -0.1858         estimate D2E/DX2                !
 ! D20   D(35,4,5,6)           179.8396         estimate D2E/DX2                !
 ! D21   D(4,5,6,7)           -179.8572         estimate D2E/DX2                !
 ! D22   D(4,5,6,31)             0.1399         estimate D2E/DX2                !
 ! D23   D(5,6,7,8)              0.1392         estimate D2E/DX2                !
 ! D24   D(5,6,7,16)          -179.8605         estimate D2E/DX2                !
 ! D25   D(31,6,7,8)          -179.857          estimate D2E/DX2                !
 ! D26   D(31,6,7,16)            0.1433         estimate D2E/DX2                !
 ! D27   D(5,6,31,3)            -0.058          estimate D2E/DX2                !
 ! D28   D(5,6,31,32)          179.9651         estimate D2E/DX2                !
 ! D29   D(7,6,31,3)           179.9386         estimate D2E/DX2                !
 ! D30   D(7,6,31,32)           -0.0383         estimate D2E/DX2                !
 ! D31   D(6,7,8,9)           -179.9582         estimate D2E/DX2                !
 ! D32   D(6,7,8,36)            -0.0056         estimate D2E/DX2                !
 ! D33   D(16,7,8,9)             0.0415         estimate D2E/DX2                !
 ! D34   D(16,7,8,36)          179.9941         estimate D2E/DX2                !
 ! D35   D(6,7,16,15)         -179.9852         estimate D2E/DX2                !
 ! D36   D(8,7,16,15)            0.0151         estimate D2E/DX2                !
 ! D37   D(7,8,9,10)           179.8826         estimate D2E/DX2                !
 ! D38   D(7,8,9,14)            -0.0654         estimate D2E/DX2                !
 ! D39   D(36,8,9,10)           -0.0716         estimate D2E/DX2                !
 ! D40   D(36,8,9,14)          179.9805         estimate D2E/DX2                !
 ! D41   D(8,9,10,11)            0.0682         estimate D2E/DX2                !
 ! D42   D(8,9,10,12)         -179.7759         estimate D2E/DX2                !
 ! D43   D(14,9,10,11)        -179.9796         estimate D2E/DX2                !
 ! D44   D(14,9,10,12)           0.1764         estimate D2E/DX2                !
 ! D45   D(8,9,14,13)          179.9845         estimate D2E/DX2                !
 ! D46   D(8,9,14,15)            0.0352         estimate D2E/DX2                !
 ! D47   D(10,9,14,13)           0.0264         estimate D2E/DX2                !
 ! D48   D(10,9,14,15)        -179.9228         estimate D2E/DX2                !
 ! D49   D(9,10,12,13)          -0.2924         estimate D2E/DX2                !
 ! D50   D(9,10,12,30)         179.8091         estimate D2E/DX2                !
 ! D51   D(11,10,12,13)        179.8656         estimate D2E/DX2                !
 ! D52   D(11,10,12,30)         -0.0328         estimate D2E/DX2                !
 ! D53   D(10,12,13,14)          0.3226         estimate D2E/DX2                !
 ! D54   D(10,12,13,17)       -179.8356         estimate D2E/DX2                !
 ! D55   D(30,12,13,14)       -179.7649         estimate D2E/DX2                !
 ! D56   D(30,12,13,17)          0.0769         estimate D2E/DX2                !
 ! D57   D(10,12,30,22)        179.6785         estimate D2E/DX2                !
 ! D58   D(10,12,30,29)         -0.0333         estimate D2E/DX2                !
 ! D59   D(13,12,30,22)         -0.2025         estimate D2E/DX2                !
 ! D60   D(13,12,30,29)       -179.9143         estimate D2E/DX2                !
 ! D61   D(12,13,14,9)          -0.2243         estimate D2E/DX2                !
 ! D62   D(12,13,14,15)        179.7107         estimate D2E/DX2                !
 ! D63   D(17,13,14,9)         179.9396         estimate D2E/DX2                !
 ! D64   D(17,13,14,15)         -0.1254         estimate D2E/DX2                !
 ! D65   D(12,13,17,18)       -179.6852         estimate D2E/DX2                !
 ! D66   D(12,13,17,21)          0.1224         estimate D2E/DX2                !
 ! D67   D(14,13,17,18)          0.1394         estimate D2E/DX2                !
 ! D68   D(14,13,17,21)        179.947          estimate D2E/DX2                !
 ! D69   D(9,14,15,16)           0.0228         estimate D2E/DX2                !
 ! D70   D(9,14,15,37)         179.9367         estimate D2E/DX2                !
 ! D71   D(13,14,15,16)       -179.9044         estimate D2E/DX2                !
 ! D72   D(13,14,15,37)          0.0095         estimate D2E/DX2                !
 ! D73   D(14,15,16,7)          -0.0476         estimate D2E/DX2                !
 ! D74   D(37,15,16,7)        -179.9678         estimate D2E/DX2                !
 ! D75   D(13,17,18,19)        179.8744         estimate D2E/DX2                !
 ! D76   D(21,17,18,19)          0.0742         estimate D2E/DX2                !
 ! D77   D(13,17,21,20)        179.9596         estimate D2E/DX2                !
 ! D78   D(13,17,21,22)         -0.193          estimate D2E/DX2                !
 ! D79   D(18,17,21,20)         -0.2245         estimate D2E/DX2                !
 ! D80   D(18,17,21,22)        179.623          estimate D2E/DX2                !
 ! D81   D(17,18,19,20)          0.0718         estimate D2E/DX2                !
 ! D82   D(18,19,20,21)         -0.1967         estimate D2E/DX2                !
 ! D83   D(19,20,21,17)          0.2465         estimate D2E/DX2                !
 ! D84   D(19,20,21,22)       -179.5936         estimate D2E/DX2                !
 ! D85   D(17,21,22,23)       -179.7795         estimate D2E/DX2                !
 ! D86   D(17,21,22,30)          0.0668         estimate D2E/DX2                !
 ! D87   D(20,21,22,23)          0.0406         estimate D2E/DX2                !
 ! D88   D(20,21,22,30)        179.887          estimate D2E/DX2                !
 ! D89   D(21,22,23,24)        179.8811         estimate D2E/DX2                !
 ! D90   D(21,22,23,38)         -0.8477         estimate D2E/DX2                !
 ! D91   D(30,22,23,24)          0.0438         estimate D2E/DX2                !
 ! D92   D(30,22,23,38)        179.315          estimate D2E/DX2                !
 ! D93   D(21,22,30,12)          0.1296         estimate D2E/DX2                !
 ! D94   D(21,22,30,29)        179.8906         estimate D2E/DX2                !
 ! D95   D(23,22,30,12)        179.9588         estimate D2E/DX2                !
 ! D96   D(23,22,30,29)         -0.2802         estimate D2E/DX2                !
 ! D97   D(22,23,24,25)          0.9875         estimate D2E/DX2                !
 ! D98   D(22,23,24,39)       -179.893          estimate D2E/DX2                !
 ! D99   D(38,23,24,25)       -178.303          estimate D2E/DX2                !
 ! D100  D(38,23,24,39)          0.8164         estimate D2E/DX2                !
 ! D101  D(23,24,25,26)        177.756          estimate D2E/DX2                !
 ! D102  D(23,24,25,29)         -1.7466         estimate D2E/DX2                !
 ! D103  D(39,24,25,26)         -1.3959         estimate D2E/DX2                !
 ! D104  D(39,24,25,29)        179.1015         estimate D2E/DX2                !
 ! D105  D(24,25,26,27)        177.1362         estimate D2E/DX2                !
 ! D106  D(29,25,26,27)         -3.3334         estimate D2E/DX2                !
 ! D107  D(24,25,29,28)       -178.2778         estimate D2E/DX2                !
 ! D108  D(24,25,29,30)          1.5328         estimate D2E/DX2                !
 ! D109  D(26,25,29,28)          2.1919         estimate D2E/DX2                !
 ! D110  D(26,25,29,30)       -177.9976         estimate D2E/DX2                !
 ! D111  D(25,26,27,28)          3.042          estimate D2E/DX2                !
 ! D112  D(26,27,28,29)         -1.8571         estimate D2E/DX2                !
 ! D113  D(27,28,29,25)          0.164          estimate D2E/DX2                !
 ! D114  D(27,28,29,30)       -179.6165         estimate D2E/DX2                !
 ! D115  D(25,29,30,12)        179.2498         estimate D2E/DX2                !
 ! D116  D(25,29,30,22)         -0.467          estimate D2E/DX2                !
 ! D117  D(28,29,30,12)         -0.9874         estimate D2E/DX2                !
 ! D118  D(28,29,30,22)        179.2958         estimate D2E/DX2                !
 ! D119  D(3,31,32,1)            0.0361         estimate D2E/DX2                !
 ! D120  D(6,31,32,1)         -179.9872         estimate D2E/DX2                !
 --------------------------------------------------------------------------------
 Trust Radius=3.00D-01 FncErr=1.00D-07 GrdErr=1.00D-06
 Number of steps in this run=    234 maximum allowed number of steps=    234.
 GradGradGradGradGradGradGradGradGradGradGradGradGradGradGradGradGradGrad

                          Input orientation:                          
 ---------------------------------------------------------------------
 Center     Atomic      Atomic             Coordinates (Angstroms)
 Number     Number       Type             X           Y           Z
 ---------------------------------------------------------------------
      1          6           0       -1.988430   -0.525040    0.000460
      2          6           0       -1.573450    0.812440    0.000430
      3          6           0       -0.169920    0.755330    0.000830
      4          6           0        0.895580    1.582110    0.002870
      5         16           0        2.315770    0.620560   -0.001890
      6          6           0        1.445850   -0.893190   -0.000950
      7          6           0        2.171950   -2.160740   -0.000970
      8          6           0        3.577510   -2.174700    0.001200
      9          6           0        4.207240   -3.411850    0.000160
     10          7           0        5.560610   -3.737420   -0.000430
     11          1           0        6.306110   -3.054680    0.000850
     12          6           0        5.738620   -5.111720   -0.006510
     13          6           0        4.421270   -5.585110   -0.002520
     14          6           0        3.452560   -4.576010   -0.001550
     15          6           0        2.050260   -4.493050   -0.002970
     16          7           0        1.428070   -3.286090   -0.003150
     17          6           0        4.132600   -6.985670   -0.003140
     18          7           0        2.910390   -7.489370   -0.005530
     19         16           0        3.185560   -9.138120   -0.008640
     20          7           0        4.851230   -9.148810   -0.004770
     21          6           0        5.266540   -7.858150   -0.005300
     22          6           0        6.606630   -7.391860   -0.010770
     23          6           0        7.583090   -8.406850   -0.017040
     24          6           0        8.933910   -8.137030   -0.025300
     25          6           0        9.321990   -6.783640   -0.005790
     26          7           0       10.596780   -6.419020    0.032370
     27         16           0       10.594240   -4.771950   -0.036530
     28          7           0        8.942090   -4.450540   -0.031340
     29          6           0        8.295570   -5.643810   -0.016110
     30          6           0        6.881470   -5.963510   -0.013020
     31          6           0        0.122940   -0.594750   -0.000240
     32          8           0       -0.949460   -1.441680   -0.000010
     33          1           0       -2.974060   -0.975930    0.000860
     34          1           0       -2.223970    1.676010    0.000250
     35          1           0        1.001990    2.653960    0.006240
     36          1           0        4.171810   -1.273030    0.002850
     37          1           0        1.398150   -5.361610   -0.005340
     38          1           0        7.282240   -9.456400   -0.003430
     39          1           0        9.687570   -8.906300   -0.031820
 ---------------------------------------------------------------------
                    Distance matrix (angstroms):
                    1          2          3          4          5
     1  C    0.000000
     2  C    1.400379   0.000000
     3  C    2.224034   1.404691   0.000000
     4  C    3.571778   2.586215   1.348651   0.000000
     5  S    4.454048   3.893951   2.489342   1.715092   0.000000
     6  C    3.453957   3.467758   2.308318   2.535729   1.745910
     7  C    4.470378   4.782031   3.740030   3.954499   2.785016
     8  C    5.805262   5.954443   4.756922   4.615883   3.066835
     9  C    6.835203   7.159679   6.043585   5.992223   4.453986
    10  N    8.204108   8.461444   7.281743   7.075303   5.433321
    11  H    8.671705   8.777362   7.513664   7.125564   5.424962
    12  C    8.985821   9.410743   8.326654   8.262111   6.676448
    13  C    8.166307   8.767287   7.828168   7.987463   6.553127
    14  C    6.783416   7.368594   6.445584   6.667879   5.319458
    15  C    5.661813   6.424913   5.698658   6.183922   5.120498
    16  N    4.392708   5.080067   4.345879   4.897239   4.006236
    17  C    8.899818   9.662791   8.856341   9.158886   7.820205
    18  N    8.514715   9.435301   8.801331   9.292539   8.131700
    19  S   10.047657  11.030045  10.446994  10.962093   9.797368
    20  N   11.006834  11.853398  11.104232  11.436777  10.093025
    21  C   10.315480  11.043760  10.185636  10.403070   8.977504
    22  C   11.001291  11.585524  10.597097  10.637124   9.089028
    23  C   12.399082  12.993762  12.002293  12.020920  10.451747
    24  C   13.313173  13.802112  12.726133  12.612582  10.977054
    25  C   12.926551  13.281983  12.121570  11.873931  10.193592
    26  N   13.897033  14.156607  12.938088  12.575064  10.868854
    27  S   13.280105  13.388034  12.100387  11.594811   9.879951
    28  N   11.614079  11.759105  10.494324  10.056856   8.344162
    29  C   11.487504  11.793261  10.611965  10.342830   8.660285
    30  C   10.404435  10.835098   9.739872   9.631589   8.012223
    31  C    2.112521   2.204070   1.381479   2.309914   2.507087
    32  O    1.385528   2.338893   2.331209   3.542243   3.861938
    33  H    1.083867   2.271558   3.295522   4.638716   5.525494
    34  H    2.213617   1.081170   2.250949   3.120964   4.660817
    35  H    4.364480   3.166089   2.231188   1.077124   2.420909
    36  H    6.205486   6.112054   4.792167   4.345746   2.651526
    37  H    5.904352   6.851958   6.314732   6.961888   6.052140
    38  H   12.873016  13.559953  12.641762  12.752967  11.234365
    39  H   14.372736  14.874996  13.802836  13.686016  12.045970
                    6          7          8          9         10
     6  C    0.000000
     7  C    1.460789   0.000000
     8  C    2.487217   1.405631   0.000000
     9  C    3.737502   2.389076   1.388201   0.000000
    10  N    5.002089   3.737504   2.524833   1.391979   0.000000
    11  H    5.319226   4.229706   2.866988   2.129043   1.010894
    12  C    6.018629   4.629195   3.646442   2.287953   1.385794
    13  C    5.555829   4.097042   3.513238   2.183775   2.170728
    14  C    4.194049   2.733769   2.404560   1.387376   2.268724
    15  C    3.650248   2.335483   2.776195   2.412792   3.590758
    16  N    2.392967   1.348990   2.419773   2.782016   4.157114
    17  C    6.658599   5.208081   4.842889   3.574601   3.548288
    18  N    6.756811   5.379555   5.356380   4.278787   4.593563
    19  S    8.426477   7.050624   6.974449   5.816707   5.899872
    20  N    8.930391   7.484095   7.089472   5.772994   5.457690
    21  C    7.944077   6.483594   5.929120   4.570747   4.131212
    22  C    8.298582   6.857922   6.032783   4.647329   3.801210
    23  C    9.701601   8.264054   7.408421   6.028821   5.088642
    24  C   10.418486   9.024452   8.015055   6.683516   5.544036
    25  C    9.835192   8.514358   7.364878   6.126146   4.840193
    26  N   10.689969   9.439906   8.202766   7.061893   5.705704
    27  S    9.936754   8.817860   7.482087   6.530313   5.138967
    28  N    8.297546   7.146951   5.827454   4.847543   3.455995
    29  C    8.335903   7.044908   5.856203   4.657934   3.333853
    30  C    7.433321   6.053163   5.027070   3.696302   2.588495
    31  C    1.356156   2.578908   3.798723   4.961609   6.280496
    32  O    2.457306   3.203162   4.585933   5.520247   6.903002
    33  H    4.420685   5.280644   6.660339   7.583190   8.970308
    34  H    4.479773   5.834789   6.963127   8.200413   9.481820
    35  H    3.574820   4.954815   5.472594   6.860591   7.850529
    36  H    2.752299   2.188032   1.079909   2.139115   2.828780
    37  H    4.468677   3.293077   3.860835   3.419442   4.468119
    38  H   10.363012   8.907397   8.169957   6.781757   5.972500
    39  H   11.495079  10.098915   9.091114   7.760414   6.614386
                   11         12         13         14         15
    11  H    0.000000
    12  C    2.133896   0.000000
    13  C    3.155267   1.399830   0.000000
    14  C    3.233759   2.347995   1.398815   0.000000
    15  C    4.492347   3.739888   2.610418   1.404753   0.000000
    16  N    4.883527   4.681215   3.774220   2.400512   1.357893
    17  C    4.491864   2.467995   1.430000   2.503781   3.247968
    18  N    5.585466   3.694876   2.430838   2.963382   3.117333
    19  S    6.837117   4.767601   3.761768   4.569922   4.781800
    20  N    6.265391   4.133468   3.589544   4.781923   5.433373
    21  C    4.914679   2.786708   2.425119   3.750064   4.654929
    22  C    4.347594   2.439774   2.835527   4.228150   5.400340
    23  C    5.502429   3.776250   4.237869   5.633547   6.777185
    24  C    5.721564   4.400310   5.184278   6.536561   7.788692
    25  C    4.795906   3.954220   5.045150   6.270874   7.623967
    26  N    5.452488   5.031129   6.231657   7.378192   8.760914
    27  S    4.619358   4.867586   6.226391   7.144453   8.548597
    28  N    2.982927   3.271085   4.661104   5.491045   6.892019
    29  C    3.265246   2.611744   3.874768   4.959350   6.350458
    30  C    2.965219   1.425375   2.489153   3.699015   5.050044
    31  C    6.654536   7.206866   6.586299   5.190068   4.348714
    32  O    7.432702   7.628870   6.783271   5.403870   4.278924
    33  H    9.510140   9.644460   8.714095   7.366276   6.133020
    34  H    9.754060  10.463086   9.842921   8.444569   7.505089
    35  H    7.792451   9.096242   8.920416   7.633991   7.223483
    36  H    2.780201   4.146145   4.319293   3.380387   3.856104
    37  H    5.423102   4.347658   3.031372   2.199496   1.086117
    38  H    6.475714   4.610750   4.813734   6.203600   7.211689
    39  H    6.758461   5.476649   6.226161   7.591290   8.820777
                   16         17         18         19         20
    16  N    0.000000
    17  C    4.582726   0.000000
    18  N    4.456999   1.321937   0.000000
    19  S    6.110242   2.351586   1.671558   0.000000
    20  N    6.788926   2.279387   2.553547   1.665709   0.000000
    21  C    5.969723   1.430750   2.384836   2.443115   1.355834
    22  C    6.608698   2.507164   3.697530   3.840983   2.483614
    23  C    8.006663   3.731732   4.761935   4.457925   2.830850
    24  C    8.936987   4.937479   6.058271   5.834894   4.206233
    25  C    8.634051   5.193322   6.450323   6.572622   5.057838
    26  N    9.689260   6.489066   7.760649   7.894388   6.361170
    27  S    9.285880   6.830407   8.150269   8.599579   7.220809
    28  N    7.603765   5.436807   6.754003   7.423716   6.229734
    29  C    7.260962   4.373909   5.692659   6.190514   4.914126
    30  C    6.075216   2.932779   4.254149   4.872157   3.777311
    31  C    2.991101   7.544617   7.436780   9.075730   9.773878
    32  O    3.009071   7.520849   7.174470   8.736913   9.646133
    33  H    4.971479   9.307073   8.777909  10.225574  11.315086
    34  H    6.161156  10.743868  10.505516  12.091671  12.931945
    35  H    5.955319  10.135249  10.321302  11.992554  12.414594
    36  H    3.403022   5.712778   6.343038   7.926693   7.905035
    37  H    2.075737   3.180376   2.610408   4.178142   5.125100
    38  H    8.505529   4.003091   4.793984   4.109029   2.450392
    39  H    9.990341   5.877698   6.923767   6.506183   4.842492
                   21         22         23         24         25
    21  C    0.000000
    22  C    1.418907   0.000000
    23  C    2.380675   1.408445   0.000000
    24  C    3.678013   2.443711   1.377529   0.000000
    25  C    4.195384   2.782649   2.378804   1.408066   0.000000
    26  N    5.521229   4.107259   3.610573   2.391657   1.326459
    27  S    6.157109   4.771334   4.720159   3.752411   2.380433
    28  N    5.012200   3.755817   4.183237   3.686504   2.363965
    29  C    3.752125   2.430684   2.853422   2.573657   1.533903
    30  C    2.489522   1.454553   2.542085   2.989456   2.574646
    31  C    8.900204   9.393564  10.801992  11.598267  11.087151
    32  O    8.933631   9.617653  11.014458  11.937728  11.577532
    33  H   10.736502  11.530564  12.910163  13.895387  13.598617
    34  H   12.124685  12.657246  14.065660  14.859162  14.313452
    35  H   11.344205  11.503512  12.870623  13.392603  12.581369
    36  H    6.675500   6.585485   7.907504   8.354214   7.542629
    37  H    4.604037   5.590189   6.893991   8.030631   8.050429
    38  H    2.572441   2.172286   1.091903   2.114055   3.362177
    39  H    4.543658   3.433098   2.162985   1.076950   2.154069
                   26         27         28         29         30
    26  N    0.000000
    27  S    1.648512   0.000000
    28  N    2.572347   1.683131   0.000000
    29  C    2.428759   2.458544   1.357245   0.000000
    30  C    3.743405   3.899363   2.556476   1.449792   0.000000
    31  C   11.984344  11.273794   9.625253   9.606515   8.631424
    32  O   12.573409  12.014535  10.339100  10.155232   9.042709
    33  H   14.621762  14.089355  12.412437  12.198113  11.045706
    34  H   15.162525  14.348660  12.736424  12.815645  11.885768
    35  H   13.205288  12.130838  10.654601  11.047615  10.432135
    36  H    8.231787   7.313795   5.731781   6.009116   5.416928
    37  H    9.259284   9.215028   7.598800   6.903199   5.516261
    38  H    4.495902   5.737117   5.273947   3.944977   3.515820
    39  H    2.649027   4.232602   4.517692   3.547077   4.066271
                   31         32         33         34         35
    31  C    0.000000
    32  O    1.366504   0.000000
    33  H    3.120370   2.077481   0.000000
    34  H    3.265630   3.368140   2.755979   0.000000
    35  H    3.365544   4.536790   5.383782   3.370941   0.000000
    36  H    4.105292   5.124047   7.152044   7.042929   5.046684
    37  H    4.934485   4.569152   6.192774   7.915041   8.025362
    38  H   11.392297  11.488979  13.308271  14.638941  13.641937
    39  H   12.671425  12.994921  14.940171  15.933333  14.459611
                   36         37         38         39
    36  H    0.000000
    37  H    4.940622   0.000000
    38  H    8.754562   7.168670   0.000000
    39  H    9.417623   9.015543   2.467596   0.000000
 Stoichiometry    C21H8N6OS3
 Framework group  C1[X(C21H8N6OS3)]
 Deg. of freedom   111
 Full point group                 C1      NOp   1
 Largest Abelian subgroup         C1      NOp   1
 Largest concise Abelian subgroup C1      NOp   1
                         Standard orientation:                         
 ---------------------------------------------------------------------
 Center     Atomic      Atomic             Coordinates (Angstroms)
 Number     Number       Type             X           Y           Z
 ---------------------------------------------------------------------
      1          6           0        7.226328    1.293809   -0.003987
      2          6           0        7.787714    0.010881   -0.003271
      3          6           0        6.689016   -0.864340   -0.000422
      4          6           0        6.424312   -2.186753    0.003491
      5         16           0        4.721183   -2.388957    0.001194
      6          6           0        4.388473   -0.675042    0.000591
      7          6           0        3.009977   -0.191665    0.001818
      8          6           0        1.937981   -1.100842    0.006441
      9          6           0        0.652251   -0.577394    0.006481
     10          7           0       -0.584187   -1.216788    0.008248
     11          1           0       -0.701167   -2.220887    0.010840
     12          6           0       -1.618086   -0.294050    0.002456
     13          6           0       -0.931686    0.925941    0.004139
     14          6           0        0.461151    0.796754    0.003435
     15          6           0        1.575833    1.651622   -0.000431
     16          7           0        2.836105    1.146068   -0.001678
     17          6           0       -1.629864    2.173917    0.002993
     18          7           0       -1.035249    3.354565   -0.001538
     19         16           0       -2.322202    4.421265   -0.004194
     20          7           0       -3.588748    3.339413    0.002583
     21          6           0       -3.058248    2.091672    0.002798
     22          6           0       -3.766492    0.862169   -0.000325
     23          6           0       -5.169050    0.990731   -0.004907
     24          6           0       -6.013972   -0.097229   -0.010805
     25          6           0       -5.421808   -1.374563    0.009404
     26          7           0       -6.147144   -2.484405    0.049794
     27         16           0       -5.067543   -3.728315   -0.019084
     28          7           0       -3.607888   -2.890262   -0.016772
     29          6           0       -3.899803   -1.564856   -0.002690
     30          6           0       -3.039675   -0.397776   -0.002073
     31          6           0        5.584125   -0.035064   -0.001003
     32          8           0        5.840864    1.307104   -0.002658
     33          1           0        7.676604    2.279719   -0.005314
     34          1           0        8.844710   -0.216468   -0.004573
     35          1           0        7.045222   -3.066898    0.007063
     36          1           0        2.078596   -2.171554    0.009143
     37          1           0        1.500598    2.735124   -0.003953
     38          1           0       -5.628313    1.981265    0.008161
     39          1           0       -7.087264   -0.008686   -0.016022
 ---------------------------------------------------------------------
 Rotational constants (GHZ):      0.2278509      0.0595007      0.0471806
 Standard basis: 6-31++G(d,p) (6D, 7F)
 There are   649 symmetry adapted basis functions of A   symmetry.
 Integral buffers will be    131072 words long.
 Raffenetti 2 integral format.
 Two-electron integral symmetry is turned on.
   649 basis functions,  1128 primitive gaussians,   649 cartesian basis functions
   116 alpha electrons      116 beta electrons
       nuclear repulsion energy      3153.4413310001 Hartrees.
 NAtoms=   39 NActive=   39 NUniq=   39 SFac= 1.00D+00 NAtFMM=   60 NAOKFM=F Big=F
 One-electron integrals computed using PRISM.
 NBasis=   649 RedAO= T  NBF=   649
 NBsUse=   635 1.00D-06 NBFU=   635
 Harris functional with IExCor=  402 diagonalized for initial guess.
 ExpMin= 3.60D-02 ExpMax= 2.19D+04 ExpMxC= 3.30D+03 IAcc=3 IRadAn=         5 AccDes= 0.00D+00
 HarFok:  IExCor=  402 AccDes= 0.00D+00 IRadAn=         5 IDoV= 1
 ScaDFX=  1.000000  1.000000  1.000000  1.000000
 FoFCou: FMM=F IPFlag=           0 FMFlag=      100000 FMFlg1=           0
         NFxFlg=           0 DoJE=T BraDBF=F KetDBF=T FulRan=T
         Omega=  0.000000  0.000000  1.000000  0.000000  0.000000 ICntrl=     500 IOpCl=  0
         NMat0=    1 NMatS0=    1 NMatT0=    0 NMatD0=    1 NMtDS0=    0 NMtDT0=    0
         I1Cent=           4 NGrid=           0.
 Petite list used in FoFCou.
 Initial guess orbital symmetries:
       Occupied  (A) (A) (A) (A) (A) (A) (A) (A) (A) (A) (A) (A)
                 (A) (A) (A) (A) (A) (A) (A) (A) (A) (A) (A) (A)
                 (A) (A) (A) (A) (A) (A) (A) (A) (A) (A) (A) (A)
                 (A) (A) (A) (A) (A) (A) (A) (A) (A) (A) (A) (A)
                 (A) (A) (A) (A) (A) (A) (A) (A) (A) (A) (A) (A)
                 (A) (A) (A) (A) (A) (A) (A) (A) (A) (A) (A) (A)
                 (A) (A) (A) (A) (A) (A) (A) (A) (A) (A) (A) (A)
                 (A) (A) (A) (A) (A) (A) (A) (A) (A) (A) (A) (A)
                 (A) (A) (A) (A) (A) (A) (A) (A) (A) (A) (A) (A)
                 (A) (A) (A) (A) (A) (A) (A) (A)
       Virtual   (A) (A) (A) (A) (A) (A) (A) (A) (A) (A) (A) (A)
                 (A) (A) (A) (A) (A) (A) (A) (A) (A) (A) (A) (A)
                 (A) (A) (A) (A) (A) (A) (A) (A) (A) (A) (A) (A)
                 (A) (A) (A) (A) (A) (A) (A) (A) (A) (A) (A) (A)
                 (A) (A) (A) (A) (A) (A) (A) (A) (A) (A) (A) (A)
                 (A) (A) (A) (A) (A) (A) (A) (A) (A) (A) (A) (A)
                 (A) (A) (A) (A) (A) (A) (A) (A) (A) (A) (A) (A)
                 (A) (A) (A) (A) (A) (A) (A) (A) (A) (A) (A) (A)
                 (A) (A) (A) (A) (A) (A) (A) (A) (A) (A) (A) (A)
                 (A) (A) (A) (A) (A) (A) (A) (A) (A) (A) (A) (A)
                 (A) (A) (A) (A) (A) (A) (A) (A) (A) (A) (A) (A)
                 (A) (A) (A) (A) (A) (A) (A) (A) (A) (A) (A) (A)
                 (A) (A) (A) (A) (A) (A) (A) (A) (A) (A) (A) (A)
                 (A) (A) (A) (A) (A) (A) (A) (A) (A) (A) (A) (A)
                 (A) (A) (A) (A) (A) (A) (A) (A) (A) (A) (A) (A)
                 (A) (A) (A) (A) (A) (A) (A) (A) (A) (A) (A) (A)
                 (A) (A) (A) (A) (A) (A) (A) (A) (A) (A) (A) (A)
                 (A) (A) (A) (A) (A) (A) (A) (A) (A) (A) (A) (A)
                 (A) (A) (A) (A) (A) (A) (A) (A) (A) (A) (A) (A)
                 (A) (A) (A) (A) (A) (A) (A) (A) (A) (A) (A) (A)
                 (A) (A) (A) (A) (A) (A) (A) (A) (A) (A) (A) (A)
                 (A) (A) (A) (A) (A) (A) (A) (A) (A) (A) (A) (A)
                 (A) (A) (A) (A) (A) (A) (A) (A) (A) (A) (A) (A)
                 (A) (A) (A) (A) (A) (A) (A) (A) (A) (A) (A) (A)
                 (A) (A) (A) (A) (A) (A) (A) (A) (A) (A) (A) (A)
                 (A) (A) (A) (A) (A) (A) (A) (A) (A) (A) (A) (A)
                 (A) (A) (A) (A) (A) (A) (A) (A) (A) (A) (A) (A)
                 (A) (A) (A) (A) (A) (A) (A) (A) (A) (A) (A) (A)
                 (A) (A) (A) (A) (A) (A) (A) (A) (A) (A) (A) (A)
                 (A) (A) (A) (A) (A) (A) (A) (A) (A) (A) (A) (A)
                 (A) (A) (A) (A) (A) (A) (A) (A) (A) (A) (A) (A)
                 (A) (A) (A) (A) (A) (A) (A) (A) (A) (A) (A) (A)
                 (A) (A) (A) (A) (A) (A) (A) (A) (A) (A) (A) (A)
                 (A) (A) (A) (A) (A) (A) (A) (A) (A) (A) (A) (A)
                 (A) (A) (A) (A) (A) (A) (A) (A) (A) (A) (A) (A)
                 (A) (A) (A) (A) (A) (A) (A) (A) (A) (A) (A) (A)
                 (A) (A) (A) (A) (A) (A) (A) (A) (A) (A) (A) (A)
                 (A) (A) (A) (A) (A) (A) (A) (A) (A) (A) (A) (A)
                 (A) (A) (A) (A) (A) (A) (A) (A) (A) (A) (A) (A)
                 (A) (A) (A) (A) (A) (A) (A) (A) (A) (A) (A) (A)
                 (A) (A) (A) (A) (A) (A) (A) (A) (A) (A) (A) (A)
                 (A) (A) (A) (A) (A) (A) (A) (A) (A) (A) (A) (A)
                 (A) (A) (A) (A) (A) (A) (A) (A) (A) (A) (A) (A)
                 (A) (A) (A)
 The electronic state of the initial guess is 1-A.
 Requested convergence on RMS density matrix=1.00D-08 within 128 cycles.
 Requested convergence on MAX density matrix=1.00D-06.
 Requested convergence on             energy=1.00D-06.
 No special actions if energy rises.
 EnCoef did     2 forward-backward iterations
 SCF Done:  E(RB3LYP) =  -2403.34012556     A.U. after   18 cycles
             Convg  =    0.5851D-08             -V/T =  2.0062

 **********************************************************************

            Population analysis using the SCF density.

 **********************************************************************

 Orbital symmetries:
       Occupied  (A) (A) (A) (A) (A) (A) (A) (A) (A) (A) (A) (A)
                 (A) (A) (A) (A) (A) (A) (A) (A) (A) (A) (A) (A)
                 (A) (A) (A) (A) (A) (A) (A) (A) (A) (A) (A) (A)
                 (A) (A) (A) (A) (A) (A) (A) (A) (A) (A) (A) (A)
                 (A) (A) (A) (A) (A) (A) (A) (A) (A) (A) (A) (A)
                 (A) (A) (A) (A) (A) (A) (A) (A) (A) (A) (A) (A)
                 (A) (A) (A) (A) (A) (A) (A) (A) (A) (A) (A) (A)
                 (A) (A) (A) (A) (A) (A) (A) (A) (A) (A) (A) (A)
                 (A) (A) (A) (A) (A) (A) (A) (A) (A) (A) (A) (A)
                 (A) (A) (A) (A) (A) (A) (A) (A)
       Virtual   (A) (A) (A) (A) (A) (A) (A) (A) (A) (A) (A) (A)
                 (A) (A) (A) (A) (A) (A) (A) (A) (A) (A) (A) (A)
                 (A) (A) (A) (A) (A) (A) (A) (A) (A) (A) (A) (A)
                 (A) (A) (A) (A) (A) (A) (A) (A) (A) (A) (A) (A)
                 (A) (A) (A) (A) (A) (A) (A) (A) (A) (A) (A) (A)
                 (A) (A) (A) (A) (A) (A) (A) (A) (A) (A) (A) (A)
                 (A) (A) (A) (A) (A) (A) (A) (A) (A) (A) (A) (A)
                 (A) (A) (A) (A) (A) (A) (A) (A) (A) (A) (A) (A)
                 (A) (A) (A) (A) (A) (A) (A) (A) (A) (A) (A) (A)
                 (A) (A) (A) (A) (A) (A) (A) (A) (A) (A) (A) (A)
                 (A) (A) (A) (A) (A) (A) (A) (A) (A) (A) (A) (A)
                 (A) (A) (A) (A) (A) (A) (A) (A) (A) (A) (A) (A)
                 (A) (A) (A) (A) (A) (A) (A) (A) (A) (A) (A) (A)
                 (A) (A) (A) (A) (A) (A) (A) (A) (A) (A) (A) (A)
                 (A) (A) (A) (A) (A) (A) (A) (A) (A) (A) (A) (A)
                 (A) (A) (A) (A) (A) (A) (A) (A) (A) (A) (A) (A)
                 (A) (A) (A) (A) (A) (A) (A) (A) (A) (A) (A) (A)
                 (A) (A) (A) (A) (A) (A) (A) (A) (A) (A) (A) (A)
                 (A) (A) (A) (A) (A) (A) (A) (A) (A) (A) (A) (A)
                 (A) (A) (A) (A) (A) (A) (A) (A) (A) (A) (A) (A)
                 (A) (A) (A) (A) (A) (A) (A) (A) (A) (A) (A) (A)
                 (A) (A) (A) (A) (A) (A) (A) (A) (A) (A) (A) (A)
                 (A) (A) (A) (A) (A) (A) (A) (A) (A) (A) (A) (A)
                 (A) (A) (A) (A) (A) (A) (A) (A) (A) (A) (A) (A)
                 (A) (A) (A) (A) (A) (A) (A) (A) (A) (A) (A) (A)
                 (A) (A) (A) (A) (A) (A) (A) (A) (A) (A) (A) (A)
                 (A) (A) (A) (A) (A) (A) (A) (A) (A) (A) (A) (A)
                 (A) (A) (A) (A) (A) (A) (A) (A) (A) (A) (A) (A)
                 (A) (A) (A) (A) (A) (A) (A) (A) (A) (A) (A) (A)
                 (A) (A) (A) (A) (A) (A) (A) (A) (A) (A) (A) (A)
                 (A) (A) (A) (A) (A) (A) (A) (A) (A) (A) (A) (A)
                 (A) (A) (A) (A) (A) (A) (A) (A) (A) (A) (A) (A)
                 (A) (A) (A) (A) (A) (A) (A) (A) (A) (A) (A) (A)
                 (A) (A) (A) (A) (A) (A) (A) (A) (A) (A) (A) (A)
                 (A) (A) (A) (A) (A) (A) (A) (A) (A) (A) (A) (A)
                 (A) (A) (A) (A) (A) (A) (A) (A) (A) (A) (A) (A)
                 (A) (A) (A) (A) (A) (A) (A) (A) (A) (A) (A) (A)
                 (A) (A) (A) (A) (A) (A) (A) (A) (A) (A) (A) (A)
                 (A) (A) (A) (A) (A) (A) (A) (A) (A) (A) (A) (A)
                 (A) (A) (A) (A) (A) (A) (A) (A) (A) (A) (A) (A)
                 (A) (A) (A) (A) (A) (A) (A) (A) (A) (A) (A) (A)
                 (A) (A) (A) (A) (A) (A) (A) (A) (A) (A) (A) (A)
                 (A) (A) (A) (A) (A) (A) (A) (A) (A) (A) (A) (A)
                 (A) (A) (A)
 The electronic state is 1-A.
 Alpha  occ. eigenvalues --  -88.99032 -88.98570 -88.92164 -19.22567 -14.41063
 Alpha  occ. eigenvalues --  -14.39921 -14.39403 -14.39152 -14.38561 -14.33806
 Alpha  occ. eigenvalues --  -10.28273 -10.27023 -10.26813 -10.26112 -10.26106
 Alpha  occ. eigenvalues --  -10.26013 -10.25509 -10.25412 -10.25078 -10.25036
 Alpha  occ. eigenvalues --  -10.24472 -10.23792 -10.22829 -10.22543 -10.22409
 Alpha  occ. eigenvalues --  -10.22174 -10.21612 -10.21151 -10.20688 -10.20508
 Alpha  occ. eigenvalues --  -10.20372  -8.04344  -8.03860  -7.98139  -6.00927
 Alpha  occ. eigenvalues --   -6.00429  -6.00337  -6.00048  -5.99861  -5.99577
 Alpha  occ. eigenvalues --   -5.94567  -5.94178  -5.93850  -1.11876  -1.03036
 Alpha  occ. eigenvalues --   -1.02757  -1.01566  -0.94750  -0.91450  -0.91112
 Alpha  occ. eigenvalues --   -0.90639  -0.88962  -0.84374  -0.82343  -0.81768
 Alpha  occ. eigenvalues --   -0.79833  -0.78715  -0.76728  -0.75909  -0.74619
 Alpha  occ. eigenvalues --   -0.71398  -0.68997  -0.67117  -0.66131  -0.65158
 Alpha  occ. eigenvalues --   -0.63396  -0.62561  -0.61332  -0.60167  -0.59054
 Alpha  occ. eigenvalues --   -0.57687  -0.56286  -0.54759  -0.53939  -0.52415
 Alpha  occ. eigenvalues --   -0.51556  -0.50531  -0.49453  -0.49018  -0.48058
 Alpha  occ. eigenvalues --   -0.48025  -0.46924  -0.46083  -0.45805  -0.45620
 Alpha  occ. eigenvalues --   -0.45589  -0.45009  -0.44618  -0.43066  -0.41669
 Alpha  occ. eigenvalues --   -0.41000  -0.40581  -0.40418  -0.39766  -0.39356
 Alpha  occ. eigenvalues --   -0.38767  -0.38684  -0.38310  -0.37199  -0.35836
 Alpha  occ. eigenvalues --   -0.34794  -0.34531  -0.34430  -0.33363  -0.32651
 Alpha  occ. eigenvalues --   -0.32332  -0.31751  -0.31271  -0.29549  -0.28549
 Alpha  occ. eigenvalues --   -0.27009  -0.26522  -0.25333  -0.24824  -0.23217
 Alpha  occ. eigenvalues --   -0.20311
 Alpha virt. eigenvalues --   -0.12313  -0.08343  -0.06695  -0.04658  -0.02434
 Alpha virt. eigenvalues --   -0.02233  -0.02058  -0.01553  -0.01108  -0.00459
 Alpha virt. eigenvalues --   -0.00199  -0.00036   0.00261   0.00894   0.01576
 Alpha virt. eigenvalues --    0.01851   0.01939   0.02136   0.02563   0.03152
 Alpha virt. eigenvalues --    0.03455   0.03508   0.03732   0.04047   0.04142
 Alpha virt. eigenvalues --    0.04559   0.04797   0.04958   0.05369   0.05916
 Alpha virt. eigenvalues --    0.06192   0.07230   0.07265   0.07541   0.07670
 Alpha virt. eigenvalues --    0.07705   0.08079   0.08129   0.08497   0.09148
 Alpha virt. eigenvalues --    0.09205   0.09492   0.09884   0.10256   0.10613
 Alpha virt. eigenvalues --    0.10679   0.11088   0.11098   0.11373   0.11479
 Alpha virt. eigenvalues --    0.11637   0.11862   0.12033   0.12256   0.12314
 Alpha virt. eigenvalues --    0.12728   0.12873   0.12933   0.13304   0.13487
 Alpha virt. eigenvalues --    0.13815   0.13840   0.14164   0.14700   0.14794
 Alpha virt. eigenvalues --    0.15105   0.15284   0.15619   0.16044   0.16647
 Alpha virt. eigenvalues --    0.16989   0.17109   0.17256   0.17351   0.17444
 Alpha virt. eigenvalues --    0.17957   0.18014   0.18056   0.18205   0.18767
 Alpha virt. eigenvalues --    0.19198   0.19480   0.19531   0.20086   0.20180
 Alpha virt. eigenvalues --    0.20273   0.20335   0.20952   0.20966   0.21301
 Alpha virt. eigenvalues --    0.21729   0.21910   0.22067   0.22178   0.22646
 Alpha virt. eigenvalues --    0.22768   0.23021   0.23188   0.23447   0.23908
 Alpha virt. eigenvalues --    0.24015   0.24616   0.24742   0.24946   0.25090
 Alpha virt. eigenvalues --    0.25307   0.25434   0.25596   0.25734   0.26258
 Alpha virt. eigenvalues --    0.26389   0.26754   0.26893   0.27140   0.27486
 Alpha virt. eigenvalues --    0.27597   0.27801   0.27975   0.28178   0.28383
 Alpha virt. eigenvalues --    0.28701   0.29079   0.29373   0.29465   0.29878
 Alpha virt. eigenvalues --    0.30188   0.30334   0.30428   0.31107   0.31394
 Alpha virt. eigenvalues --    0.31881   0.32181   0.32597   0.33033   0.33236
 Alpha virt. eigenvalues --    0.33341   0.33708   0.33910   0.34162   0.34647
 Alpha virt. eigenvalues --    0.35023   0.35379   0.35833   0.36132   0.36495
 Alpha virt. eigenvalues --    0.36912   0.37373   0.37702   0.38037   0.38494
 Alpha virt. eigenvalues --    0.38958   0.39045   0.39512   0.40509   0.40593
 Alpha virt. eigenvalues --    0.41585   0.41667   0.41742   0.42495   0.43422
 Alpha virt. eigenvalues --    0.43811   0.44698   0.46114   0.46247   0.46989
 Alpha virt. eigenvalues --    0.47934   0.48106   0.48908   0.49972   0.50023
 Alpha virt. eigenvalues --    0.50961   0.51240   0.51438   0.52807   0.54028
 Alpha virt. eigenvalues --    0.55593   0.56283   0.57445   0.57808   0.59730
 Alpha virt. eigenvalues --    0.60125   0.61690   0.63627   0.63902   0.64184
 Alpha virt. eigenvalues --    0.64338   0.65017   0.65307   0.65881   0.66363
 Alpha virt. eigenvalues --    0.66578   0.66742   0.66888   0.67325   0.68010
 Alpha virt. eigenvalues --    0.68524   0.69205   0.69455   0.70189   0.70298
 Alpha virt. eigenvalues --    0.70495   0.71226   0.71828   0.71928   0.72466
 Alpha virt. eigenvalues --    0.72657   0.73113   0.73696   0.74285   0.74645
 Alpha virt. eigenvalues --    0.75243   0.76141   0.76627   0.76896   0.77365
 Alpha virt. eigenvalues --    0.78435   0.78681   0.79167   0.79526   0.79818
 Alpha virt. eigenvalues --    0.80274   0.82004   0.82368   0.82659   0.83418
 Alpha virt. eigenvalues --    0.83785   0.84860   0.86440   0.86655   0.87554
 Alpha virt. eigenvalues --    0.89532   0.89998   0.90102   0.90961   0.92274
 Alpha virt. eigenvalues --    0.92316   0.93592   0.93831   0.94212   0.95212
 Alpha virt. eigenvalues --    0.95697   0.96832   0.97188   0.97503   0.98254
 Alpha virt. eigenvalues --    0.99029   0.99377   0.99686   1.00894   1.01261
 Alpha virt. eigenvalues --    1.01634   1.03319   1.03830   1.04286   1.04875
 Alpha virt. eigenvalues --    1.04902   1.05360   1.06282   1.06377   1.07110
 Alpha virt. eigenvalues --    1.07403   1.08875   1.08945   1.09563   1.10111
 Alpha virt. eigenvalues --    1.10974   1.11417   1.11891   1.11974   1.13220
 Alpha virt. eigenvalues --    1.13838   1.14916   1.15646   1.16392   1.17376
 Alpha virt. eigenvalues --    1.17513   1.18247   1.18721   1.19963   1.20180
 Alpha virt. eigenvalues --    1.20668   1.21094   1.22007   1.22688   1.23296
 Alpha virt. eigenvalues --    1.23805   1.23893   1.24426   1.25048   1.25475
 Alpha virt. eigenvalues --    1.25615   1.26383   1.27318   1.27878   1.28530
 Alpha virt. eigenvalues --    1.28764   1.29238   1.30471   1.30814   1.31151
 Alpha virt. eigenvalues --    1.31240   1.31742   1.32117   1.32459   1.33206
 Alpha virt. eigenvalues --    1.33548   1.33877   1.34684   1.35506   1.36096
 Alpha virt. eigenvalues --    1.36520   1.36935   1.37362   1.37937   1.39037
 Alpha virt. eigenvalues --    1.39913   1.39955   1.40783   1.43738   1.45221
 Alpha virt. eigenvalues --    1.47302   1.47426   1.47802   1.48918   1.49836
 Alpha virt. eigenvalues --    1.52010   1.53261   1.55911   1.57104   1.58331
 Alpha virt. eigenvalues --    1.59757   1.63677   1.64150   1.65813   1.66957
 Alpha virt. eigenvalues --    1.68057   1.68550   1.68777   1.69972   1.70798
 Alpha virt. eigenvalues --    1.72481   1.72879   1.73345   1.74502   1.75008
 Alpha virt. eigenvalues --    1.76014   1.76628   1.76865   1.79085   1.80258
 Alpha virt. eigenvalues --    1.80715   1.81748   1.82134   1.82933   1.83712
 Alpha virt. eigenvalues --    1.84465   1.84828   1.85665   1.86389   1.86921
 Alpha virt. eigenvalues --    1.87770   1.88141   1.89132   1.89444   1.90388
 Alpha virt. eigenvalues --    1.90995   1.94010   1.94503   1.95460   1.97200
 Alpha virt. eigenvalues --    1.97458   1.97575   1.98303   1.99257   2.00232
 Alpha virt. eigenvalues --    2.01422   2.02431   2.03294   2.04909   2.06031
 Alpha virt. eigenvalues --    2.07511   2.09026   2.10417   2.11871   2.14059
 Alpha virt. eigenvalues --    2.14480   2.15767   2.17214   2.17232   2.18300
 Alpha virt. eigenvalues --    2.18882   2.20129   2.21490   2.24576   2.24944
 Alpha virt. eigenvalues --    2.25045   2.25995   2.27235   2.29237   2.29546
 Alpha virt. eigenvalues --    2.30313   2.30852   2.31684   2.32778   2.33401
 Alpha virt. eigenvalues --    2.33452   2.34941   2.36104   2.37141   2.37892
 Alpha virt. eigenvalues --    2.38403   2.38892   2.40881   2.41176   2.41465
 Alpha virt. eigenvalues --    2.42377   2.42726   2.43216   2.44984   2.45875
 Alpha virt. eigenvalues --    2.47201   2.48982   2.49083   2.49547   2.49912
 Alpha virt. eigenvalues --    2.51488   2.52602   2.52626   2.55091   2.55628
 Alpha virt. eigenvalues --    2.56110   2.56509   2.57786   2.59668   2.61959
 Alpha virt. eigenvalues --    2.63086   2.64969   2.65308   2.65547   2.66028
 Alpha virt. eigenvalues --    2.66684   2.67852   2.67908   2.70028   2.71811
 Alpha virt. eigenvalues --    2.72878   2.73790   2.74862   2.75868   2.76777
 Alpha virt. eigenvalues --    2.78031   2.78232   2.79558   2.81690   2.84356
 Alpha virt. eigenvalues --    2.85109   2.87322   2.87699   2.89136   2.91962
 Alpha virt. eigenvalues --    2.92641   2.94191   2.96115   2.98364   2.99756
 Alpha virt. eigenvalues --    3.01101   3.03257   3.06040   3.06896   3.11542
 Alpha virt. eigenvalues --    3.12237   3.14893   3.15796   3.20661   3.21894
 Alpha virt. eigenvalues --    3.24784   3.26067   3.30891   3.35140   3.37100
 Alpha virt. eigenvalues --    3.39282   3.46556   3.50847   3.56989   3.61311
 Alpha virt. eigenvalues --    3.71891   3.72292   3.75414   3.94233   3.95977
 Alpha virt. eigenvalues --    3.99853   4.08663   4.14011   4.18834   4.25048
 Alpha virt. eigenvalues --    4.28149   4.30446   4.33770   4.34872   4.35840
 Alpha virt. eigenvalues --    4.37234   4.40427   4.42412   4.43582   4.44430
 Alpha virt. eigenvalues --    4.46741   4.47169   4.50431   4.53273   4.57033
 Alpha virt. eigenvalues --    4.59780   4.62029   4.66660   4.71542   4.74201
 Alpha virt. eigenvalues --    4.80726   4.86212   4.94186   4.96755
          Condensed to atoms (all electrons):
              1          2          3          4          5          6
     1  C    6.124993  -0.779904  -0.666230   0.062045   0.070587   0.067676
     2  C   -0.779904   9.519345   2.685619  -2.050821   0.382060  -0.796156
     3  C   -0.666230   2.685619  12.908662  -5.106750   1.285142  -1.619746
     4  C    0.062045  -2.050821  -5.106750  10.749059  -0.947911   0.642569
     5  S    0.070587   0.382060   1.285142  -0.947911  16.489090  -0.057104
     6  C    0.067676  -0.796156  -1.619746   0.642569  -0.057104   8.191206
     7  C    0.425268  -1.052121  -0.890873   0.749730  -0.112712   0.801151
     8  C    0.155248  -0.379894  -1.152589   0.496360  -0.560336  -1.384275
     9  C    0.076624  -0.204253  -0.349726   0.244265  -0.155619  -0.945175
    10  N   -0.000460   0.000832   0.000886  -0.001671  -0.010881   0.009775
    11  H    0.000523  -0.000870  -0.002477   0.001204   0.010412  -0.008357
    12  C    0.000072  -0.003907   0.003083   0.001758  -0.000548  -0.068975
    13  C   -0.002084   0.005313  -0.022271   0.009126  -0.010880  -0.023534
    14  C   -0.048809   0.072547   0.234076  -0.042052  -0.117609  -0.367688
    15  C    0.057205  -0.053978  -0.222532   0.033346   0.167306   0.737933
    16  N   -0.065990   0.072878   0.152375  -0.048026   0.022867  -0.364339
    17  C   -0.000467   0.002096   0.012182  -0.005629   0.003361   0.070604
    18  N    0.000060  -0.000064  -0.000209   0.000083   0.000158   0.000889
    19  S   -0.000019   0.000038   0.000053  -0.000048   0.000017   0.001017
    20  N    0.000001  -0.000001   0.000007  -0.000001  -0.000018   0.000021
    21  C   -0.000076   0.000184   0.000225  -0.000239   0.000688   0.006110
    22  C    0.000015  -0.000110   0.000057   0.000026   0.000575   0.002452
    23  C    0.000001  -0.000006   0.000013  -0.000001  -0.000176  -0.001629
    24  C   -0.000000  -0.000000   0.000004  -0.000001   0.000113   0.000657
    25  C   -0.000003   0.000005   0.000048   0.000002   0.000487   0.002496
    26  N    0.000000  -0.000000  -0.000000   0.000000  -0.000005  -0.000026
    27  S   -0.000000   0.000000   0.000003  -0.000001  -0.000053  -0.000147
    28  N   -0.000000   0.000002  -0.000004  -0.000009  -0.000246  -0.000444
    29  C   -0.000029   0.000007   0.000395   0.000247   0.000697   0.000295
    30  C    0.000030   0.000155  -0.001557  -0.000255  -0.000401  -0.001750
    31  C    0.301942  -2.037329  -1.567778   1.165816  -0.451295   1.591253
    32  O   -0.259478   0.314362   0.304130  -0.082181   0.040663  -0.319186
    33  H    0.449050  -0.130489  -0.013883  -0.026657   0.002732   0.004642
    34  H   -0.112708   0.386775   0.086994  -0.077407  -0.000613   0.029201
    35  H   -0.000768  -0.081843  -0.146047   0.435480  -0.041710   0.066077
    36  H   -0.005683   0.002298  -0.020349   0.022114  -0.028689  -0.025893
    37  H   -0.000462   0.001749  -0.001978  -0.000046   0.003782   0.030347
    38  H    0.000000  -0.000000  -0.000001   0.000000  -0.000001  -0.000041
    39  H   -0.000000   0.000000  -0.000000   0.000000   0.000000   0.000007
              7          8          9         10         11         12
     1  C    0.425268   0.155248   0.076624  -0.000460   0.000523   0.000072
     2  C   -1.052121  -0.379894  -0.204253   0.000832  -0.000870  -0.003907
     3  C   -0.890873  -1.152589  -0.349726   0.000886  -0.002477   0.003083
     4  C    0.749730   0.496360   0.244265  -0.001671   0.001204   0.001758
     5  S   -0.112712  -0.560336  -0.155619  -0.010881   0.010412  -0.000548
     6  C    0.801151  -1.384275  -0.945175   0.009775  -0.008357  -0.068975
     7  C   14.185883  -2.819912  -3.658043   0.188633  -0.023905  -0.816214
     8  C   -2.819912  11.910583   3.870029  -0.330461   0.023147   1.296068
     9  C   -3.658043   3.870029  14.110491  -0.227361  -0.025623   1.720169
    10  N    0.188633  -0.330461  -0.227361   7.539578   0.317167  -0.130615
    11  H   -0.023905   0.023147  -0.025623   0.317167   0.424794  -0.030824
    12  C   -0.816214   1.296068   1.720169  -0.130615  -0.030824   9.395434
    13  C    0.079458  -1.274905  -4.153740   0.041147   0.018727  -1.654017
    14  C   -1.709286  -2.149094  -3.538667   0.056538  -0.004692  -1.657539
    15  C    0.383221  -0.941815  -0.540023   0.017026   0.015142  -1.186096
    16  N   -0.221196   0.214224   0.294176  -0.019080   0.000096   0.016873
    17  C    0.360807  -0.075798   0.463652   0.067418   0.003318   0.199787
    18  N   -0.003847  -0.004138   0.006378   0.001114  -0.000664  -0.078209
    19  S    0.006574  -0.004319   0.039020  -0.001033   0.000079   0.051361
    20  N   -0.006356  -0.001525  -0.013880   0.000423   0.000024  -0.035216
    21  C    0.102353  -0.043123   0.020498  -0.008273  -0.002029  -0.017347
    22  C   -0.037798   0.333065   0.097506  -0.015242   0.001342   0.722944
    23  C   -0.037263   0.072757  -0.032243   0.008505  -0.002069  -0.592147
    24  C    0.006753   0.057283  -0.054040   0.021029  -0.006803  -1.087384
    25  C    0.027552  -0.102792  -0.248336   0.031110  -0.023639   0.020156
    26  N   -0.000494   0.000021   0.004751   0.000465   0.003519   0.013024
    27  S    0.000176  -0.009876   0.002872  -0.011133  -0.002972   0.004200
    28  N    0.008512  -0.014735   0.009081   0.027940   0.025878  -0.042731
    29  C   -0.124102  -0.191356  -0.822117   0.090453   0.033179  -0.503434
    30  C    0.283836   0.149477   1.258516  -0.292575  -0.032477   0.765960
    31  C    0.122597  -0.781435  -1.192498   0.018818  -0.007732  -0.081076
    32  O   -0.265933  -0.028140   0.007122  -0.000174   0.000055   0.000043
    33  H    0.010701   0.002680   0.001856  -0.000016   0.000013   0.000000
    34  H   -0.024225  -0.003287  -0.002751   0.000014  -0.000015  -0.000026
    35  H    0.001749   0.016071   0.001541  -0.000059   0.000077  -0.000284
    36  H   -0.037543   0.211472  -0.075624  -0.018202  -0.033063  -0.008011
    37  H    0.072964  -0.040208  -0.015802   0.004456   0.000447   0.000767
    38  H   -0.000586  -0.000780  -0.000856   0.000315   0.000119   0.000158
    39  H    0.000156   0.000542  -0.000183   0.000251  -0.000291  -0.015737
             13         14         15         16         17         18
     1  C   -0.002084  -0.048809   0.057205  -0.065990  -0.000467   0.000060
     2  C    0.005313   0.072547  -0.053978   0.072878   0.002096  -0.000064
     3  C   -0.022271   0.234076  -0.222532   0.152375   0.012182  -0.000209
     4  C    0.009126  -0.042052   0.033346  -0.048026  -0.005629   0.000083
     5  S   -0.010880  -0.117609   0.167306   0.022867   0.003361   0.000158
     6  C   -0.023534  -0.367688   0.737933  -0.364339   0.070604   0.000889
     7  C    0.079458  -1.709286   0.383221  -0.221196   0.360807  -0.003847
     8  C   -1.274905  -2.149094  -0.941815   0.214224  -0.075798  -0.004138
     9  C   -4.153740  -3.538667  -0.540023   0.294176   0.463652   0.006378
    10  N    0.041147   0.056538   0.017026  -0.019080   0.067418   0.001114
    11  H    0.018727  -0.004692   0.015142   0.000096   0.003318  -0.000664
    12  C   -1.654017  -1.657539  -1.186096   0.016873   0.199787  -0.078209
    13  C   11.912512   3.416939  -0.476112  -0.036995  -1.300576  -0.240032
    14  C    3.416939  17.770975  -5.100545   0.186851  -0.930453   0.062442
    15  C   -0.476112  -5.100545  11.981012  -0.020665   0.316053   0.056313
    16  N   -0.036995   0.186851  -0.020665   7.110116  -0.022710  -0.006780
    17  C   -1.300576  -0.930453   0.316053  -0.022710   6.772003   0.036739
    18  N   -0.240032   0.062442   0.056313  -0.006780   0.036739   7.914320
    19  S   -0.009336  -0.132053   0.055738  -0.004951  -0.147472  -0.122703
    20  N    0.058535   0.002625  -0.005622   0.000220   0.031583  -0.159383
    21  C    0.145552  -0.267382   0.134749  -0.015712   0.122261  -0.000099
    22  C   -1.148538  -0.205290   0.055079   0.013142   0.207699  -0.029853
    23  C    0.113945   0.100894  -0.086563   0.003494  -0.021087   0.067063
    24  C   -0.229181   0.096513   0.028244   0.000438   0.098392   0.019279
    25  C    0.556078   0.320020   0.060955  -0.000775  -0.111398  -0.011053
    26  N    0.003704  -0.011778  -0.001612   0.000001  -0.001427   0.000014
    27  S    0.033489  -0.004680  -0.003540  -0.000043  -0.008148   0.000058
    28  N    0.010758  -0.024963  -0.008614  -0.000222   0.001237  -0.000098
    29  C    1.717776   0.472316  -0.186342  -0.000495  -0.428982  -0.004569
    30  C   -2.159794  -1.004583   0.279102  -0.001078   0.363578  -0.015117
    31  C    0.103120   0.480933  -0.211246  -0.074717   0.030379  -0.000465
    32  O   -0.001134   0.010758  -0.026243   0.072871  -0.000177  -0.000021
    33  H   -0.000070  -0.002033   0.002810  -0.003135   0.000004   0.000006
    34  H    0.000103   0.001304  -0.001385   0.001715   0.000005  -0.000001
    35  H    0.000193  -0.000145   0.001562  -0.000900  -0.000050   0.000001
    36  H    0.068968   0.213724  -0.090192   0.024034  -0.013375  -0.000039
    37  H   -0.073737  -0.311419   0.585835  -0.147694   0.010995   0.009836
    38  H    0.019191  -0.000355  -0.002286   0.000013  -0.015857  -0.003962
    39  H   -0.003528   0.000893   0.000279   0.000003   0.001074   0.000543
             19         20         21         22         23         24
     1  C   -0.000019   0.000001  -0.000076   0.000015   0.000001  -0.000000
     2  C    0.000038  -0.000001   0.000184  -0.000110  -0.000006  -0.000000
     3  C    0.000053   0.000007   0.000225   0.000057   0.000013   0.000004
     4  C   -0.000048  -0.000001  -0.000239   0.000026  -0.000001  -0.000001
     5  S    0.000017  -0.000018   0.000688   0.000575  -0.000176   0.000113
     6  C    0.001017   0.000021   0.006110   0.002452  -0.001629   0.000657
     7  C    0.006574  -0.006356   0.102353  -0.037798  -0.037263   0.006753
     8  C   -0.004319  -0.001525  -0.043123   0.333065   0.072757   0.057283
     9  C    0.039020  -0.013880   0.020498   0.097506  -0.032243  -0.054040
    10  N   -0.001033   0.000423  -0.008273  -0.015242   0.008505   0.021029
    11  H    0.000079   0.000024  -0.002029   0.001342  -0.002069  -0.006803
    12  C    0.051361  -0.035216  -0.017347   0.722944  -0.592147  -1.087384
    13  C   -0.009336   0.058535   0.145552  -1.148538   0.113945  -0.229181
    14  C   -0.132053   0.002625  -0.267382  -0.205290   0.100894   0.096513
    15  C    0.055738  -0.005622   0.134749   0.055079  -0.086563   0.028244
    16  N   -0.004951   0.000220  -0.015712   0.013142   0.003494   0.000438
    17  C   -0.147472   0.031583   0.122261   0.207699  -0.021087   0.098392
    18  N   -0.122703  -0.159383  -0.000099  -0.029853   0.067063   0.019279
    19  S   15.643578   0.001045  -0.151612   0.044529  -0.116590  -0.029315
    20  N    0.001045   7.376016   0.171583  -0.283912   0.224072   0.064655
    21  C   -0.151612   0.171583   6.564684   0.475589  -0.530987  -0.539229
    22  C    0.044529  -0.283912   0.475589   9.097083  -1.199389  -2.347460
    23  C   -0.116590   0.224072  -0.530987  -1.199389   9.539779   1.030182
    24  C   -0.029315   0.064655  -0.539229  -2.347460   1.030182  13.566745
    25  C    0.000088  -0.025464  -0.040812   0.745737  -2.340557  -0.766440
    26  N    0.000000   0.000387  -0.003327   0.006686   0.016336  -0.622068
    27  S   -0.000086  -0.000972   0.000320  -0.063438  -0.019807  -0.098010
    28  N   -0.000179  -0.000146   0.004022  -0.033256  -0.028523   0.046248
    29  C   -0.020998   0.022193  -0.173489  -1.024467   0.327070  -2.563843
    30  C    0.023883  -0.027522   0.185814   0.592892  -0.566684  -0.633508
    31  C    0.000767  -0.000054   0.005534  -0.005156  -0.000572  -0.000057
    32  O   -0.000023   0.000000  -0.000070   0.000046   0.000002   0.000000
    33  H   -0.000000   0.000000  -0.000001  -0.000000   0.000000  -0.000000
    34  H    0.000000  -0.000000   0.000001  -0.000001  -0.000000  -0.000000
    35  H   -0.000000  -0.000000  -0.000000  -0.000007  -0.000001  -0.000000
    36  H   -0.000207   0.000022  -0.001120  -0.003960   0.000667  -0.000644
    37  H   -0.001424   0.002048   0.003144   0.006306   0.004078   0.002522
    38  H    0.000833  -0.020513  -0.012381  -0.106337   0.407602  -0.054412
    39  H    0.000057   0.000868   0.002113  -0.032545  -0.046342   0.464955
             25         26         27         28         29         30
     1  C   -0.000003   0.000000  -0.000000  -0.000000  -0.000029   0.000030
     2  C    0.000005  -0.000000   0.000000   0.000002   0.000007   0.000155
     3  C    0.000048  -0.000000   0.000003  -0.000004   0.000395  -0.001557
     4  C    0.000002   0.000000  -0.000001  -0.000009   0.000247  -0.000255
     5  S    0.000487  -0.000005  -0.000053  -0.000246   0.000697  -0.000401
     6  C    0.002496  -0.000026  -0.000147  -0.000444   0.000295  -0.001750
     7  C    0.027552  -0.000494   0.000176   0.008512  -0.124102   0.283836
     8  C   -0.102792   0.000021  -0.009876  -0.014735  -0.191356   0.149477
     9  C   -0.248336   0.004751   0.002872   0.009081  -0.822117   1.258516
    10  N    0.031110   0.000465  -0.011133   0.027940   0.090453  -0.292575
    11  H   -0.023639   0.003519  -0.002972   0.025878   0.033179  -0.032477
    12  C    0.020156   0.013024   0.004200  -0.042731  -0.503434   0.765960
    13  C    0.556078   0.003704   0.033489   0.010758   1.717776  -2.159794
    14  C    0.320020  -0.011778  -0.004680  -0.024963   0.472316  -1.004583
    15  C    0.060955  -0.001612  -0.003540  -0.008614  -0.186342   0.279102
    16  N   -0.000775   0.000001  -0.000043  -0.000222  -0.000495  -0.001078
    17  C   -0.111398  -0.001427  -0.008148   0.001237  -0.428982   0.363578
    18  N   -0.011053   0.000014   0.000058  -0.000098  -0.004569  -0.015117
    19  S    0.000088   0.000000  -0.000086  -0.000179  -0.020998   0.023883
    20  N   -0.025464   0.000387  -0.000972  -0.000146   0.022193  -0.027522
    21  C   -0.040812  -0.003327   0.000320   0.004022  -0.173489   0.185814
    22  C    0.745737   0.006686  -0.063438  -0.033256  -1.024467   0.592892
    23  C   -2.340557   0.016336  -0.019807  -0.028523   0.327070  -0.566684
    24  C   -0.766440  -0.622068  -0.098010   0.046248  -2.563843  -0.633508
    25  C   12.620939  -0.167305  -0.053180  -0.036808  -2.559801  -1.680087
    26  N   -0.167305   7.468044  -0.018410  -0.125434   0.770971   0.067347
    27  S   -0.053180  -0.018410  15.669755  -0.058906  -0.131012  -0.085839
    28  N   -0.036808  -0.125434  -0.058906   7.492312   0.192071   0.001980
    29  C   -2.559801   0.770971  -0.131012   0.192071  11.102811  -0.310185
    30  C   -1.680087   0.067347  -0.085839   0.001980  -0.310185   8.750854
    31  C    0.000421  -0.000001   0.000030   0.000186   0.000534   0.004516
    32  O   -0.000001  -0.000000  -0.000000  -0.000000  -0.000018   0.000042
    33  H   -0.000000   0.000000  -0.000000  -0.000000  -0.000001   0.000001
    34  H    0.000000  -0.000000   0.000000   0.000000   0.000000   0.000001
    35  H   -0.000000   0.000000  -0.000000  -0.000000  -0.000002   0.000016
    36  H    0.002034  -0.000028   0.000517  -0.000663   0.013296  -0.016184
    37  H   -0.000447  -0.000008  -0.000015  -0.000026  -0.004165   0.000104
    38  H    0.014718  -0.001131   0.000328   0.001706   0.034561   0.000631
    39  H   -0.073079  -0.028433   0.000719  -0.003850  -0.016481   0.015648
             31         32         33         34         35         36
     1  C    0.301942  -0.259478   0.449050  -0.112708  -0.000768  -0.005683
     2  C   -2.037329   0.314362  -0.130489   0.386775  -0.081843   0.002298
     3  C   -1.567778   0.304130  -0.013883   0.086994  -0.146047  -0.020349
[...]
 0191,0.00000002,0.00001280,0.00000046,-0.00000002,-0.00397013,-0.00136
 450,0.00001625,-0.00043773,-0.00198403,0.00000184,-0.00003852,-0.00001
 558,0.00000048,-0.00044326,0.00004587,0.00000080,0.04970047,0.00037860
 ,-0.00072648,-0.00000080,0.00051647,0.00084264,-0.00000014,0.00322438,
 -0.00712909,-0.00000686,-0.02226777,-0.36033836,-0.00002044,-0.0013456
 6,-0.00717368,0.00000184,0.00152000,0.00094820,-0.00000252,-0.00021506
 ,-0.00005846,-0.00000003,-0.00000531,-0.00000810,0.00000024,-0.0000460
 3,-0.00001057,0.00000033,0.00003889,-0.00004443,0.,-0.00000010,0.00000
 357,0.00000004,-0.00001231,0.00006398,-0.00000018,-0.00001091,-0.00000
 059,-0.00000003,0.00000650,0.00001040,-0.00000023,-0.00005033,-0.00001
 787,-0.00000003,0.00006346,-0.00011178,-0.00000005,-0.00000735,-0.0000
 0828,-0.00000006,0.00000684,0.00000253,0.00000022,0.00000044,-0.000001
 68,-0.00000022,0.00000354,0.00000416,-0.00000009,-0.00001596,-0.000004
 89,0.00000045,0.00000091,0.00002267,-0.00000042,0.00000866,-0.00000688
 ,0.00000036,-0.00000593,0.00000073,-0.00000015,-0.00000213,0.00000596,
 0.00000060,0.00000028,0.00000224,-0.00000023,-0.00000474,-0.00000646,-
 0.00000011,0.00000506,0.00000154,-0.00000001,-0.00000232,-0.00000402,-
 0.00000011,0.00002447,-0.00002020,-0.00000013,-0.00250473,0.00058813,0
 .00000334,-0.00049740,-0.00054789,0.00000050,-0.00002567,-0.00002442,-
 0.00000003,-0.00028598,-0.00014740,0.00000044,0.02156927,0.37390804,-0
 .00000138,0.00000004,-0.00040882,-0.00000676,-0.00000104,-0.00336724,-
 0.00001241,0.00003589,0.00140669,0.00005403,-0.00002309,-0.01889072,-0
 .00001152,-0.00003708,-0.00320712,0.00001018,-0.00000290,-0.00054053,0
 .00000281,-0.00000150,0.00258943,0.00000027,-0.00000040,-0.00016901,-0
 .00000033,0.00000048,0.00015906,0.00000003,-0.00000001,-0.00001854,0.0
 0000004,0.00000004,0.00000934,-0.00000002,-0.00000043,-0.00000288,0.00
 000031,-0.00000009,0.00005610,-0.00000052,-0.00000012,0.00002128,0.000
 00011,0.00000012,-0.00049427,-0.00000012,0.00000028,0.00020195,-0.0000
 0002,0.00000022,-0.00001360,-0.00000005,-0.00000005,0.00000251,-0.0000
 0011,0.00000001,0.00000190,0.00000007,-0.00000014,-0.00000489,0.000000
 05,0.00000004,0.00001074,-0.00000010,-0.00000005,-0.00000775,-0.000000
 03,-0.00000013,0.00000290,0.00000009,-0.00000013,-0.00000078,-0.000000
 23,0.00000022,0.00000312,0.00000023,-0.00000025,-0.00000279,0.,0.00000
 039,0.00000439,-0.00000003,-0.00000022,-0.00000651,0.,0.00000018,0.000
 00040,-0.00000013,0.00000029,-0.00001079,0.00001453,0.00000178,0.00573
 661,0.00000252,0.00000334,0.00090641,0.00000059,0.00000005,0.00023871,
 0.00000086,-0.00000002,0.00006457,-0.00005280,0.00002459,0.01581683,0.
 00034998,-0.00008883,-0.00000067,-0.00003595,0.00015422,0.00000006,0.0
 0048385,0.00016698,-0.00000060,-0.00068613,0.00070437,0.00000228,-0.00
 072321,0.00106811,-0.00000016,0.00019438,-0.00071597,-0.00000190,-0.00
 833494,-0.02780662,-0.00001251,-0.15510837,-0.13262962,-0.00000222,0.0
 1186316,0.01162790,0.00000190,0.00143569,-0.00117099,-0.00000397,-0.00
 026447,-0.00024867,0.00000015,0.00029910,0.00018452,-0.00000098,0.0003
 5119,0.00093324,0.00000034,-0.00046990,0.00260993,0.00000660,-0.000782
 77,0.00185557,0.00000147,-0.00680068,0.00056853,0.00001150,-0.00021594
 ,0.00008538,0.00000012,0.00000412,-0.00002573,0.00000044,-0.00003242,0
 .00000054,-0.00000038,0.00002171,0.00003304,-0.00000022,0.00003328,0.0
 0002563,0.00000084,0.00004036,0.00003360,-0.00000077,0.00000316,-0.000
 00253,0.00000069,0.00000343,-0.00000782,-0.00000029,-0.00000071,-0.000
 00742,0.00000116,0.00002323,-0.00002614,-0.00000054,-0.00004941,0.0000
 1394,-0.00000013,0.00003258,-0.00001644,-0.00000011,0.00002484,0.00000
 903,-0.00000025,-0.00004527,-0.00006256,-0.00000017,0.00027341,-0.0004
 2710,-0.00000065,0.00002299,0.00014607,-0.00000021,0.00000166,0.000004
 89,-0.00000007,0.00002587,0.00000393,-0.00000004,0.00012272,-0.0000681
 9,-0.00000027,0.15782554,-0.00004473,-0.00003078,0.,0.00002099,-0.0000
 1376,0.00000006,-0.00002281,-0.00019591,0.00000042,0.00038768,-0.00008
 738,-0.00000029,0.00155980,-0.00127169,-0.00000141,0.00009130,-0.00014
 912,0.00000162,0.00180213,0.00572165,0.00000263,-0.13268692,-0.2455342
 0,-0.00005409,-0.01986863,-0.01871877,0.00000188,-0.00041538,0.0028418
 4,0.00000489,0.00072181,-0.00080181,-0.00000123,0.00014716,-0.00097674
 ,-0.00000118,-0.00106971,-0.00079552,-0.00000012,0.00387470,-0.0018747
 0,-0.00001061,0.00090095,-0.00040802,-0.00000069,0.00153444,0.00203508
 ,-0.00000577,0.00047412,-0.00003543,-0.00000076,-0.00003347,-0.0000134
 4,0.00000076,0.00002018,0.00003250,-0.00000067,0.00004462,-0.00012870,
 -0.00000047,-0.00002892,-0.00005749,0.00000144,-0.00003555,-0.00017509
 ,-0.00000142,-0.00003745,0.00005856,0.00000120,0.00004573,-0.00002648,
 -0.00000054,0.00002707,-0.00002439,0.00000191,-0.00000598,-0.00000235,
 -0.00000080,0.00013076,0.00004946,-0.00000044,-0.00005811,0.00005264,0
 .,-0.00002837,-0.00003507,-0.00000038,-0.00017957,0.00026038,0.0000001
 6,-0.00045963,0.00014541,0.00000064,-0.00002359,0.00007483,-0.00000021
 ,-0.00000071,0.00000157,-0.00000015,0.00000329,0.00000292,-0.00000002,
 0.00000226,-0.00000575,-0.00000016,0.14333100,0.26005067,0.00000006,0.
 00000019,0.00005284,0.00000011,-0.00000035,0.00004915,0.00000085,0.000
 00057,0.00002626,-0.00000186,0.00000042,-0.00053853,0.00000119,-0.0000
 0081,0.00140170,-0.00000439,0.00000396,-0.00274368,0.00001100,0.000023
 20,0.00053757,-0.00000494,-0.00005769,-0.03201450,-0.00002148,-0.00002
 271,0.00322810,-0.00000280,0.00000460,-0.00294933,0.00000075,-0.000000
 45,0.00006137,-0.00000078,-0.00000033,-0.00048337,-0.00000056,-0.00000
 141,0.00031286,0.00000784,-0.00000746,0.00665093,0.00000167,-0.0000016
 6,-0.00034066,0.00001241,-0.00000273,0.00759575,0.00000049,0.00000002,
 0.00009547,0.00000009,-0.00000013,0.00002178,-0.00000010,0.00000014,-0
 .00000664,0.00000013,-0.00000036,-0.00001375,-0.00000012,0.00000016,-0
 .00002291,-0.00000012,-0.00000027,0.00004183,0.00000008,0.00000005,-0.
 00000239,0.00000013,-0.00000003,0.00001215,-0.00000022,0.00000002,-0.0
 0000983,0.00000023,-0.00000009,-0.00001680,0.00000011,0.00000024,0.000
 03242,-0.00000009,-0.00000012,-0.00001303,-0.00000030,0.00000017,-0.00
 002337,0.00000004,0.00000048,0.00000094,0.00000133,-0.00000040,-0.0001
 5164,-0.00000033,-0.00000040,-0.00008079,0.00000017,0.00000011,0.00000
 052,0.,0.00000006,0.00001730,0.,-0.00000011,-0.00006444,0.00000111,0.0
 0006202,0.02118455,-0.00010811,0.00007361,0.00000018,0.00000016,-0.000
 04287,-0.00000003,-0.00002104,-0.00003307,-0.00000001,0.00006046,0.000
 02202,-0.00000007,-0.00011140,0.00010871,0.00000019,0.00047435,0.00009
 426,-0.00000002,0.00141854,0.00452089,0.00001157,-0.00042575,0.0008707
 1,0.00000024,-0.00356271,0.00275603,0.00001072,-0.00154799,-0.00104881
 ,0.00000005,-0.00023253,0.00029434,0.00000040,-0.00036413,-0.00079279,
 -0.00000036,0.00116686,0.00016024,-0.00000223,-0.01418824,-0.02415605,
 0.00000312,-0.18337204,-0.13991047,0.00003692,0.01481718,0.01264062,-0
 .00000924,-0.00096634,-0.00017195,0.00000061,0.00012029,-0.00075539,-0
 .00000092,0.00026198,0.00077814,0.00000034,0.00043194,-0.00032960,-0.0
 0000052,-0.00007616,0.00008419,0.00000012,-0.00010726,0.00000741,0.000
 00021,0.00006526,0.00001800,-0.00000017,-0.00001444,-0.00001342,0.,0.0
 0001248,-0.00001769,-0.00000020,-0.00003713,0.00002240,0.00000017,0.00
 008415,0.00005145,-0.00000005,-0.00011810,0.00002074,0.00000013,-0.000
 06490,-0.00002534,0.00000011,0.00004624,0.00001849,0.,0.00010302,0.000
 09735,-0.00000030,0.00001337,-0.00012325,0.00000008,-0.00000607,0.0000
 1130,0.00000005,-0.00000416,-0.00000505,0.,-0.00002278,0.00000619,0.,0
 .00011064,-0.00012087,-0.00000175,0.18618236,0.00001062,0.00000944,-0.
 00000008,0.00000176,-0.00001863,-0.00000007,0.00001141,0.00002306,0.00
 000002,-0.00006260,-0.00016626,0.00000010,0.00020613,-0.00009556,-0.00
 000051,-0.00069167,-0.00032503,0.00000035,0.00142419,-0.00236408,-0.00
 000923,-0.00001364,-0.00025599,0.00000057,0.00214863,0.00023624,-0.000
 00586,0.00026541,0.00059942,0.00000071,0.00015032,-0.00005477,-0.00000
 019,-0.00024610,0.00000379,0.00000010,-0.00046363,-0.00011768,0.000001
 31,0.00369898,0.00866835,-0.00000236,-0.13880160,-0.20864473,0.0000185
 6,-0.01231762,-0.03317451,-0.00000715,0.00020313,0.00040926,0.00000014
 ,-0.00015910,-0.00037413,0.00000027,0.00002880,-0.00036103,-0.00000041
 ,-0.00016012,0.00010326,0.00000011,0.00006593,-0.00001169,0.00000013,-
 0.00000450,0.00002114,-0.00000027,-0.00000343,-0.00000883,0.00000032,-
 0.00000735,-0.00000008,-0.00000011,-0.00001543,0.00000163,0.00000046,0
 .00000324,0.00000656,-0.00000025,-0.00001973,-0.00002432,0.00000002,0.
 00003133,0.00000313,-0.00000005,0.00000923,0.00000980,-0.00000014,0.00
 001154,-0.00004990,-0.00000010,-0.00026061,-0.00008504,0.00000057,0.00
 025676,0.00006898,-0.00000065,0.00001683,-0.00001565,-0.00000004,0.000
 01015,-0.00000375,0.00000003,0.00004011,-0.00000700,0.,-0.00025149,0.0
 0003129,0.00000127,0.14487798,0.23596449,0.00000007,-0.00000020,0.0000
 0699,-0.00000006,0.00000018,-0.00000291,0.00000010,0.00000021,0.000023
 06,-0.00000039,-0.00000011,-0.00002801,0.00000069,-0.00000014,0.000007
 76,-0.00000016,-0.00000103,0.00044094,0.00000866,-0.00001199,0.0114009
 4,0.00000017,-0.00000102,-0.00060006,0.00001006,-0.00000687,0.00667037
 ,0.00000128,0.00000177,-0.00047514,0.00000028,-0.00000036,0.00002645,0
 .00000008,0.00000102,-0.00025767,-0.00000293,0.00000077,-0.00159755,0.
 00002059,0.00002209,0.00666472,0.00003808,0.00001914,-0.04196721,-0.00
 002590,-0.00002774,-0.00477586,0.00000093,0.00000049,-0.00013486,-0.00
 000048,0.00000074,-0.00035326,-0.00000011,-0.00000102,0.00005126,-0.00
 000053,0.00000039,0.00002874,0.00000034,-0.00000023,0.00019509,0.00000
 013,-0.00000010,-0.00004589,-0.00000015,0.00000013,-0.00001981,0.,0.00
 000011,-0.00000492,0.00000015,-0.00000017,-0.00001266,-0.00000009,0.00
 000011,0.00001274,-0.00000009,-0.00000026,-0.00000545,0.00000012,0.000
 00012,-0.00001412,0.00000009,-0.00000006,0.00003918,-0.00000008,-0.000
 00013,-0.00000644,-0.00000035,0.00000009,-0.00009151,0.00000043,0.,0.0
 0003336,-0.00000004,-0.00000010,0.00001024,0.00000001,-0.00000003,-0.0
 0000148,0.00000004,0.00000002,-0.00002363,-0.00000156,0.00000167,-0.00
 185011,-0.00004936,0.00000244,0.02664550,-0.00000374,0.00000455,0.,-0.
 00000073,-0.00000082,0.,-0.00000015,-0.00000347,-0.00000002,0.00000054
 ,0.00000066,0.,-0.00000035,0.00000029,0.,-0.00000350,-0.00000429,0.000
 00001,-0.00004931,0.00001080,0.00000002,-0.00001799,-0.00005572,-0.000
 00003,-0.00000306,0.00016371,0.00000005,-0.00046330,-0.00006806,0.0000
 0018,-0.00002389,-0.00001943,0.00000003,0.00087369,0.00126796,0.000000
 46,0.00001520,-0.00007744,-0.00000003,-0.00012211,-0.00004032,0.000000
 12,0.00006190,0.00001733,-0.00000003,-0.00000236,0.00002579,0.00000002
 ,0.00017986,0.00041976,0.00000006,0.00052205,-0.00060194,-0.00000085,-
 0.00083731,-0.00055180,0.00000043,-0.00040498,0.00072940,0.00000065,0.
 00058177,0.00025459,-0.00000198,0.00799260,0.02570939,0.00001314,-0.06
 652012,-0.04902419,-0.00001097,-0.00094852,-0.02986996,-0.00001404,-0.
 00498062,-0.00062794,0.00001104,0.00012581,-0.00128183,0.,-0.00027090,
 -0.00048788,-0.00000124,0.00033526,0.00007178,-0.00000016,-0.00090812,
 -0.00007679,0.00000052,-0.00439603,0.00194317,0.00000804,0.00000104,0.
 00000737,0.00000001,0.00000175,-0.00000569,0.,-0.00000037,0.00000067,0
 .,0.00000015,-0.00000017,0.,0.00000024,-0.00000006,0.,0.00000198,-0.00
 000207,0.,-0.00002120,0.00000781,0.00000002,0.06821484,-0.00000890,0.0
 0001224,-0.00000004,-0.00000011,-0.00000553,0.00000005,-0.00000699,-0.
 00000523,0.00000020,0.00000730,-0.00001736,0.00000002,0.00000445,0.000
 00946,0.00000010,0.00002043,-0.00000959,0.00000016,0.00001625,0.000029
 66,0.00000009,0.00002810,0.00002524,0.00000032,-0.00002308,-0.00009691
 ,0.00000034,0.00027103,0.00002719,0.00000009,0.00001506,0.00001220,0.,
 -0.00053773,-0.00066711,-0.00000072,-0.00002860,0.00002640,-0.00000011
 ,0.00008148,0.00000010,-0.00000052,-0.00006445,0.00000970,0.00000008,0
 .00001289,-0.00006140,-0.00000018,0.00010115,-0.00046777,-0.00000042,-
 0.00039206,0.00030285,0.00000089,0.00037492,0.00042373,-0.00000037,-0.
 00115336,0.00036678,0.00000112,-0.00098801,-0.00077043,0.00000227,-0.0
 0327608,-0.01517648,-0.00001017,-0.04819678,-0.33722960,-0.00015839,-0
 .00005651,-0.00486827,-0.00000679,-0.00089334,0.00136728,-0.00000414,-
 0.00006725,-0.00037381,-0.00000108,-0.00013805,0.00013552,0.00000096,-
 0.00004059,-0.00005918,-0.00000012,0.00037201,0.00052664,0.00000015,0.
 00276459,0.00018473,-0.00000470,-0.00003146,-0.00001332,-0.00000026,0.
 00002939,0.00000757,-0.00000024,0.00000127,0.00000027,-0.00000005,0.00
 000081,-0.00000037,0.,0.00000088,-0.00000002,-0.00000009,-0.00000349,-
 0.00000308,-0.00000008,0.00000899,-0.00000090,0.00000005,0.05185979,0.
 35550172,0.00000011,0.00000011,-0.00000033,0.00000023,-0.00000054,-0.0
 0000054,0.00000009,-0.00000086,0.00000159,0.00000011,0.00000017,-0.000
 00082,-0.00000054,-0.00000026,0.00000038,-0.00000020,0.00000036,-0.000
 00802,0.00000039,0.00000009,0.00000787,0.00000035,-0.00000006,0.000013
 62,-0.00000020,0.00000013,-0.00003887,0.00000048,-0.00000009,-0.000169
 25,0.00000027,0.00000015,0.00002957,-0.00000127,-0.00000238,0.00035807
 ,0.00000073,0.00000025,0.00007506,-0.00000034,0.,-0.00001012,0.0000001
 2,0.00000023,0.00002139,0.00000018,0.00000008,-0.00000875,-0.00000047,
 -0.00000035,-0.00016993,-0.00000040,0.00000048,0.00007701,0.00000063,0
 .00000093,-0.00010002,-0.00000045,-0.00000059,-0.00007560,-0.00000307,
 0.00000076,-0.00186522,-0.00000561,-0.00003439,0.00314967,-0.00001102,
 -0.00015882,-0.03972656,0.00000628,0.00001853,0.00523278,0.00001040,-0
 .00000481,0.00945613,0.00000150,0.00000041,0.00081731,-0.00000110,0.00
 000198,-0.00136758,-0.00000021,-0.00000070,0.00010259,0.00000013,0.000
 00110,-0.00031678,0.00000895,-0.00000276,0.00367290,-0.00000062,0.0000
 0039,-0.00000160,0.00000007,0.00000026,-0.00000073,0.00000040,0.000000
 21,0.00000092,-0.00000008,0.00000012,0.00000065,0.00000002,-0.00000012
 ,0.00000068,-0.00000025,-0.00000041,-0.00000084,0.00000008,-0.00000012
 ,0.00000127,-0.00000007,0.00017678,0.02656092,0.00000625,-0.00000790,0
 .00000002,0.00000064,0.00000244,-0.00000010,0.00000216,0.00000265,-0.0
 0000012,-0.00000250,0.00000840,-0.00000008,-0.00000234,-0.00000461,-0.
 00000002,-0.00000867,0.00000376,-0.00000037,0.00002361,-0.00000923,0.0
 0000022,-0.00002162,0.00001117,-0.00000055,0.00005900,0.00000405,-0.00
 000033,-0.00004040,0.00009798,-0.00000028,-0.00002424,-0.00000545,0.00
 000005,0.00007451,0.00002287,-0.00000029,0.00000131,-0.00003680,0.0000
 0030,0.00001290,-0.00002191,0.00000054,-0.00000153,0.00000016,-0.00000
 019,-0.00001461,0.00000692,0.00000018,-0.00020145,-0.00039261,-0.00000
 040,-0.00020062,0.00007073,-0.00000024,-0.00009283,0.00000859,0.000000
 46,0.00008062,-0.00009881,0.00000019,-0.00044167,0.00138200,0.00000090
 ,-0.00272586,-0.00354794,0.00000793,-0.01718365,0.01903157,0.00002992,
 -0.23658462,0.14116564,0.00026425,0.00762627,-0.00479348,-0.00000823,0
 .00074966,0.00070178,-0.00000130,0.00029557,0.00029428,-0.00000049,0.0
 0028431,-0.00087930,-0.00000031,-0.00021248,-0.00152401,0.00000303,-0.
 00009333,-0.00042385,-0.00000089,0.00001440,0.00000431,0.00000038,-0.0
 0001667,-0.00000103,0.00000020,-0.00000024,-0.00000025,0.00000005,-0.0
 0000076,0.00000061,-0.00000002,-0.00000058,0.,0.00000010,0.00000132,0.
 00000246,0.00000008,0.00000320,-0.00000170,-0.00000005,0.00106997,-0.0
 0006401,-0.00000562,0.24756498,0.00000693,-0.00000746,-0.00000006,0.00
 000030,0.00000227,0.00000001,0.00001033,0.00000941,0.00000009,-0.00001
 167,0.00001462,0.00000010,-0.00000420,-0.00000810,0.,-0.00002048,0.000
 01832,0.00000037,-0.00003339,-0.00004310,-0.00000020,0.00000866,-0.000
 02012,0.00000052,-0.00012861,0.00003487,0.00000036,0.00008432,0.000007
 55,0.00000028,-0.00012236,0.00001057,0.00000010,-0.00004439,0.00013952
 ,0.00000018,0.00012069,-0.00010017,-0.00000040,-0.00001788,0.00007982,
 -0.00000041,0.00005395,-0.00002942,0.00000011,0.00001868,0.00007481,-0
 .00000012,-0.00011495,-0.00003816,0.00000034,-0.00010608,0.00001404,0.
 00000047,0.00003901,0.00001144,-0.00000035,0.00002829,-0.00009593,-0.0
 0000032,-0.00024079,0.00073485,0.00000107,-0.00275469,-0.00038238,-0.0
 0000415,-0.01069515,0.01175245,0.00001466,0.14109790,-0.16909058,-0.00
 020638,0.02592559,-0.01475646,-0.00003397,0.00046472,0.00308871,0.0000
 0247,0.00033521,-0.00061769,-0.00000025,0.00073496,-0.00166040,-0.0000
 0222,-0.00350665,-0.00303881,-0.00000076,-0.00043403,-0.00056803,0.000
 00035,0.00003052,0.00000600,-0.00000036,-0.00002038,-0.00000744,-0.000
 00012,-0.00000101,-0.00000009,-0.00000002,-0.00000039,0.00000028,0.000
 00004,-0.00000029,-0.00000048,-0.00000006,-0.00000081,0.00000684,-0.00
 000009,0.00000257,-0.00000026,0.00000003,0.00030505,0.00085708,0.00000
 372,-0.15100948,0.17360165,-0.00000011,-0.00000011,-0.00000064,-0.0000
 0032,0.00000065,0.00000027,-0.00000009,0.00000094,-0.00000182,-0.00000
 009,-0.00000014,-0.00000204,0.00000060,0.00000026,0.00000306,0.0000001
 9,-0.00000039,-0.00000034,-0.00000050,-0.00000003,0.00000325,-0.000000
 18,0.,0.00001059,0.00000012,-0.00000038,0.00001467,-0.00000006,0.00000
 030,-0.00006853,-0.00000027,-0.00000017,0.00000537,-0.00000025,0.00000
 132,-0.00097895,-0.00000061,-0.00000036,0.00018503,0.00000066,-0.00000
 008,0.00013458,-0.00000023,-0.00000023,-0.00002274,-0.00000023,-0.0000
 0012,-0.00001513,-0.00000012,0.00000036,-0.00050898,-0.00000018,0.0000
 0021,-0.00005837,0.00000054,-0.00000016,0.00003083,-0.00000021,0.00000
 033,0.00016600,0.00000079,-0.00000127,0.00036891,0.00000798,-0.0000032
 0,0.00883765,0.00001030,-0.00001036,0.00386983,0.00026526,-0.00020863,
 -0.03415267,0.00001229,-0.00000618,0.00290863,-0.00000251,0.00000309,-
 0.00197865,-0.00000032,-0.00000124,-0.00049026,0.00000051,0.,0.0005218
 6,0.00000200,-0.00000333,0.00387938,-0.00000112,-0.00000039,-0.0007279
 6,0.00000064,-0.00000055,0.00000091,-0.00000005,-0.00000025,-0.0000010
 9,-0.00000043,-0.00000024,0.00000085,0.00000009,-0.00000013,0.00000077
 ,-0.00000003,0.00000014,0.00000065,0.00000031,0.00000051,0.00000311,-0
 .00000005,0.00000010,0.00000990,-0.00000541,0.00000479,-0.00571880,-0.
 00028890,0.00022495,0.02377087\\-0.00000633,0.00003040,0.00000077,-0.0
 0000858,-0.00005672,0.00000036,-0.00000961,0.00000373,-0.00000026,0.00
 000360,-0.00000703,0.00000017,0.00000536,-0.00000329,-0.00000102,-0.00
 000019,0.00001470,-0.00000015,-0.00000558,-0.00001313,0.00000048,0.000
 00076,-0.00000298,0.00000112,-0.00000964,0.00000215,-0.00000189,-0.000
 01504,-0.00000239,-0.00000077,0.00000012,-0.00000676,0.00000214,-0.000
 00826,-0.00001228,-0.00000376,-0.00000241,0.00000802,0.00000050,0.0000
 0397,0.00000618,0.00000076,0.00001304,-0.00000056,-0.00000022,0.000006
 05,0.00000236,-0.00000172,-0.00002445,0.00001869,0.00000538,0.00001713
 ,0.00004240,-0.00001465,0.00002439,-0.00003015,0.00001855,-0.00002169,
 -0.00001361,-0.00001891,0.00001282,-0.00000712,0.00000805,-0.00002002,
 0.00000046,-0.00000010,-0.00002210,-0.00002003,-0.00000149,0.00002514,
 0.00001132,0.00000824,0.00001157,0.00005201,-0.00002868,0.00001146,-0.
 00002671,0.00001554,-0.00001799,-0.00002732,-0.00000444,-0.00000840,-0
 .00003255,-0.00000719,0.00001331,0.00000886,0.00001708,0.00000723,0.00
 000341,0.00000721,0.00001841,-0.00001412,0.00000060,0.00000386,0.00004
 479,-0.00000038,-0.00000296,0.00000765,-0.00000014,0.00000263,-0.00000
 193,-0.00000004,0.00000046,0.00000227,-0.00000026,0.00000321,0.0000021
 7,0.00000079,-0.00000062,0.00000125,0.00000049,-0.00000496,0.00000963,
 -0.00000151,0.00000432,0.00000625,-0.00000067\\\@


 FLOATING POINT NUMBERS ARE LIKE SANDPILES:
 EVERY TIME THAT YOU MOVE ONE, YOU LOSE A LITTLE SAND 
 AND YOU PICK UP A LITTLE DIRT.
 Job cpu time:  0 days 18 hours 13 minutes 17.4 seconds.
 File lengths (MBytes):  RWF=   1761 Int=      0 D2E=      0 Chk=     31 Scr=      1
 Normal termination of Gaussian 09 at Mon Dec 30 01:48:24 2013.
