 Entering Gaussian System, Link 0=g09
 Initial command:
 /opt/gaussian/g09/l1.exe /panfs/panfs.cluster/home/shuo/Gau-10550.inp -scrdir=/panfs/panfs.cluster/home/shuo/
 Default is to use a total of  12 processors:
                               12 via shared-memory
                                1 via Linda
 Entering Link 1 = /opt/gaussian/g09/l1.exe PID=     10551.
  
 Copyright (c) 1988,1990,1992,1993,1995,1998,2003,2009,2011,
            Gaussian, Inc.  All Rights Reserved.
  
 This is part of the Gaussian(R) 09 program.  It is based on
 the Gaussian(R) 03 system (copyright 2003, Gaussian, Inc.),
 the Gaussian(R) 98 system (copyright 1998, Gaussian, Inc.),
 the Gaussian(R) 94 system (copyright 1995, Gaussian, Inc.),
 the Gaussian 92(TM) system (copyright 1992, Gaussian, Inc.),
 the Gaussian 90(TM) system (copyright 1990, Gaussian, Inc.),
 the Gaussian 88(TM) system (copyright 1988, Gaussian, Inc.),
 the Gaussian 86(TM) system (copyright 1986, Carnegie Mellon
 University), and the Gaussian 82(TM) system (copyright 1983,
 Carnegie Mellon University). Gaussian is a federally registered
 trademark of Gaussian, Inc.
  
 This software contains proprietary and confidential information,
 including trade secrets, belonging to Gaussian, Inc.
  
 This software is provided under written license and may be
 used, copied, transmitted, or stored only in accord with that
 written license.
  
 The following legend is applicable only to US Government
 contracts under FAR:
  
                    RESTRICTED RIGHTS LEGEND
  
 Use, reproduction and disclosure by the US Government is
 subject to restrictions as set forth in subparagraphs (a)
 and (c) of the Commercial Computer Software - Restricted
 Rights clause in FAR 52.227-19.
  
 Gaussian, Inc.
 340 Quinnipiac St., Bldg. 40, Wallingford CT 06492
  
  
 ---------------------------------------------------------------
 Warning -- This program may not be used in any manner that
 competes with the business of Gaussian, Inc. or will provide
 assistance to any competitor of Gaussian, Inc.  The licensee
 of this program is prohibited from giving any competitor of
 Gaussian, Inc. access to this program.  By using this program,
 the user acknowledges that Gaussian, Inc. is engaged in the
 business of creating and licensing software in the field of
 computational chemistry and represents and warrants to the
 licensee that it is not a competitor of Gaussian, Inc. and that
 it will not use this program in any manner prohibited above.
 ---------------------------------------------------------------
  

 Cite this work as:
 Gaussian 09, Revision C.01,
 M. J. Frisch, G. W. Trucks, H. B. Schlegel, G. E. Scuseria, 
 M. A. Robb, J. R. Cheeseman, G. Scalmani, V. Barone, B. Mennucci, 
 G. A. Petersson, H. Nakatsuji, M. Caricato, X. Li, H. P. Hratchian, 
 A. F. Izmaylov, J. Bloino, G. Zheng, J. L. Sonnenberg, M. Hada, 
 M. Ehara, K. Toyota, R. Fukuda, J. Hasegawa, M. Ishida, T. Nakajima, 
 Y. Honda, O. Kitao, H. Nakai, T. Vreven, J. A. Montgomery, Jr., 
 J. E. Peralta, F. Ogliaro, M. Bearpark, J. J. Heyd, E. Brothers, 
 K. N. Kudin, V. N. Staroverov, T. Keith, R. Kobayashi, J. Normand, 
 K. Raghavachari, A. Rendell, J. C. Burant, S. S. Iyengar, J. Tomasi, 
 M. Cossi, N. Rega, J. M. Millam, M. Klene, J. E. Knox, J. B. Cross, 
 V. Bakken, C. Adamo, J. Jaramillo, R. Gomperts, R. E. Stratmann, 
 O. Yazyev, A. J. Austin, R. Cammi, C. Pomelli, J. W. Ochterski, 
 R. L. Martin, K. Morokuma, V. G. Zakrzewski, G. A. Voth, 
 P. Salvador, J. J. Dannenberg, S. Dapprich, A. D. Daniels, 
 O. Farkas, J. B. Foresman, J. V. Ortiz, J. Cioslowski, 
 and D. J. Fox, Gaussian, Inc., Wallingford CT, 2010.
 
 ******************************************
 Gaussian 09:  EM64L-G09RevC.01 23-Sep-2011
                29-Dec-2013 
 ******************************************
 %chk=58_C23H12N4S4.chk
 %NProcShared=12
 Will use up to   12 processors via shared memory.
 %Mem=8000MB
 Default route:  MaxDisk=100GB
 --------------------------------------------
 #B3LYP/6-31++G(d,p) opt scf=direct freq test
 --------------------------------------------
 1/14=-1,18=20,19=15,26=3,38=1/1,3;
 2/9=110,12=2,17=6,18=5,40=1/2;
 3/5=1,6=6,7=1111,11=2,16=1,25=1,30=1,71=1,74=-5/1,2,3;
 4//1;
 5/5=2,38=5/2;
 6/7=2,8=2,9=2,10=2,28=1/1;
 7//1,2,3,16;
 1/14=-1,18=20,19=15/3(2);
 2/9=110/2;
 99//99;
 2/9=110/2;
 3/5=1,6=6,7=1111,11=2,16=1,25=1,30=1,71=1,74=-5/1,2,3;
 4/5=5,16=3/1;
 5/5=2,38=5/2;
 7//1,2,3,16;
 1/14=-1,18=20,19=15/3(-5);
 2/9=110/2;
 6/7=2,8=2,9=2,10=2,19=2,28=1/1;
 99/9=1/99;
 ----------------------------------------------------------------------
 Geom opt of No.58 candidate from the CEPDB database with SMILE code of
  c1cc2csc(-c3ncc(-c4ccc(nc4)-c4cncs4)c4nsnc34)c2[nH]1, HPC, 20131227, 
 Shuo Dai, Gaussian09
 ----------------------------------------------------------------------
 Charge =  0 Multiplicity = 1
 Symbolic Z-Matrix:
 C                    -2.07806   0.07563  -0.00181 
 C                    -1.3169    1.25881   0.00013 
 C                     0.04504   0.88538   0.00014 
 C                     1.26326   1.44097   0.00094 
 S                     2.4261    0.17577   0.00021 
 C                     1.21397  -1.08098  -0.00196 
 C                     1.62352  -2.46039  -0.00228 
 N                     2.97038  -2.70796  -0.01342 
 C                     3.4566   -3.97049   0.003 
 C                     2.71152  -5.14945   0.01791 
 C                     3.29212  -6.47473   0.01052 
 C                     4.61444  -6.69468  -0.3885 
 C                     5.11049  -7.98189  -0.45169 
 C                     4.23085  -9.02432  -0.22233 
 N                     2.9754   -8.85092   0.22275 
 C                     2.55723  -7.59555   0.38268 
 C                     4.57924  -10.3959  -0.5042 
 C                     5.63722  -10.90679  -1.22803 
 N                     5.68653  -12.28018  -1.32128 
 C                     4.65161  -12.78353  -0.68695 
 S                     3.58268  -11.68217   0.04608 
 C                     1.30601  -4.93104  -0.00355 
 N                     0.34039  -5.86777  -0.04969 
 S                    -1.1167   -5.12043   0.0098 
 N                    -0.60341  -3.56211   0.03199 
 C                     0.74234  -3.55943   0.00738 
 C                    -0.00677  -0.49353  -0.00216 
 N                    -1.25957  -1.04587  -0.00398 
 H                    -1.50519  -2.03497  -0.00364 
 H                    -3.15235  -0.05702  -0.00186 
 H                    -1.71474   2.26136   0.00136 
 H                     1.57159   2.47456   0.00172 
 H                     4.54709  -3.99289   0.0036 
 H                     5.27637  -5.88532  -0.68232 
 H                     6.14897  -8.14762  -0.70759 
 H                     1.57032  -7.54268   0.82987 
 H                     6.40427  -10.31492  -1.71514 
 H                     4.46206  -13.84163  -0.61623 
 

 GradGradGradGradGradGradGradGradGradGradGradGradGradGradGradGradGradGrad
 Berny optimization.
 Initialization pass.
                           ----------------------------
                           !    Initial Parameters    !
                           ! (Angstroms and Degrees)  !
 --------------------------                            --------------------------
 ! Name  Definition              Value          Derivative Info.                !
 --------------------------------------------------------------------------------
 ! R1    R(1,2)                  1.4069         estimate D2E/DX2                !
 ! R2    R(1,28)                 1.3884         estimate D2E/DX2                !
 ! R3    R(1,30)                 1.0824         estimate D2E/DX2                !
 ! R4    R(2,3)                  1.4122         estimate D2E/DX2                !
 ! R5    R(2,31)                 1.0786         estimate D2E/DX2                !
 ! R6    R(3,4)                  1.3389         estimate D2E/DX2                !
 ! R7    R(3,27)                 1.3799         estimate D2E/DX2                !
 ! R8    R(4,5)                  1.7184         estimate D2E/DX2                !
 ! R9    R(4,32)                 1.0786         estimate D2E/DX2                !
 ! R10   R(5,6)                  1.746          estimate D2E/DX2                !
 ! R11   R(6,7)                  1.4389         estimate D2E/DX2                !
 ! R12   R(6,27)                 1.3547         estimate D2E/DX2                !
 ! R13   R(7,8)                  1.3695         estimate D2E/DX2                !
 ! R14   R(7,26)                 1.4087         estimate D2E/DX2                !
 ! R15   R(8,9)                  1.353          estimate D2E/DX2                !
 ! R16   R(9,10)                 1.3947         estimate D2E/DX2                !
 ! R17   R(9,33)                 1.0907         estimate D2E/DX2                !
 ! R18   R(10,11)                1.4469         estimate D2E/DX2                !
 ! R19   R(10,22)                1.4225         estimate D2E/DX2                !
 ! R20   R(11,12)                1.3986         estimate D2E/DX2                !
 ! R21   R(11,16)                1.391          estimate D2E/DX2                !
 ! R22   R(12,13)                1.3809         estimate D2E/DX2                !
 ! R23   R(12,34)                1.0861         estimate D2E/DX2                !
 ! R24   R(13,14)                1.3831         estimate D2E/DX2                !
 ! R25   R(13,35)                1.0823         estimate D2E/DX2                !
 ! R26   R(14,15)                1.3432         estimate D2E/DX2                !
 ! R27   R(14,17)                1.4429         estimate D2E/DX2                !
 ! R28   R(15,16)                1.3328         estimate D2E/DX2                !
 ! R29   R(16,36)                1.0848         estimate D2E/DX2                !
 ! R30   R(17,18)                1.3799         estimate D2E/DX2                !
 ! R31   R(17,21)                1.7177         estimate D2E/DX2                !
 ! R32   R(18,19)                1.3774         estimate D2E/DX2                !
 ! R33   R(18,37)                1.0844         estimate D2E/DX2                !
 ! R34   R(19,20)                1.3141         estimate D2E/DX2                !
 ! R35   R(20,21)                1.7009         estimate D2E/DX2                !
 ! R36   R(20,38)                1.0773         estimate D2E/DX2                !
 ! R37   R(22,23)                1.3461         estimate D2E/DX2                !
 ! R38   R(22,26)                1.483          estimate D2E/DX2                !
 ! R39   R(23,24)                1.6386         estimate D2E/DX2                !
 ! R40   R(24,25)                1.6408         estimate D2E/DX2                !
 ! R41   R(25,26)                1.346          estimate D2E/DX2                !
 ! R42   R(27,28)                1.3692         estimate D2E/DX2                !
 ! R43   R(28,29)                1.0191         estimate D2E/DX2                !
 ! A1    A(2,1,28)             111.1236         estimate D2E/DX2                !
 ! A2    A(2,1,30)             129.7929         estimate D2E/DX2                !
 ! A3    A(28,1,30)            119.0835         estimate D2E/DX2                !
 ! A4    A(1,2,3)              107.4208         estimate D2E/DX2                !
 ! A5    A(1,2,31)             125.6016         estimate D2E/DX2                !
 ! A6    A(3,2,31)             126.9776         estimate D2E/DX2                !
 ! A7    A(2,3,4)              140.1507         estimate D2E/DX2                !
 ! A8    A(2,3,27)             103.1813         estimate D2E/DX2                !
 ! A9    A(4,3,27)             116.668          estimate D2E/DX2                !
 ! A10   A(3,4,5)              108.0698         estimate D2E/DX2                !
 ! A11   A(3,4,32)             131.1265         estimate D2E/DX2                !
 ! A12   A(5,4,32)             120.8037         estimate D2E/DX2                !
 ! A13   A(4,5,6)               93.4494         estimate D2E/DX2                !
 ! A14   A(5,6,7)              119.4991         estimate D2E/DX2                !
 ! A15   A(5,6,27)             108.2666         estimate D2E/DX2                !
 ! A16   A(7,6,27)             132.2343         estimate D2E/DX2                !
 ! A17   A(6,7,8)              116.9509         estimate D2E/DX2                !
 ! A18   A(6,7,26)             124.741          estimate D2E/DX2                !
 ! A19   A(8,7,26)             118.3081         estimate D2E/DX2                !
 ! A20   A(7,8,9)              121.4675         estimate D2E/DX2                !
 ! A21   A(8,9,10)             126.6491         estimate D2E/DX2                !
 ! A22   A(8,9,33)             112.2379         estimate D2E/DX2                !
 ! A23   A(10,9,33)            121.113          estimate D2E/DX2                !
 ! A24   A(9,10,11)            124.0434         estimate D2E/DX2                !
 ! A25   A(9,10,22)            113.4449         estimate D2E/DX2                !
 ! A26   A(11,10,22)           122.481          estimate D2E/DX2                !
 ! A27   A(10,11,12)           121.6604         estimate D2E/DX2                !
 ! A28   A(10,11,16)           121.6468         estimate D2E/DX2                !
 ! A29   A(12,11,16)           116.6873         estimate D2E/DX2                !
 ! A30   A(11,12,13)           119.9513         estimate D2E/DX2                !
 ! A31   A(11,12,34)           122.4263         estimate D2E/DX2                !
 ! A32   A(13,12,34)           117.6024         estimate D2E/DX2                !
 ! A33   A(12,13,14)           117.8064         estimate D2E/DX2                !
 ! A34   A(12,13,35)           119.8824         estimate D2E/DX2                !
 ! A35   A(14,13,35)           122.2779         estimate D2E/DX2                !
 ! A36   A(13,14,15)           123.5088         estimate D2E/DX2                !
 ! A37   A(13,14,17)           122.0365         estimate D2E/DX2                !
 ! A38   A(15,14,17)           114.3995         estimate D2E/DX2                !
 ! A39   A(14,15,16)           117.0386         estimate D2E/DX2                !
 ! A40   A(11,16,15)           124.1314         estimate D2E/DX2                !
 ! A41   A(11,16,36)           123.4825         estimate D2E/DX2                !
 ! A42   A(15,16,36)           112.384          estimate D2E/DX2                !
 ! A43   A(14,17,18)           129.754          estimate D2E/DX2                !
 ! A44   A(14,17,21)           120.6071         estimate D2E/DX2                !
 ! A45   A(18,17,21)           109.6098         estimate D2E/DX2                !
 ! A46   A(17,18,19)           115.6004         estimate D2E/DX2                !
 ! A47   A(17,18,37)           125.1594         estimate D2E/DX2                !
 ! A48   A(19,18,37)           119.2396         estimate D2E/DX2                !
 ! A49   A(18,19,20)           108.7263         estimate D2E/DX2                !
 ! A50   A(19,20,21)           117.0625         estimate D2E/DX2                !
 ! A51   A(19,20,38)           123.1268         estimate D2E/DX2                !
 ! A52   A(21,20,38)           119.8106         estimate D2E/DX2                !
 ! A53   A(17,21,20)            88.9806         estimate D2E/DX2                !
 ! A54   A(10,22,23)           127.044          estimate D2E/DX2                !
 ! A55   A(10,22,26)           121.161          estimate D2E/DX2                !
 ! A56   A(23,22,26)           111.791          estimate D2E/DX2                !
 ! A57   A(22,23,24)           108.6174         estimate D2E/DX2                !
 ! A58   A(23,24,25)            98.9438         estimate D2E/DX2                !
 ! A59   A(24,25,26)           108.3255         estimate D2E/DX2                !
 ! A60   A(7,26,22)            118.933          estimate D2E/DX2                !
 ! A61   A(7,26,25)            128.8362         estimate D2E/DX2                !
 ! A62   A(22,26,25)           112.2301         estimate D2E/DX2                !
 ! A63   A(3,27,6)             113.5462         estimate D2E/DX2                !
 ! A64   A(3,27,28)            115.9438         estimate D2E/DX2                !
 ! A65   A(6,27,28)            130.51           estimate D2E/DX2                !
 ! A66   A(1,28,27)            102.3305         estimate D2E/DX2                !
 ! A67   A(1,28,29)            129.9313         estimate D2E/DX2                !
 ! A68   A(27,28,29)           127.7378         estimate D2E/DX2                !
 ! D1    D(28,1,2,3)            -0.0411         estimate D2E/DX2                !
 ! D2    D(28,1,2,31)          179.9583         estimate D2E/DX2                !
 ! D3    D(30,1,2,3)           179.962          estimate D2E/DX2                !
 ! D4    D(30,1,2,31)           -0.0386         estimate D2E/DX2                !
 ! D5    D(2,1,28,27)            0.0474         estimate D2E/DX2                !
 ! D6    D(2,1,28,29)          179.85           estimate D2E/DX2                !
 ! D7    D(30,1,28,27)        -179.9553         estimate D2E/DX2                !
 ! D8    D(30,1,28,29)          -0.1527         estimate D2E/DX2                !
 ! D9    D(1,2,3,4)            179.9703         estimate D2E/DX2                !
 ! D10   D(1,2,3,27)             0.0155         estimate D2E/DX2                !
 ! D11   D(31,2,3,4)            -0.0292         estimate D2E/DX2                !
 ! D12   D(31,2,3,27)         -179.9839         estimate D2E/DX2                !
 ! D13   D(2,3,4,5)            179.9964         estimate D2E/DX2                !
 ! D14   D(2,3,4,32)            -0.0153         estimate D2E/DX2                !
 ! D15   D(27,3,4,5)            -0.0529         estimate D2E/DX2                !
 ! D16   D(27,3,4,32)          179.9354         estimate D2E/DX2                !
 ! D17   D(2,3,27,6)          -179.9719         estimate D2E/DX2                !
 ! D18   D(2,3,27,28)            0.0155         estimate D2E/DX2                !
 ! D19   D(4,3,27,6)             0.0605         estimate D2E/DX2                !
 ! D20   D(4,3,27,28)         -179.9521         estimate D2E/DX2                !
 ! D21   D(3,4,5,6)              0.0259         estimate D2E/DX2                !
 ! D22   D(32,4,5,6)          -179.9639         estimate D2E/DX2                !
 ! D23   D(4,5,6,7)           -179.9543         estimate D2E/DX2                !
 ! D24   D(4,5,6,27)             0.0055         estimate D2E/DX2                !
 ! D25   D(5,6,7,8)             -0.591          estimate D2E/DX2                !
 ! D26   D(5,6,7,26)           179.4384         estimate D2E/DX2                !
 ! D27   D(27,6,7,8)           179.4606         estimate D2E/DX2                !
 ! D28   D(27,6,7,26)           -0.51           estimate D2E/DX2                !
 ! D29   D(5,6,27,3)            -0.0357         estimate D2E/DX2                !
 ! D30   D(5,6,27,28)          179.9792         estimate D2E/DX2                !
 ! D31   D(7,6,27,3)           179.917          estimate D2E/DX2                !
 ! D32   D(7,6,27,28)           -0.0681         estimate D2E/DX2                !
 ! D33   D(6,7,8,9)            179.1221         estimate D2E/DX2                !
 ! D34   D(26,7,8,9)            -0.9053         estimate D2E/DX2                !
 ! D35   D(6,7,26,22)          179.5882         estimate D2E/DX2                !
 ! D36   D(6,7,26,25)           -0.7407         estimate D2E/DX2                !
 ! D37   D(8,7,26,22)           -0.382          estimate D2E/DX2                !
 ! D38   D(8,7,26,25)          179.2891         estimate D2E/DX2                !
 ! D39   D(7,8,9,10)             0.726          estimate D2E/DX2                !
 ! D40   D(7,8,9,33)          -179.2782         estimate D2E/DX2                !
 ! D41   D(8,9,10,11)          178.822          estimate D2E/DX2                !
 ! D42   D(8,9,10,22)            0.7969         estimate D2E/DX2                !
 ! D43   D(33,9,10,11)          -1.1736         estimate D2E/DX2                !
 ! D44   D(33,9,10,22)        -179.1986         estimate D2E/DX2                !
 ! D45   D(9,10,11,12)         -18.4554         estimate D2E/DX2                !
 ! D46   D(9,10,11,16)         162.4287         estimate D2E/DX2                !
 ! D47   D(22,10,11,12)        159.3967         estimate D2E/DX2                !
 ! D48   D(22,10,11,16)        -19.7193         estimate D2E/DX2                !
 ! D49   D(9,10,22,23)         177.1487         estimate D2E/DX2                !
 ! D50   D(9,10,22,26)          -2.059          estimate D2E/DX2                !
 ! D51   D(11,10,22,23)         -0.9113         estimate D2E/DX2                !
 ! D52   D(11,10,22,26)        179.881          estimate D2E/DX2                !
 ! D53   D(10,11,12,13)       -176.473          estimate D2E/DX2                !
 ! D54   D(10,11,12,34)          1.8572         estimate D2E/DX2                !
 ! D55   D(16,11,12,13)          2.6846         estimate D2E/DX2                !
 ! D56   D(16,11,12,34)       -178.9851         estimate D2E/DX2                !
 ! D57   D(10,11,16,15)        170.4205         estimate D2E/DX2                !
 ! D58   D(10,11,16,36)         -9.0092         estimate D2E/DX2                !
 ! D59   D(12,11,16,15)         -8.7373         estimate D2E/DX2                !
 ! D60   D(12,11,16,36)        171.833          estimate D2E/DX2                !
 ! D61   D(11,12,13,14)          5.4215         estimate D2E/DX2                !
 ! D62   D(11,12,13,35)       -176.6287         estimate D2E/DX2                !
 ! D63   D(34,12,13,14)       -172.9881         estimate D2E/DX2                !
 ! D64   D(34,12,13,35)          4.9617         estimate D2E/DX2                !
 ! D65   D(12,13,14,15)         -8.8419         estimate D2E/DX2                !
 ! D66   D(12,13,14,17)        168.3041         estimate D2E/DX2                !
 ! D67   D(35,13,14,15)        173.2607         estimate D2E/DX2                !
 ! D68   D(35,13,14,17)         -9.5933         estimate D2E/DX2                !
 ! D69   D(13,14,15,16)          3.3342         estimate D2E/DX2                !
 ! D70   D(17,14,15,16)       -174.0094         estimate D2E/DX2                !
 ! D71   D(13,14,17,18)        -13.0943         estimate D2E/DX2                !
 ! D72   D(13,14,17,21)        169.0855         estimate D2E/DX2                !
 ! D73   D(15,14,17,18)        164.2929         estimate D2E/DX2                !
 ! D74   D(15,14,17,21)        -13.5273         estimate D2E/DX2                !
 ! D75   D(14,15,16,11)          5.8069         estimate D2E/DX2                !
 ! D76   D(14,15,16,36)       -174.7075         estimate D2E/DX2                !
 ! D77   D(14,17,18,19)       -179.5891         estimate D2E/DX2                !
 ! D78   D(14,17,18,37)          0.1548         estimate D2E/DX2                !
 ! D79   D(21,17,18,19)         -1.5807         estimate D2E/DX2                !
 ! D80   D(21,17,18,37)        178.1632         estimate D2E/DX2                !
 ! D81   D(14,17,21,20)        179.4017         estimate D2E/DX2                !
 ! D82   D(18,17,21,20)          1.1806         estimate D2E/DX2                !
 ! D83   D(17,18,19,20)          1.1309         estimate D2E/DX2                !
 ! D84   D(37,18,19,20)       -178.6292         estimate D2E/DX2                !
 ! D85   D(18,19,20,21)         -0.1509         estimate D2E/DX2                !
 ! D86   D(18,19,20,38)        179.8985         estimate D2E/DX2                !
 ! D87   D(19,20,21,17)         -0.62           estimate D2E/DX2                !
 ! D88   D(38,20,21,17)        179.3322         estimate D2E/DX2                !
 ! D89   D(10,22,23,24)        177.5402         estimate D2E/DX2                !
 ! D90   D(26,22,23,24)         -3.1899         estimate D2E/DX2                !
 ! D91   D(10,22,26,7)           1.948          estimate D2E/DX2                !
 ! D92   D(10,22,26,25)       -177.7752         estimate D2E/DX2                !
 ! D93   D(23,22,26,7)        -177.371          estimate D2E/DX2                !
 ! D94   D(23,22,26,25)          2.9058         estimate D2E/DX2                !
 ! D95   D(22,23,24,25)          2.3187         estimate D2E/DX2                !
 ! D96   D(23,24,25,26)         -0.6239         estimate D2E/DX2                !
 ! D97   D(24,25,26,7)         179.1755         estimate D2E/DX2                !
 ! D98   D(24,25,26,22)         -1.1354         estimate D2E/DX2                !
 ! D99   D(3,27,28,1)           -0.0392         estimate D2E/DX2                !
 ! D100  D(3,27,28,29)        -179.8477         estimate D2E/DX2                !
 ! D101  D(6,27,28,1)          179.9456         estimate D2E/DX2                !
 ! D102  D(6,27,28,29)           0.1371         estimate D2E/DX2                !
 --------------------------------------------------------------------------------
 Trust Radius=3.00D-01 FncErr=1.00D-07 GrdErr=1.00D-06
 Number of steps in this run=    223 maximum allowed number of steps=    228.
 GradGradGradGradGradGradGradGradGradGradGradGradGradGradGradGradGradGrad

                          Input orientation:                          
 ---------------------------------------------------------------------
 Center     Atomic      Atomic             Coordinates (Angstroms)
 Number     Number       Type             X           Y           Z
 ---------------------------------------------------------------------
      1          6           0       -2.078060    0.075630   -0.001810
      2          6           0       -1.316900    1.258810    0.000130
      3          6           0        0.045040    0.885380    0.000140
      4          6           0        1.263260    1.440970    0.000940
      5         16           0        2.426100    0.175770    0.000210
      6          6           0        1.213970   -1.080980   -0.001960
      7          6           0        1.623520   -2.460390   -0.002280
      8          7           0        2.970380   -2.707960   -0.013420
      9          6           0        3.456600   -3.970490    0.003000
     10          6           0        2.711520   -5.149450    0.017910
     11          6           0        3.292120   -6.474730    0.010520
     12          6           0        4.614440   -6.694680   -0.388500
     13          6           0        5.110490   -7.981890   -0.451690
     14          6           0        4.230850   -9.024320   -0.222330
     15          7           0        2.975400   -8.850920    0.222750
     16          6           0        2.557230   -7.595550    0.382680
     17          6           0        4.579240  -10.395900   -0.504200
     18          6           0        5.637220  -10.906790   -1.228030
     19          7           0        5.686530  -12.280180   -1.321280
     20          6           0        4.651610  -12.783530   -0.686950
     21         16           0        3.582680  -11.682170    0.046080
     22          6           0        1.306010   -4.931040   -0.003550
     23          7           0        0.340390   -5.867770   -0.049690
     24         16           0       -1.116700   -5.120430    0.009800
     25          7           0       -0.603410   -3.562110    0.031990
     26          6           0        0.742340   -3.559430    0.007380
     27          6           0       -0.006770   -0.493530   -0.002160
     28          7           0       -1.259570   -1.045870   -0.003980
     29          1           0       -1.505190   -2.034970   -0.003640
     30          1           0       -3.152350   -0.057020   -0.001860
     31          1           0       -1.714740    2.261360    0.001360
     32          1           0        1.571590    2.474560    0.001720
     33          1           0        4.547090   -3.992890    0.003600
     34          1           0        5.276370   -5.885320   -0.682320
     35          1           0        6.148970   -8.147620   -0.707590
     36          1           0        1.570320   -7.542680    0.829870
     37          1           0        6.404270  -10.314920   -1.715140
     38          1           0        4.462060  -13.841630   -0.616230
 ---------------------------------------------------------------------
                    Distance matrix (angstroms):
                    1          2          3          4          5
     1  C    0.000000
     2  C    1.406870   0.000000
     3  C    2.272279   1.412208   0.000000
     4  C    3.609512   2.586582   1.338933   0.000000
     5  S    4.505274   3.896540   2.484551   1.718409   0.000000
     6  C    3.489299   3.446727   2.287569   2.522433   1.746048
     7  C    4.486991   4.741152   3.699430   3.917960   2.755627
     8  N    5.765003   5.840909   4.633561   4.486433   2.934676
     9  C    6.855915   7.080388   5.934494   5.839062   4.272401
    10  C    7.088154   7.569299   6.597697   6.747694   5.332893
    11  C    8.470313   9.002823   8.044554   8.171577   6.706657
    12  C    9.527654   9.929241   8.859332   8.807433   7.221012
    13  C   10.807464  11.265257  10.222104  10.188049   8.599859
    14  C   11.075200  11.686307  10.759770  10.880199   9.378076
    15  N   10.260174  10.985447  10.170157  10.435690   9.046126
    16  C    8.971106   9.672379   8.853452   9.136672   7.781831
    17  C   12.418735  13.071002  12.168838  12.302942  10.800493
    18  C   13.477489  14.066627  13.108629  13.157092  11.603577
    19  N   14.652505  15.300275  14.384176  14.477000  12.943239
    20  C   14.529827  15.273588  14.440626  14.638665  13.166949
    21  S   13.049603  13.837520  13.056045  13.326611  11.914299
    22  C    6.043069   6.722642   5.951538   6.372155   5.228205
    23  N    6.416790   7.316914   6.759789   7.366949   6.393516
    24  S    5.284258   6.382388   6.117147   6.979703   6.371912
    25  N    3.925416   4.873536   4.494627   5.340059   4.811516
    26  C    4.600913   5.239843   4.499179   5.027464   4.097172
    27  C    2.148066   2.187954   1.379885   2.314147   2.523257
    28  N    1.388414   2.305397   2.330612   3.542466   3.882858
    29  H    2.186965   3.299160   3.306308   4.443703   4.510258
    30  H    1.082449   2.258382   3.333380   4.662788   5.583305
    31  H    2.215723   1.078603   2.233864   3.088936   4.636404
    32  H    4.367473   3.133915   2.203599   1.078599   2.452473
    33  H    7.774670   7.871896   6.638221   6.349046   4.677215
    34  H    9.491241   9.745540   8.583411   8.381314   6.732511
    35  H   11.653497  12.030004  10.924923  10.784861   9.145467
    36  H    8.487698   9.300039   8.605064   9.027036   7.809940
    37  H   13.522165  14.018197  12.993410  12.945110  11.350015
    38  H   15.389633  16.180221  15.387488  15.625975  14.177892
                    6          7          8          9         10
     6  C    0.000000
     7  C    1.438924   0.000000
     8  N    2.394195   1.369470   0.000000
     9  C    3.657688   2.374997   1.353019   0.000000
    10  C    4.335378   2.900896   2.455374   1.394745   0.000000
    11  C    5.780260   4.347334   3.780562   2.509647   1.446899
    12  C    6.574666   5.198459   4.328690   2.985813   2.484755
    13  C    7.937738   6.545830   5.708458   4.362731   3.741430
    14  C    8.499810   7.066241   6.444287   5.117757   4.169016
    15  N    7.970263   6.535831   6.147500   4.909016   3.716513
    16  C    6.662726   5.233534   4.920988   3.754209   2.477956
    17  C    9.916906   8.482955   7.869798   6.542436   5.593408
    18  C   10.845042   9.431539   8.706786   7.374469   6.577161
    19  N   12.131219  10.708692  10.035704   8.705013   7.841647
    20  C   12.216229  10.779857  10.237055   8.920412   7.908221
    21  S   10.862703   9.427718   8.995271   7.712831   6.590610
    22  C    3.851160   2.490969   2.777105   2.355363   1.422541
    23  N    4.866085   3.641278   4.111273   3.648728   2.478469
    24  S    4.663616   3.819000   4.746027   4.715663   3.828339
    25  N    3.075716   2.484789   3.674726   4.080600   3.675406
    26  C    2.522942   1.408709   2.385287   2.745213   2.530997
    27  C    1.354734   2.554679   3.710424   4.907567   5.391391
    28  N    2.473790   3.211398   4.544789   5.549388   5.710464
    29  H    2.881654   3.157501   4.525896   5.325940   5.242241
    30  H    4.484779   5.346506   6.671989   7.680722   7.766480
    31  H    4.443939   5.782639   6.829693   8.098069   8.632042
    32  H    3.573482   4.935225   5.367994   6.715053   7.708776
    33  H    4.425939   3.300887   2.034047   1.090720   2.169597
    34  H    6.328323   5.053307   3.982541   2.729066   2.758674
    35  H    8.648095   7.302174   6.338392   5.020180   4.618597
    36  H    6.524760   5.150240   5.103511   4.123385   2.772935
    37  H   10.730324   9.353240   8.517822   7.203649   6.581941
    38  H   13.181867  11.745930  11.249315   9.941519   8.889349
                   11         12         13         14         15
    11  C    0.000000
    12  C    1.398615   0.000000
    13  C    2.406582   1.380930   0.000000
    14  C    2.726874   2.366849   1.383124   0.000000
    15  N    2.406581   2.776590   2.401810   1.343249   0.000000
    16  C    1.390972   2.374531   2.713774   2.282197   1.332816
    17  C    4.158989   3.703195   2.472333   1.442934   2.342589
    18  C    5.164945   4.415061   3.071675   2.555974   3.662875
    19  N    6.419512   5.763442   4.423043   3.731932   4.636171
    20  C    6.491197   6.096273   4.829251   3.811111   4.370658
    21  S    5.215661   5.111599   4.034111   2.748879   2.901030
    22  C    2.515514   3.768862   4.897202   5.035623   4.266560
    23  N    3.014090   4.366472   5.233064   5.012912   3.989572
    24  S    4.612139   5.956750   6.868684   6.624993   5.541406
    25  N    4.864049   6.100473   7.239962   7.298663   6.388723
    26  C    3.873030   4.997967   6.232947   6.487487   5.747417
    27  C    6.830636   7.743326   9.080967   9.527868   8.876367
    28  N    7.084533   8.158487   9.427963   9.687520   8.882859
    29  H    6.536502   7.701356   8.906954   9.044390   8.159909
    30  H    9.094963  10.224043  11.457768  11.617776  10.720655
    31  H   10.069161  10.973658  12.317191  12.758003  12.063548
    32  H    9.113182   9.668825  11.048382  11.804495  11.414291
    33  H    2.781102   2.730924   4.054236   5.046419   5.110645
    34  H    2.182815   1.086069   2.115730   3.340363   3.861139
    35  H    3.387600   2.137203   1.082309   2.164085   3.381081
    36  H    2.185508   3.386768   3.790528   3.221925   2.013538
    37  H    5.235498   4.250836   2.951813   2.935623   4.201888
    38  H    7.485505   7.152201   5.897804   4.838914   5.274584
                   16         17         18         19         20
    16  C    0.000000
    17  C    3.566096   0.000000
    18  C    4.800524   1.379949   0.000000
    19  N    5.885725   2.333286   1.377435   0.000000
    20  C    5.696110   2.395707   2.187772   1.314076   0.000000
    21  S    4.226738   1.717682   2.538839   2.579433   1.700864
    22  C    2.968895   6.389787   7.481198   8.656514   8.562808
    23  N    2.843685   6.219195   7.405175   8.444949   8.174378
    24  S    4.445562   7.780650   8.979400   9.965828   9.616754
    25  N    5.136270   8.593489   9.719950  10.835102  10.637984
    26  C    4.441277   7.856261   8.914583  10.112459  10.042336
    27  C    7.560482  10.924306  11.907702  13.155944  13.161062
    28  N    7.590506  11.034717  12.095526  13.273783  13.159831
    29  H    6.897286  10.352584  11.455232  12.586554  12.405831
    30  H    9.464492  12.919840  14.017045  15.141741  14.944404
    31  H   10.749596  14.144823  15.131520  16.370234  16.350930
    32  H   10.125400  13.226891  14.039308  15.374830  15.581081
    33  H    4.133086   6.423195   7.106849   8.469522   8.818341
    34  H    3.384204   4.567609   5.063909   6.439778   6.926446
    35  H    3.793951   2.749579   2.854079   4.203394   4.871773
    36  H    1.084788   4.355939   5.664968   6.634345   6.265908
    37  H    5.157086   2.191727   1.084413   2.128972   3.197347
    38  H    6.606036   3.449542   3.220029   2.105837   1.077268
                   21         22         23         24         25
    21  S    0.000000
    22  C    7.124847   0.000000
    23  N    6.657992   1.346111   0.000000
    24  S    8.071054   2.430138   1.638648   0.000000
    25  N    9.135585   2.349706   2.492689   1.640829   0.000000
    26  C    8.605111   1.482956   2.343769   2.427500   1.345978
    27  C   11.750410   4.627622   5.385651   4.758182   3.126232
    28  N   11.686778   4.655829   5.080618   4.077087   2.600635
    29  H   10.906758   4.036096   4.254250   3.109850   1.773875
    30  H   13.435291   6.605532   6.779848   5.457300   4.334039
    31  H   14.915988   7.800998   8.385041   7.405980   5.928642
    32  H   14.298932   7.410362   8.432850   8.056726   6.416613
    33  H    7.749640   3.374133   4.605903   5.774937   5.168561
    34  H    6.082978   4.139461   4.976387   6.475757   6.362339
    35  H    4.432483   5.856306   6.274564   7.903701   8.195640
    36  H    4.668972   2.754108   2.256474   3.709432   4.605068
    37  H    3.596198   7.609728   7.702046   9.301781   9.887390
    38  H    2.423888   9.472837   8.993974  10.371779  11.478140
                   26         27         28         29         30
    26  C    0.000000
    27  C    3.156105   0.000000
    28  N    3.213372   1.369157   0.000000
    29  H    2.715785   2.149721   1.019141   0.000000
    30  H    5.237898   3.175723   2.135520   2.573990   0.000000
    31  H    6.318139   3.241387   3.338410   4.301440   2.727933
    32  H    6.090708   3.361665   4.517624   5.459163   5.359526
    33  H    3.829363   5.743100   6.511704   6.361100   8.647108
    34  H    5.142264   7.579287   8.160817   7.827858  10.270123
    35  H    7.127013   9.847632  10.286709   9.820703  12.347891
    36  H    4.150701   7.271176   7.135273   6.363047   8.889910
    37  H    8.981156  11.853077  12.148160  11.577839  14.124051
    38  H   10.952116  14.089688  14.030088  13.243133  15.759828
                   31         32         33         34         35
    31  H    0.000000
    32  H    3.293238   0.000000
    33  H    8.850207   7.119095   0.000000
    34  H   10.756925   9.169564   2.140941   0.000000
    35  H   13.064739  11.588194   4.509278   2.424886   0.000000
    36  H   10.372909  10.051414   4.705836   4.332247   4.867625
    37  H   15.067432  13.779449   6.809644   4.686175   2.403648
    38  H   17.258058  16.581759   9.868592   7.998146   5.939340
                   36         37         38
    36  H    0.000000
    37  H    6.126130   0.000000
    38  H    7.080264   4.173424   0.000000
 Stoichiometry    C19H10N6S3
 Framework group  C1[X(C19H10N6S3)]
 Deg. of freedom   108
 Full point group                 C1      NOp   1
 Largest Abelian subgroup         C1      NOp   1
 Largest concise Abelian subgroup C1      NOp   1
                         Standard orientation:                         
 ---------------------------------------------------------------------
 Center     Atomic      Atomic             Coordinates (Angstroms)
 Number     Number       Type             X           Y           Z
 ---------------------------------------------------------------------
      1          6           0       -6.347432    1.835017    0.266741
      2          6           0       -7.155157    0.684117    0.218866
      3          6           0       -6.296067   -0.430885    0.104563
      4          6           0       -6.350738   -1.765564    0.012997
      5         16           0       -4.741631   -2.358701   -0.096054
      6          6           0       -4.035892   -0.763816   -0.012645
      7          6           0       -2.605204   -0.618567   -0.063021
      8          7           0       -1.867773   -1.768163   -0.163377
      9          6           0       -0.517020   -1.736820   -0.235095
     10          6           0        0.292151   -0.601186   -0.205252
     11          6           0        1.737561   -0.634781   -0.261634
     12          6           0        2.456620   -1.799174    0.026931
     13          6           0        3.837288   -1.773074    0.033450
     14          6           0        4.460310   -0.550157   -0.137869
     15          7           0        3.807585    0.573392   -0.478316
     16          6           0        2.481644    0.494235   -0.587925
     17          6           0        5.872621   -0.371019    0.097388
     18          6           0        6.774938   -1.203749    0.727185
     19          7           0        8.068146   -0.734858    0.798466
     20          6           0        8.116694    0.455032    0.242950
     21         16           0        6.663554    1.074564   -0.387529
     22          6           0       -0.439036    0.611319   -0.068066
     23          7           0        0.065443    1.854329    0.043474
     24         16           0       -1.177992    2.919451    0.110941
     25          7           0       -2.427128    1.856387    0.067641
     26          6           0       -1.921077    0.611969   -0.015975
     27          6           0       -5.039738    0.139722    0.093254
     28          7           0       -5.001072    1.505004    0.188659
     29          1           0       -4.178594    2.106780    0.195320
     30          1           0       -6.629821    2.876544    0.351440
     31          1           0       -8.232797    0.671054    0.262538
     32          1           0       -7.190777   -2.441996    0.000751
     33          1           0       -0.085093   -2.734452   -0.323642
     34          1           0        1.969866   -2.737302    0.276994
     35          1           0        4.393080   -2.686189    0.202886
     36          1           0        2.041612    1.415868   -0.953616
     37          1           0        6.537238   -2.169820    1.158644
     38          1           0        9.021172    1.036135    0.174069
 ---------------------------------------------------------------------
 Rotational constants (GHZ):      0.4984916      0.0549683      0.0498671
 Standard basis: 6-31++G(d,p) (6D, 7F)
 There are   604 symmetry adapted basis functions of A   symmetry.
 Integral buffers will be    131072 words long.
 Raffenetti 2 integral format.
 Two-electron integral symmetry is turned on.
   604 basis functions,  1048 primitive gaussians,   604 cartesian basis functions
   107 alpha electrons      107 beta electrons
       nuclear repulsion energy      2731.2062387045 Hartrees.
 NAtoms=   38 NActive=   38 NUniq=   38 SFac= 1.00D+00 NAtFMM=   60 NAOKFM=F Big=F
 One-electron integrals computed using PRISM.
 NBasis=   604 RedAO= T  NBF=   604
 NBsUse=   595 1.00D-06 NBFU=   595
 Harris functional with IExCor=  402 diagonalized for initial guess.
 ExpMin= 3.60D-02 ExpMax= 2.19D+04 ExpMxC= 3.30D+03 IAcc=3 IRadAn=         5 AccDes= 0.00D+00
 HarFok:  IExCor=  402 AccDes= 0.00D+00 IRadAn=         5 IDoV= 1
 ScaDFX=  1.000000  1.000000  1.000000  1.000000
 FoFCou: FMM=F IPFlag=           0 FMFlag=      100000 FMFlg1=           0
         NFxFlg=           0 DoJE=T BraDBF=F KetDBF=T FulRan=T
         Omega=  0.000000  0.000000  1.000000  0.000000  0.000000 ICntrl=     500 IOpCl=  0
         NMat0=    1 NMatS0=    1 NMatT0=    0 NMatD0=    1 NMtDS0=    0 NMtDT0=    0
         I1Cent=           4 NGrid=           0.
 Petite list used in FoFCou.
 Initial guess orbital symmetries:
       Occupied  (A) (A) (A) (A) (A) (A) (A) (A) (A) (A) (A) (A)
                 (A) (A) (A) (A) (A) (A) (A) (A) (A) (A) (A) (A)
                 (A) (A) (A) (A) (A) (A) (A) (A) (A) (A) (A) (A)
                 (A) (A) (A) (A) (A) (A) (A) (A) (A) (A) (A) (A)
                 (A) (A) (A) (A) (A) (A) (A) (A) (A) (A) (A) (A)
                 (A) (A) (A) (A) (A) (A) (A) (A) (A) (A) (A) (A)
                 (A) (A) (A) (A) (A) (A) (A) (A) (A) (A) (A) (A)
                 (A) (A) (A) (A) (A) (A) (A) (A) (A) (A) (A) (A)
                 (A) (A) (A) (A) (A) (A) (A) (A) (A) (A) (A)
       Virtual   (A) (A) (A) (A) (A) (A) (A) (A) (A) (A) (A) (A)
                 (A) (A) (A) (A) (A) (A) (A) (A) (A) (A) (A) (A)
                 (A) (A) (A) (A) (A) (A) (A) (A) (A) (A) (A) (A)
                 (A) (A) (A) (A) (A) (A) (A) (A) (A) (A) (A) (A)
                 (A) (A) (A) (A) (A) (A) (A) (A) (A) (A) (A) (A)
                 (A) (A) (A) (A) (A) (A) (A) (A) (A) (A) (A) (A)
                 (A) (A) (A) (A) (A) (A) (A) (A) (A) (A) (A) (A)
                 (A) (A) (A) (A) (A) (A) (A) (A) (A) (A) (A) (A)
                 (A) (A) (A) (A) (A) (A) (A) (A) (A) (A) (A) (A)
                 (A) (A) (A) (A) (A) (A) (A) (A) (A) (A) (A) (A)
                 (A) (A) (A) (A) (A) (A) (A) (A) (A) (A) (A) (A)
                 (A) (A) (A) (A) (A) (A) (A) (A) (A) (A) (A) (A)
                 (A) (A) (A) (A) (A) (A) (A) (A) (A) (A) (A) (A)
                 (A) (A) (A) (A) (A) (A) (A) (A) (A) (A) (A) (A)
                 (A) (A) (A) (A) (A) (A) (A) (A) (A) (A) (A) (A)
                 (A) (A) (A) (A) (A) (A) (A) (A) (A) (A) (A) (A)
                 (A) (A) (A) (A) (A) (A) (A) (A) (A) (A) (A) (A)
                 (A) (A) (A) (A) (A) (A) (A) (A) (A) (A) (A) (A)
                 (A) (A) (A) (A) (A) (A) (A) (A) (A) (A) (A) (A)
                 (A) (A) (A) (A) (A) (A) (A) (A) (A) (A) (A) (A)
                 (A) (A) (A) (A) (A) (A) (A) (A) (A) (A) (A) (A)
                 (A) (A) (A) (A) (A) (A) (A) (A) (A) (A) (A) (A)
                 (A) (A) (A) (A) (A) (A) (A) (A) (A) (A) (A) (A)
                 (A) (A) (A) (A) (A) (A) (A) (A) (A) (A) (A) (A)
                 (A) (A) (A) (A) (A) (A) (A) (A) (A) (A) (A) (A)
                 (A) (A) (A) (A) (A) (A) (A) (A) (A) (A) (A) (A)
                 (A) (A) (A) (A) (A) (A) (A) (A) (A) (A) (A) (A)
                 (A) (A) (A) (A) (A) (A) (A) (A) (A) (A) (A) (A)
                 (A) (A) (A) (A) (A) (A) (A) (A) (A) (A) (A) (A)
                 (A) (A) (A) (A) (A) (A) (A) (A) (A) (A) (A) (A)
                 (A) (A) (A) (A) (A) (A) (A) (A) (A) (A) (A) (A)
                 (A) (A) (A) (A) (A) (A) (A) (A) (A) (A) (A) (A)
                 (A) (A) (A) (A) (A) (A) (A) (A) (A) (A) (A) (A)
                 (A) (A) (A) (A) (A) (A) (A) (A) (A) (A) (A) (A)
                 (A) (A) (A) (A) (A) (A) (A) (A) (A) (A) (A) (A)
                 (A) (A) (A) (A) (A) (A) (A) (A) (A) (A) (A) (A)
                 (A) (A) (A) (A) (A) (A) (A) (A) (A) (A) (A) (A)
                 (A) (A) (A) (A) (A) (A) (A) (A) (A) (A) (A) (A)
                 (A) (A) (A) (A) (A) (A) (A) (A) (A) (A) (A) (A)
                 (A) (A) (A) (A) (A) (A) (A) (A) (A) (A) (A) (A)
                 (A) (A) (A) (A) (A) (A) (A) (A)
 The electronic state of the initial guess is 1-A.
 Requested convergence on RMS density matrix=1.00D-08 within 128 cycles.
 Requested convergence on MAX density matrix=1.00D-06.
 Requested convergence on             energy=1.00D-06.
 No special actions if energy rises.
 EnCoef did     2 forward-backward iterations
 EnCoef did     3 forward-backward iterations
 Restarting incremental Fock formation.
 SCF Done:  E(RB3LYP) =  -2253.10629531     A.U. after   24 cycles
             Convg  =    0.2146D-08             -V/T =  2.0059

 **********************************************************************

            Population analysis using the SCF density.

 **********************************************************************

 Orbital symmetries:
       Occupied  (A) (A) (A) (A) (A) (A) (A) (A) (A) (A) (A) (A)
                 (A) (A) (A) (A) (A) (A) (A) (A) (A) (A) (A) (A)
                 (A) (A) (A) (A) (A) (A) (A) (A) (A) (A) (A) (A)
                 (A) (A) (A) (A) (A) (A) (A) (A) (A) (A) (A) (A)
                 (A) (A) (A) (A) (A) (A) (A) (A) (A) (A) (A) (A)
                 (A) (A) (A) (A) (A) (A) (A) (A) (A) (A) (A) (A)
                 (A) (A) (A) (A) (A) (A) (A) (A) (A) (A) (A) (A)
                 (A) (A) (A) (A) (A) (A) (A) (A) (A) (A) (A) (A)
                 (A) (A) (A) (A) (A) (A) (A) (A) (A) (A) (A)
       Virtual   (A) (A) (A) (A) (A) (A) (A) (A) (A) (A) (A) (A)
                 (A) (A) (A) (A) (A) (A) (A) (A) (A) (A) (A) (A)
                 (A) (A) (A) (A) (A) (A) (A) (A) (A) (A) (A) (A)
                 (A) (A) (A) (A) (A) (A) (A) (A) (A) (A) (A) (A)
                 (A) (A) (A) (A) (A) (A) (A) (A) (A) (A) (A) (A)
                 (A) (A) (A) (A) (A) (A) (A) (A) (A) (A) (A) (A)
                 (A) (A) (A) (A) (A) (A) (A) (A) (A) (A) (A) (A)
                 (A) (A) (A) (A) (A) (A) (A) (A) (A) (A) (A) (A)
                 (A) (A) (A) (A) (A) (A) (A) (A) (A) (A) (A) (A)
                 (A) (A) (A) (A) (A) (A) (A) (A) (A) (A) (A) (A)
                 (A) (A) (A) (A) (A) (A) (A) (A) (A) (A) (A) (A)
                 (A) (A) (A) (A) (A) (A) (A) (A) (A) (A) (A) (A)
                 (A) (A) (A) (A) (A) (A) (A) (A) (A) (A) (A) (A)
                 (A) (A) (A) (A) (A) (A) (A) (A) (A) (A) (A) (A)
                 (A) (A) (A) (A) (A) (A) (A) (A) (A) (A) (A) (A)
                 (A) (A) (A) (A) (A) (A) (A) (A) (A) (A) (A) (A)
                 (A) (A) (A) (A) (A) (A) (A) (A) (A) (A) (A) (A)
                 (A) (A) (A) (A) (A) (A) (A) (A) (A) (A) (A) (A)
                 (A) (A) (A) (A) (A) (A) (A) (A) (A) (A) (A) (A)
                 (A) (A) (A) (A) (A) (A) (A) (A) (A) (A) (A) (A)
                 (A) (A) (A) (A) (A) (A) (A) (A) (A) (A) (A) (A)
                 (A) (A) (A) (A) (A) (A) (A) (A) (A) (A) (A) (A)
                 (A) (A) (A) (A) (A) (A) (A) (A) (A) (A) (A) (A)
                 (A) (A) (A) (A) (A) (A) (A) (A) (A) (A) (A) (A)
                 (A) (A) (A) (A) (A) (A) (A) (A) (A) (A) (A) (A)
                 (A) (A) (A) (A) (A) (A) (A) (A) (A) (A) (A) (A)
                 (A) (A) (A) (A) (A) (A) (A) (A) (A) (A) (A) (A)
                 (A) (A) (A) (A) (A) (A) (A) (A) (A) (A) (A) (A)
                 (A) (A) (A) (A) (A) (A) (A) (A) (A) (A) (A) (A)
                 (A) (A) (A) (A) (A) (A) (A) (A) (A) (A) (A) (A)
                 (A) (A) (A) (A) (A) (A) (A) (A) (A) (A) (A) (A)
                 (A) (A) (A) (A) (A) (A) (A) (A) (A) (A) (A) (A)
                 (A) (A) (A) (A) (A) (A) (A) (A) (A) (A) (A) (A)
                 (A) (A) (A) (A) (A) (A) (A) (A) (A) (A) (A) (A)
                 (A) (A) (A) (A) (A) (A) (A) (A) (A) (A) (A) (A)
                 (A) (A) (A) (A) (A) (A) (A) (A) (A) (A) (A) (A)
                 (A) (A) (A) (A) (A) (A) (A) (A) (A) (A) (A) (A)
                 (A) (A) (A) (A) (A) (A) (A) (A) (A) (A) (A) (A)
                 (A) (A) (A) (A) (A) (A) (A) (A) (A) (A) (A) (A)
                 (A) (A) (A) (A) (A) (A) (A) (A) (A) (A) (A) (A)
                 (A) (A) (A) (A) (A) (A) (A) (A)
 The electronic state is 1-A.
 Alpha  occ. eigenvalues --  -89.00636 -88.92493 -88.92272 -14.40778 -14.39454
 Alpha  occ. eigenvalues --  -14.38611 -14.35504 -14.34671 -14.34663 -10.27762
 Alpha  occ. eigenvalues --  -10.27446 -10.27174 -10.25151 -10.24830 -10.24814
 Alpha  occ. eigenvalues --  -10.23913 -10.23671 -10.23192 -10.23186 -10.23110
 Alpha  occ. eigenvalues --  -10.23033 -10.22946 -10.22933 -10.22389 -10.22333
 Alpha  occ. eigenvalues --  -10.21332 -10.20060 -10.19430  -8.05888  -7.98538
 Alpha  occ. eigenvalues --   -7.98132  -6.02467  -6.01873  -6.01628  -5.94914
 Alpha  occ. eigenvalues --   -5.94571  -5.94554  -5.94299  -5.94165  -5.93850
 Alpha  occ. eigenvalues --   -1.04714  -1.00099  -0.97546  -0.96309  -0.95872
 Alpha  occ. eigenvalues --   -0.92217  -0.89847  -0.85241  -0.82478  -0.82021
 Alpha  occ. eigenvalues --   -0.81314  -0.79436  -0.77661  -0.75169  -0.74121
 Alpha  occ. eigenvalues --   -0.71949  -0.69054  -0.66867  -0.66188  -0.64277
 Alpha  occ. eigenvalues --   -0.63652  -0.61230  -0.59332  -0.58896  -0.58032
 Alpha  occ. eigenvalues --   -0.57542  -0.55872  -0.54228  -0.53760  -0.52325
 Alpha  occ. eigenvalues --   -0.50432  -0.48903  -0.48299  -0.47248  -0.46905
 Alpha  occ. eigenvalues --   -0.46175  -0.45073  -0.44520  -0.43915  -0.43769
 Alpha  occ. eigenvalues --   -0.43333  -0.42916  -0.42498  -0.41734  -0.41146
 Alpha  occ. eigenvalues --   -0.40581  -0.40477  -0.39139  -0.38609  -0.37517
 Alpha  occ. eigenvalues --   -0.37074  -0.36078  -0.35334  -0.34826  -0.32628
 Alpha  occ. eigenvalues --   -0.32419  -0.30420  -0.30218  -0.29903  -0.29110
 Alpha  occ. eigenvalues --   -0.28492  -0.28182  -0.27133  -0.26432  -0.24661
 Alpha  occ. eigenvalues --   -0.23137  -0.19873
 Alpha virt. eigenvalues --   -0.12456  -0.07241  -0.05524  -0.04148  -0.03211
 Alpha virt. eigenvalues --   -0.02805  -0.01490  -0.01078  -0.00694  -0.00103
 Alpha virt. eigenvalues --    0.00118   0.00389   0.00654   0.01084   0.01553
 Alpha virt. eigenvalues --    0.02040   0.02214   0.02692   0.02952   0.03020
 Alpha virt. eigenvalues --    0.03798   0.03857   0.04149   0.04283   0.04483
 Alpha virt. eigenvalues --    0.04812   0.05271   0.05484   0.05848   0.06316
 Alpha virt. eigenvalues --    0.06628   0.06886   0.07065   0.07193   0.07839
 Alpha virt. eigenvalues --    0.08277   0.08496   0.08724   0.09448   0.09619
 Alpha virt. eigenvalues --    0.09866   0.10213   0.10319   0.10474   0.10698
 Alpha virt. eigenvalues --    0.10906   0.11116   0.11254   0.11590   0.11888
 Alpha virt. eigenvalues --    0.12163   0.12215   0.12515   0.12660   0.12853
 Alpha virt. eigenvalues --    0.12983   0.13092   0.13417   0.13727   0.13782
 Alpha virt. eigenvalues --    0.14400   0.14428   0.14647   0.14927   0.14979
 Alpha virt. eigenvalues --    0.15370   0.15402   0.15655   0.15785   0.16154
 Alpha virt. eigenvalues --    0.16607   0.17074   0.17224   0.17387   0.17632
 Alpha virt. eigenvalues --    0.17798   0.18131   0.18507   0.18972   0.19362
 Alpha virt. eigenvalues --    0.19626   0.19935   0.20117   0.20416   0.20527
 Alpha virt. eigenvalues --    0.20661   0.21059   0.21288   0.21579   0.21912
 Alpha virt. eigenvalues --    0.22124   0.22582   0.22699   0.22910   0.23273
 Alpha virt. eigenvalues --    0.23511   0.23588   0.23964   0.24518   0.24770
 Alpha virt. eigenvalues --    0.25302   0.25418   0.25521   0.26102   0.26145
 Alpha virt. eigenvalues --    0.26365   0.26562   0.26706   0.26988   0.27125
 Alpha virt. eigenvalues --    0.27483   0.27633   0.27854   0.28228   0.28578
 Alpha virt. eigenvalues --    0.28681   0.29125   0.29239   0.29375   0.29643
 Alpha virt. eigenvalues --    0.29703   0.30160   0.30497   0.30715   0.31396
 Alpha virt. eigenvalues --    0.31440   0.31728   0.31949   0.32409   0.32664
 Alpha virt. eigenvalues --    0.32836   0.33195   0.33531   0.33640   0.34190
 Alpha virt. eigenvalues --    0.34710   0.34841   0.34948   0.35466   0.35864
 Alpha virt. eigenvalues --    0.36092   0.36693   0.37291   0.37477   0.37797
 Alpha virt. eigenvalues --    0.38648   0.38717   0.40001   0.40174   0.40532
 Alpha virt. eigenvalues --    0.41365   0.41406   0.42014   0.42909   0.43570
 Alpha virt. eigenvalues --    0.45346   0.46017   0.46605   0.47606   0.49167
 Alpha virt. eigenvalues --    0.49308   0.50631   0.51148   0.51291   0.51992
 Alpha virt. eigenvalues --    0.52722   0.53018   0.53641   0.54389   0.56384
 Alpha virt. eigenvalues --    0.57145   0.57463   0.59809   0.60588   0.62101
 Alpha virt. eigenvalues --    0.63318   0.63744   0.64469   0.64557   0.65254
 Alpha virt. eigenvalues --    0.65628   0.66340   0.66992   0.67255   0.67855
 Alpha virt. eigenvalues --    0.68097   0.68458   0.69133   0.69790   0.70475
 Alpha virt. eigenvalues --    0.71085   0.71205   0.71718   0.71865   0.72620
 Alpha virt. eigenvalues --    0.73356   0.73700   0.74406   0.74799   0.75005
 Alpha virt. eigenvalues --    0.76106   0.76667   0.77249   0.77766   0.78364
 Alpha virt. eigenvalues --    0.78836   0.79511   0.80250   0.81140   0.81378
 Alpha virt. eigenvalues --    0.81820   0.82794   0.83315   0.84040   0.84317
 Alpha virt. eigenvalues --    0.85677   0.86610   0.87830   0.88176   0.89677
 Alpha virt. eigenvalues --    0.90011   0.90612   0.91030   0.91834   0.92239
 Alpha virt. eigenvalues --    0.93445   0.93577   0.95010   0.95177   0.95468
 Alpha virt. eigenvalues --    0.95979   0.97171   0.97704   0.98062   0.98599
 Alpha virt. eigenvalues --    1.00037   1.00050   1.00286   1.00529   1.00956
 Alpha virt. eigenvalues --    1.02066   1.02523   1.02905   1.03023   1.04158
 Alpha virt. eigenvalues --    1.05345   1.06124   1.06910   1.07898   1.08077
 Alpha virt. eigenvalues --    1.09151   1.09465   1.09920   1.10001   1.10300
 Alpha virt. eigenvalues --    1.10867   1.12620   1.12902   1.13591   1.14356
 Alpha virt. eigenvalues --    1.14791   1.15537   1.16353   1.16723   1.16978
 Alpha virt. eigenvalues --    1.18049   1.18954   1.19324   1.20388   1.20846
 Alpha virt. eigenvalues --    1.21932   1.22442   1.23352   1.23562   1.24127
 Alpha virt. eigenvalues --    1.24667   1.25066   1.25960   1.27082   1.27642
 Alpha virt. eigenvalues --    1.28547   1.29193   1.29619   1.30366   1.31647
 Alpha virt. eigenvalues --    1.31926   1.32275   1.33061   1.33972   1.34830
 Alpha virt. eigenvalues --    1.36153   1.36408   1.37051   1.37691   1.38008
 Alpha virt. eigenvalues --    1.38215   1.38366   1.39583   1.41332   1.41421
 Alpha virt. eigenvalues --    1.42966   1.44318   1.45313   1.45659   1.46549
 Alpha virt. eigenvalues --    1.47898   1.49102   1.50448   1.51199   1.51926
 Alpha virt. eigenvalues --    1.54819   1.55041   1.56109   1.57966   1.58657
 Alpha virt. eigenvalues --    1.60052   1.63814   1.64940   1.67320   1.67527
 Alpha virt. eigenvalues --    1.70263   1.70469   1.71416   1.72468   1.74392
 Alpha virt. eigenvalues --    1.75248   1.77090   1.77524   1.77938   1.78117
 Alpha virt. eigenvalues --    1.79107   1.80798   1.81904   1.83155   1.83611
 Alpha virt. eigenvalues --    1.85274   1.85859   1.86077   1.87343   1.89724
 Alpha virt. eigenvalues --    1.90378   1.90898   1.91782   1.92547   1.93440
 Alpha virt. eigenvalues --    1.94515   1.95102   1.97141   1.97551   1.97755
 Alpha virt. eigenvalues --    1.98960   1.98997   1.99442   2.00977   2.02409
 Alpha virt. eigenvalues --    2.05989   2.06613   2.08921   2.09893   2.11066
 Alpha virt. eigenvalues --    2.11694   2.12558   2.13593   2.15295   2.15902
 Alpha virt. eigenvalues --    2.18670   2.19190   2.22294   2.22593   2.23196
 Alpha virt. eigenvalues --    2.24689   2.25490   2.26616   2.26994   2.28126
 Alpha virt. eigenvalues --    2.28652   2.29428   2.30322   2.30741   2.31793
 Alpha virt. eigenvalues --    2.32727   2.33509   2.35424   2.36367   2.36899
 Alpha virt. eigenvalues --    2.37855   2.39836   2.40331   2.41306   2.42095
 Alpha virt. eigenvalues --    2.42245   2.43845   2.45518   2.45995   2.46333
 Alpha virt. eigenvalues --    2.48081   2.49216   2.50447   2.50919   2.51232
 Alpha virt. eigenvalues --    2.52219   2.52747   2.52797   2.54944   2.56008
 Alpha virt. eigenvalues --    2.56821   2.57734   2.58340   2.58831   2.59388
 Alpha virt. eigenvalues --    2.61045   2.62549   2.62685   2.64059   2.64805
 Alpha virt. eigenvalues --    2.66421   2.67334   2.69822   2.70858   2.71693
 Alpha virt. eigenvalues --    2.72294   2.72939   2.75183   2.75359   2.75896
 Alpha virt. eigenvalues --    2.77580   2.77847   2.79294   2.82285   2.83070
 Alpha virt. eigenvalues --    2.85382   2.90459   2.90889   2.92918   2.94157
 Alpha virt. eigenvalues --    2.95459   2.96969   3.00368   3.03376   3.03918
 Alpha virt. eigenvalues --    3.04589   3.07351   3.11576   3.14772   3.17115
 Alpha virt. eigenvalues --    3.21827   3.28905   3.30080   3.31652   3.34005
 Alpha virt. eigenvalues --    3.35051   3.40041   3.42719   3.51096   3.53730
 Alpha virt. eigenvalues --    3.55351   3.57625   3.63566   3.79996   3.81794
 Alpha virt. eigenvalues --    3.95218   3.99274   4.01256   4.16188   4.19536
 Alpha virt. eigenvalues --    4.23701   4.29288   4.30299   4.31284   4.31756
 Alpha virt. eigenvalues --    4.33700   4.35082   4.36249   4.41347   4.44636
 Alpha virt. eigenvalues --    4.45450   4.46823   4.47266   4.51954   4.54086
 Alpha virt. eigenvalues --    4.55694   4.57643   4.62521   4.64558   4.72876
 Alpha virt. eigenvalues --    4.79106   4.84179   4.89153
          Condensed to atoms (all electrons):
              1          2          3          4          5          6
     1  C    6.032560   0.325931  -0.125925  -0.387336   0.175387  -0.108925
     2  C    0.325931   9.292031   2.995939  -2.781437   0.400370  -2.202485
     3  C   -0.125925   2.995939  15.212752  -7.690876   1.389820  -3.935560
     4  C   -0.387336  -2.781437  -7.690876  13.414949  -1.390836   2.761488
     5  S    0.175387   0.400370   1.389820  -1.390836  16.293015  -0.539355
     6  C   -0.108925  -2.202485  -3.935560   2.761488  -0.539355   9.835213
     7  C    0.054324  -0.493389  -2.327355   1.414634  -0.450216   1.406343
     8  N    0.005957   0.001700   0.037943  -0.039644   0.072764  -0.241655
     9  C    0.002284   0.033112   0.240808  -0.182109   0.020123  -0.641277
    10  C   -0.000307   0.007996   0.215195  -0.085735  -0.020148   1.217622
    11  C   -0.003253   0.002051   0.002850   0.004620  -0.006897   0.108840
    12  C   -0.000758   0.000693   0.014127  -0.007895  -0.009837   0.087691
    13  C   -0.000111   0.000148   0.002449  -0.001249  -0.002663   0.020416
    14  C   -0.000012  -0.000005  -0.000450   0.000090  -0.000455  -0.006179
    15  N    0.000005  -0.000006  -0.000077   0.000022   0.000060  -0.000343
    16  C    0.000842  -0.000752  -0.012453   0.004595   0.002644  -0.065441
    17  C    0.000003  -0.000003  -0.000027   0.000008  -0.000009   0.000904
    18  C    0.000000  -0.000000  -0.000007   0.000002   0.000002  -0.000164
    19  N    0.000000  -0.000000   0.000000  -0.000000   0.000000   0.000001
    20  C    0.000000  -0.000000  -0.000000   0.000000   0.000001  -0.000003
    21  S   -0.000000   0.000000   0.000003  -0.000001  -0.000003   0.000046
    22  C   -0.020248   0.126218   0.410772  -0.184517   0.050580  -0.896630
    23  N   -0.000535  -0.004555  -0.016464   0.004564  -0.000234   0.022304
    24  S   -0.013999   0.014252   0.002448   0.002156  -0.005125  -0.044905
    25  N   -0.083240   0.022500  -0.004509   0.063024  -0.031638  -0.105713
    26  C    0.129785   0.212868   1.053881  -0.840077   0.227949  -1.256536
    27  C   -0.251445  -2.379013  -1.466145   2.008822  -0.438282   1.564745
    28  N    0.094044  -0.061167   0.051147  -0.095649   0.066206  -0.296635
    29  H   -0.124325   0.068730   0.028059   0.022748  -0.009729  -0.101366
    30  H    0.448002  -0.153955   0.025959  -0.032203   0.005151   0.016466
    31  H   -0.095686   0.322697   0.057140  -0.045515  -0.007541   0.014097
    32  H   -0.025221  -0.085327  -0.097862   0.466104  -0.073061   0.090596
    33  H   -0.000214   0.002413   0.020751  -0.015884  -0.005124  -0.028949
    34  H    0.000043  -0.000173  -0.002210   0.001339   0.001282  -0.001061
    35  H   -0.000004   0.000006   0.000093  -0.000050  -0.000119   0.000199
    36  H    0.000144  -0.000067  -0.000448   0.000120   0.000102  -0.002275
    37  H    0.000000  -0.000000  -0.000001   0.000001   0.000002  -0.000009
    38  H    0.000000  -0.000000  -0.000000   0.000000   0.000000  -0.000000
              7          8          9         10         11         12
     1  C    0.054324   0.005957   0.002284  -0.000307  -0.003253  -0.000758
     2  C   -0.493389   0.001700   0.033112   0.007996   0.002051   0.000693
     3  C   -2.327355   0.037943   0.240808   0.215195   0.002850   0.014127
     4  C    1.414634  -0.039644  -0.182109  -0.085735   0.004620  -0.007895
     5  S   -0.450216   0.072764   0.020123  -0.020148  -0.006897  -0.009837
     6  C    1.406343  -0.241655  -0.641277   1.217622   0.108840   0.087691
     7  C   11.922403   0.390544  -1.667021   0.936212   0.550624  -0.244472
     8  N    0.390544   7.103294  -0.215321   0.221875   0.058167   0.008216
     9  C   -1.667021  -0.215321  12.092234  -5.241432  -2.191532  -0.371987
    10  C    0.936212   0.221875  -5.241432  17.393585   4.297868   1.286967
    11  C    0.550624   0.058167  -2.191532   4.297868  13.987006   1.890107
    12  C   -0.244472   0.008216  -0.371987   1.286967   1.890107   9.394333
    13  C   -0.084186   0.004609  -0.785840   0.238558  -0.241068   1.339983
    14  C    0.009570   0.011006  -0.397681  -0.226276  -1.806951  -1.439437
    15  N    0.013553   0.000778   0.014069   0.088109   0.402737  -0.109035
    16  C   -0.095669   0.040334  -0.194265  -2.682144  -5.072209  -2.307988
    17  C    0.008635  -0.000200  -0.143116  -0.193469  -0.176649  -0.582654
    18  C    0.001844   0.000127  -0.013808  -0.009144  -0.018271  -0.384391
    19  N   -0.000003  -0.000001  -0.000121  -0.001119   0.008248  -0.006587
    20  C    0.000174   0.000001   0.002094   0.005697   0.014861   0.054554
    21  S   -0.000695   0.000029  -0.008585  -0.027957  -0.033542  -0.076993
    22  C   -2.006946  -0.142522   3.245278  -5.486119  -3.527985  -2.078040
    23  N    0.022366  -0.005693   0.036255  -0.370165  -0.045554  -0.044139
    24  S   -0.151283   0.002256   0.064755  -0.324515  -0.245420  -0.050413
    25  N   -0.112234   0.017510  -0.060357   0.219176   0.086993   0.008843
    26  C   -2.342075  -0.084611   1.869295  -4.605234  -1.660346  -0.626789
    27  C   -0.497725   0.028773  -0.219399   0.143789   0.058384  -0.008313
    28  N    0.053137   0.003780   0.025221   0.013805  -0.004140  -0.000119
    29  H    0.000239   0.000729   0.007005   0.033386   0.009317   0.003338
    30  H    0.000530   0.000149  -0.000426   0.000290  -0.000114  -0.000027
    31  H   -0.005420   0.000139   0.000257  -0.000331   0.000039  -0.000005
    32  H    0.014844  -0.000676  -0.003720  -0.000515   0.000080  -0.000167
    33  H   -0.186451  -0.161607   0.878810  -0.457975  -0.196282   0.028257
    34  H    0.029277   0.007051  -0.141193  -0.059073  -0.131169   0.296549
    35  H   -0.003693  -0.000203   0.025208   0.021190   0.016833   0.101590
    36  H   -0.022637   0.001616  -0.039524  -0.191583  -0.531985  -0.035376
    37  H    0.000164   0.000003  -0.002238  -0.001766   0.005005  -0.036092
    38  H    0.000003  -0.000000   0.000018   0.000016   0.000012   0.001563
             13         14         15         16         17         18
     1  C   -0.000111  -0.000012   0.000005   0.000842   0.000003   0.000000
     2  C    0.000148  -0.000005  -0.000006  -0.000752  -0.000003  -0.000000
     3  C    0.002449  -0.000450  -0.000077  -0.012453  -0.000027  -0.000007
     4  C   -0.001249   0.000090   0.000022   0.004595   0.000008   0.000002
     5  S   -0.002663  -0.000455   0.000060   0.002644  -0.000009   0.000002
     6  C    0.020416  -0.006179  -0.000343  -0.065441   0.000904  -0.000164
     7  C   -0.084186   0.009570   0.013553  -0.095669   0.008635   0.001844
     8  N    0.004609   0.011006   0.000778   0.040334  -0.000200   0.000127
     9  C   -0.785840  -0.397681   0.014069  -0.194265  -0.143116  -0.013808
    10  C    0.238558  -0.226276   0.088109  -2.682144  -0.193469  -0.009144
    11  C   -0.241068  -1.806951   0.402737  -5.072209  -0.176649  -0.018271
    12  C    1.339983  -1.439437  -0.109035  -2.307988  -0.582654  -0.384391
    13  C   10.795834   0.402901   0.023218  -3.249356   0.661555  -1.467120
    14  C    0.402901   8.977922   0.179002   0.668312  -0.190392  -0.172573
    15  N    0.023218   0.179002   7.113025  -0.206110  -0.268068  -0.175846
    16  C   -3.249356   0.668312  -0.206110  13.644827   0.086927   0.716513
    17  C    0.661555  -0.190392  -0.268068   0.086927   9.366861  -2.176853
    18  C   -1.467120  -0.172573  -0.175846   0.716513  -2.176853   9.911874
    19  N    0.009466  -0.012755   0.005823  -0.006495   0.391942  -0.016395
    20  C   -0.095455  -0.020633  -0.038343   0.055903  -0.544654   0.640136
    21  S    0.232665   0.045643   0.145875  -0.204816   0.680455  -1.401410
    22  C   -1.533823  -0.113748   0.027690   3.027890  -0.024466   0.085537
    23  N    0.006467  -0.016859  -0.001251  -0.007180   0.010678   0.001334
    24  S   -0.022290   0.002355  -0.006619   0.182431  -0.001574   0.000590
    25  N    0.003645   0.000316   0.001135  -0.075404   0.000587   0.000036
    26  C   -0.226536  -0.030642  -0.005079   1.046885  -0.011828   0.004104
    27  C    0.002571  -0.000528  -0.000202  -0.015616  -0.000212  -0.000020
    28  N   -0.000102   0.000036   0.000025  -0.001342   0.000007   0.000000
    29  H    0.000723  -0.000063   0.000056  -0.007889  -0.000033  -0.000014
    30  H   -0.000004  -0.000002   0.000000   0.000063   0.000000   0.000000
    31  H    0.000000   0.000000   0.000000  -0.000003  -0.000000  -0.000000
    32  H   -0.000022  -0.000002   0.000000   0.000057   0.000000   0.000000
    33  H   -0.037760  -0.013903  -0.000228  -0.047631  -0.009261   0.000218
    34  H    0.041219   0.105569  -0.002403   0.124269   0.031180  -0.003670
    35  H    0.425801  -0.172447   0.024813  -0.056299  -0.028661  -0.087532
    36  H   -0.048889   0.013775  -0.134097   0.888580   0.012607   0.023452
    37  H   -0.085318   0.002928  -0.006554   0.027401  -0.352390   0.713488
    38  H   -0.004373  -0.008346  -0.001964   0.003050  -0.059263   0.108980
             19         20         21         22         23         24
     1  C    0.000000   0.000000  -0.000000  -0.020248  -0.000535  -0.013999
     2  C   -0.000000  -0.000000   0.000000   0.126218  -0.004555   0.014252
     3  C    0.000000  -0.000000   0.000003   0.410772  -0.016464   0.002448
     4  C   -0.000000   0.000000  -0.000001  -0.184517   0.004564   0.002156
     5  S    0.000000   0.000001  -0.000003   0.050580  -0.000234  -0.005125
     6  C    0.000001  -0.000003   0.000046  -0.896630   0.022304  -0.044905
     7  C   -0.000003   0.000174  -0.000695  -2.006946   0.022366  -0.151283
     8  N   -0.000001   0.000001   0.000029  -0.142522  -0.005693   0.002256
     9  C   -0.000121   0.002094  -0.008585   3.245278   0.036255   0.064755
    10  C   -0.001119   0.005697  -0.027957  -5.486119  -0.370165  -0.324515
    11  C    0.008248   0.014861  -0.033542  -3.527985  -0.045554  -0.245420
    12  C   -0.006587   0.054554  -0.076993  -2.078040  -0.044139  -0.050413
    13  C    0.009466  -0.095455   0.232665  -1.533823   0.006467  -0.022290
    14  C   -0.012755  -0.020633   0.045643  -0.113748  -0.016859   0.002355
    15  N    0.005823  -0.038343   0.145875   0.027690  -0.001251  -0.006619
    16  C   -0.006495   0.055903  -0.204816   3.027890  -0.007180   0.182431
    17  C    0.391942  -0.544654   0.680455  -0.024466   0.010678  -0.001574
    18  C   -0.016395   0.640136  -1.401410   0.085537   0.001334   0.000590
    19  N    6.771236   0.086774   0.090802  -0.000398   0.000010  -0.000005
    20  C    0.086774   5.963141  -0.461195   0.007135  -0.000079   0.000062
    21  S    0.090802  -0.461195  16.705314  -0.035134  -0.000135  -0.000458
    22  C   -0.000398   0.007135  -0.035134  11.886667   0.168658  -0.094577
    23  N    0.000010  -0.000079  -0.000135   0.168658   7.586593  -0.005986
    24  S   -0.000005   0.000062  -0.000458  -0.094577  -0.005986  15.806341
    25  N    0.000000  -0.000003   0.000041   0.125101  -0.183227  -0.183927
    26  C   -0.000014   0.000395  -0.003444   2.506452   0.263864   0.122485
    27  C   -0.000000  -0.000001   0.000002   0.248330  -0.049843   0.075341
    28  N    0.000000  -0.000000  -0.000000  -0.025719  -0.000270  -0.042955
    29  H    0.000000  -0.000001   0.000008  -0.014325   0.015488  -0.063001
    30  H    0.000000   0.000000  -0.000000  -0.000620  -0.000210   0.000490
    31  H   -0.000000  -0.000000  -0.000000   0.000501  -0.000014  -0.000087
    32  H    0.000000   0.000000  -0.000000  -0.001389   0.000013   0.000110
    33  H   -0.000019  -0.000034  -0.000252   0.172529  -0.000734   0.003141
    34  H    0.000276  -0.000486   0.004158  -0.028382   0.001666   0.000024
    35  H   -0.000316  -0.007640   0.011337  -0.014967  -0.001283  -0.000328
    36  H   -0.000330   0.002590  -0.012493   0.136564   0.000844  -0.005139
    37  H   -0.114945   0.053404  -0.022061   0.003522   0.000197   0.000028
    38  H   -0.102363   0.441877  -0.158208   0.000232  -0.000001   0.000002
             25         26         27         28         29         30
     1  C   -0.083240   0.129785  -0.251445   0.094044  -0.124325   0.448002
     2  C    0.022500   0.212868  -2.379013  -0.061167   0.068730  -0.153955
     3  C   -0.004509   1.053881  -1.466145   0.051147   0.028059   0.025959
     4  C    0.063024  -0.840077   2.008822  -0.095649   0.022748  -0.032203
     5  S   -0.031638   0.227949  -0.438282   0.066206  -0.009729   0.005151
     6  C   -0.105713  -1.256536   1.564745  -0.296635  -0.101366   0.016466
     7  C   -0.112234  -2.342075  -0.497725   0.053137   0.000239   0.000530
     8  N    0.017510  -0.084611   0.028773   0.003780   0.000729   0.000149
     9  C   -0.060357   1.869295  -0.219399   0.025221   0.007005  -0.000426
    10  C    0.219176  -4.605234   0.143789   0.013805   0.033386   0.000290
    11  C    0.086993  -1.660346   0.058384  -0.004140   0.009317  -0.000114
    12  C    0.008843  -0.626789  -0.008313  -0.000119   0.003338  -0.000027
    13  C    0.003645  -0.226536   0.002571  -0.000102   0.000723  -0.000004
    14  C    0.000316  -0.030642  -0.000528   0.000036  -0.000063  -0.000002
    15  N    0.001135  -0.005079  -0.000202   0.000025   0.000056   0.000000
    16  C   -0.075404   1.046885  -0.015616  -0.001342  -0.007889   0.000063
    17  C    0.000587  -0.011828  -0.000212   0.000007  -0.000033   0.000000
    18  C    0.000036   0.004104  -0.000020   0.000000  -0.000014   0.000000
    19  N    0.000000  -0.000014  -0.000000   0.000000   0.000000   0.000000
    20  C   -0.000003   0.000395  -0.000001  -0.000000  -0.000001   0.000000
    21  S    0.000041  -0.003444   0.000002  -0.000000   0.000008  -0.000000
    22  C    0.125101   2.506452   0.248330  -0.025719  -0.014325  -0.000620
    23  N   -0.183227   0.263864  -0.049843  -0.000270   0.015488  -0.000210
    24  S   -0.183927   0.122485   0.075341  -0.042955  -0.063001   0.000490
    25  N    7.821624  -0.151462   0.111168   0.052261   0.093363  -0.006468
    26  C   -0.151462  10.260958  -0.277782  -0.026118  -0.114573   0.009096
    27  C    0.111168  -0.277782   7.637893  -0.005933  -0.076970   0.045181
    28  N    0.052261  -0.026118  -0.005933   7.067680   0.300987  -0.070845
    29  H    0.093363  -0.114573  -0.076970   0.300987   0.478476  -0.015418
    30  H   -0.006468   0.009096   0.045181  -0.070845  -0.015418   0.602194
    31  H    0.000539   0.001904  -0.010693   0.021606   0.001904  -0.002888
    32  H    0.001265  -0.011311   0.028857  -0.002227  -0.000467  -0.000552
    33  H    0.000812   0.150323  -0.000659   0.000348   0.000165  -0.000019
    34  H   -0.000548  -0.019289  -0.000654  -0.000045  -0.000183   0.000003
    35  H    0.000036  -0.000105   0.000125  -0.000001   0.000034  -0.000000
    36  H   -0.004015   0.063117  -0.001941   0.000134  -0.000863   0.000007
    37  H   -0.000000   0.000188  -0.000003   0.000000  -0.000002   0.000000
    38  H    0.000000   0.000010  -0.000000   0.000000  -0.000000   0.000000
             31         32         33         34         35         36
     1  C   -0.095686  -0.025221  -0.000214   0.000043  -0.000004   0.000144
     2  C    0.322697  -0.085327   0.002413  -0.000173   0.000006  -0.000067
     3  C    0.057140  -0.097862   0.020751  -0.002210   0.000093  -0.000448
     4  C   -0.045515   0.466104  -0.015884   0.001339  -0.000050   0.000120
     5  S   -0.007541  -0.073061  -0.005124   0.001282  -0.000119   0.000102
     6  C    0.014097   0.090596  -0.028949  -0.001061   0.000199  -0.002275
     7  C   -0.005420   0.014844  -0.186451   0.029277  -0.003693  -0.022637
     8  N    0.000139  -0.000676  -0.161607   0.007051  -0.000203   0.001616
     9  C    0.000257  -0.003720   0.878810  -0.141193   0.025208  -0.039524
    10  C   -0.000331  -0.000515  -0.457975  -0.059073   0.021190  -0.191583
    11  C    0.000039   0.000080  -0.196282  -0.131169   0.016833  -0.531985
    12  C   -0.000005  -0.000167   0.028257   0.296549   0.101590  -0.035376
    13  C    0.000000  -0.000022  -0.037760   0.041219   0.425801  -0.048889
    14  C    0.000000  -0.000002  -0.013903   0.105569  -0.172447   0.013775
    15  N    0.000000   0.000000  -0.000228  -0.002403   0.024813  -0.134097
    16  C   -0.000003   0.000057  -0.047631   0.124269  -0.056299   0.888580
    17  C   -0.000000   0.000000  -0.009261   0.031180  -0.028661   0.012607
    18  C   -0.000000   0.000000   0.000218  -0.003670  -0.087532   0.023452
    19  N   -0.000000   0.000000  -0.000019   0.000276  -0.000316  -0.000330
    20  C   -0.000000   0.000000  -0.000034  -0.000486  -0.007640   0.002590
    21  S   -0.000000  -0.000000  -0.000252   0.004158   0.011337  -0.012493
    22  C    0.000501  -0.001389   0.172529  -0.028382  -0.014967   0.136564
    23  N   -0.000014   0.000013  -0.000734   0.001666  -0.001283   0.000844
    24  S   -0.000087   0.000110   0.003141   0.000024  -0.000328  -0.005139
    25  N    0.000539   0.001265   0.000812  -0.000548   0.000036  -0.004015
    26  C    0.001904  -0.011311   0.150323  -0.019289  -0.000105   0.063117
    27  C   -0.010693   0.028857  -0.000659  -0.000654   0.000125  -0.001941
    28  N    0.021606  -0.002227   0.000348  -0.000045  -0.000001   0.000134
    29  H    0.001904  -0.000467   0.000165  -0.000183   0.000034  -0.000863
    30  H   -0.002888  -0.000552  -0.000019   0.000003  -0.000000   0.000007
    31  H    0.610991   0.003834   0.000006  -0.000001   0.000000  -0.000001
    32  H    0.003834   0.523218  -0.000304   0.000024  -0.000001   0.000000
    33  H    0.000006  -0.000304   0.781632  -0.056181   0.011154  -0.003911
    34  H   -0.000001   0.000024  -0.056181   0.757097  -0.059401   0.007510
    35  H    0.000000  -0.000001   0.011154  -0.059401   0.709031  -0.004096
    36  H   -0.000001   0.000000  -0.003911   0.007510  -0.004096   0.671934
    37  H   -0.000000   0.000000  -0.000815   0.006328  -0.033563   0.001412
    38  H   -0.000000   0.000000  -0.000001  -0.000012   0.000041   0.000210
             37         38
     1  C    0.000000   0.000000
     2  C   -0.000000  -0.000000
     3  C   -0.000001  -0.000000
     4  C    0.000001   0.000000
     5  S    0.000002   0.000000
     6  C   -0.000009  -0.000000
     7  C    0.000164   0.000003
     8  N    0.000003  -0.000000
     9  C   -0.002238   0.000018
    10  C   -0.001766   0.000016
    11  C    0.005005   0.000012
    12  C   -0.036092   0.001563
    13  C   -0.085318  -0.004373
    14  C    0.002928  -0.008346
    15  N   -0.006554  -0.001964
    16  C    0.027401   0.003050
    17  C   -0.352390  -0.059263
    18  C    0.713488   0.108980
    19  N   -0.114945  -0.102363
    20  C    0.053404   0.441877
    21  S   -0.022061  -0.158208
    22  C    0.003522   0.000232
    23  N    0.000197  -0.000001
    24  S    0.000028   0.000002
    25  N   -0.000000   0.000000
    26  C    0.000188   0.000010
    27  C   -0.000003  -0.000000
    28  N    0.000000   0.000000
    29  H   -0.000002  -0.000000
    30  H    0.000000   0.000000
    31  H   -0.000000  -0.000000
    32  H    0.000000   0.000000
    33  H   -0.000815  -0.000001
    34  H    0.006328  -0.000012
    35  H   -0.033563   0.000041
    36  H    0.001412   0.000210
    37  H    0.672585   0.001367
    38  H    0.001367   0.591904
 Mulliken atomic charges:
              1
     1  C   -0.027767
     2  C    0.332679
     3  C   -0.081768
     4  C   -0.388272
     5  S    0.285816
     6  C   -0.671503
     7  C   -0.137951
     8  N   -0.127216
     9  C   -0.035874
    10  C   -0.356329
    11  C    0.388727
    12  C   -0.095297
    13  C   -0.326064
    14  C    0.210914
    15  N   -0.083767
    16  C   -0.212462
    17  C   -0.488567
    18  C   -0.281019
    19  N   -0.102712
[...]
 811,0.00001586,0.00001577,-0.00005360,-0.00003088,0.00003533,0.0000692
 4,0.00001935,-0.00004742,-0.00011610,0.00018401,-0.00009173,-0.0008349
 8,0.00022447,-0.00010390,0.00021750,0.00023915,-0.00008384,0.00005211,
 -0.00004044,0.00000852,0.00004833,0.00005918,0.00002006,-0.00009562,-0
 .00028387,0.00008972,-0.00008818,-0.00001594,0.00000068,0.00006650,-0.
 00000369,0.00000225,-0.00000852,0.00000825,0.00000905,0.00000247,0.000
 00043,0.00000131,0.00000166,-0.00000191,0.00000058,0.00000295,-0.00000
 103,0.00000293,0.00050977,0.00017422,0.00060216,0.11852651,0.00000656,
 -0.00001911,-0.00000117,-0.00000035,0.00000627,-0.00000117,0.00001708,
 0.00000784,0.00000577,-0.00000245,0.00003061,-0.00000107,-0.00001787,-
 0.00001858,-0.00000244,-0.00003916,0.00005911,0.00000474,0.00003901,-0
 .00005402,0.00004240,0.00002411,-0.00012457,0.00001358,0.00046381,-0.0
 0030414,-0.00084099,-0.00004538,-0.00021074,-0.00071762,0.00248707,0.0
 0646511,-0.00190957,-0.09984218,-0.22091486,0.09753071,-0.01533043,-0.
 01767266,0.01291669,0.00445086,-0.00332221,-0.00004117,0.00013747,-0.0
 0000692,-0.00068207,0.00189691,0.00130124,0.00016394,-0.00096216,-0.00
 032836,0.00066574,-0.00007535,0.00000203,0.00004683,0.00008802,-0.0000
 7541,-0.00003721,-0.00008139,-0.00013305,0.00006536,0.00013602,-0.0002
 7271,-0.00004955,-0.00021208,0.00022982,0.00004902,-0.00003238,0.00006
 943,-0.00003248,0.00000578,0.00000950,-0.00001104,-0.00007174,0.000022
 68,0.00001790,-0.00000882,-0.00002594,0.00001642,0.00006532,0.00000110
 ,-0.00000548,-0.00005301,-0.00000253,-0.00000229,0.00000418,-0.0000029
 0,0.00000268,-0.00000246,-0.00000025,0.00000032,-0.00000088,0.00000136
 ,0.00000071,-0.00000183,-0.00000007,0.00000057,0.00084662,-0.00083626,
 -0.00088628,0.10620888,0.23501666,-0.00000395,-0.00000121,-0.00000210,
 -0.00000264,0.00000123,0.00000203,-0.00000804,0.00000189,-0.00001262,0
 .00001078,-0.00001095,-0.00000497,0.00000636,-0.00001960,0.00000917,-0
 .00005518,0.00000360,-0.00001947,0.00008277,0.00008075,-0.00002290,-0.
 00073801,0.00012177,0.00000313,0.00189805,-0.00016998,-0.00007160,-0.0
 0194720,-0.00104087,-0.00218689,0.00538096,0.01278574,-0.00093761,0.06
 714718,0.09763916,-0.09939940,0.00019605,-0.00200806,0.00518924,0.0032
 9680,0.00027177,0.00685630,-0.00148365,-0.00058235,-0.00244769,0.00522
 408,-0.00089221,0.00457517,-0.00007307,-0.00012188,-0.00003976,0.00000
 992,0.00000787,0.00003568,-0.00000454,0.00002534,-0.00000532,-0.000012
 13,0.00000085,-0.00000420,-0.00007955,-0.00008161,-0.00016167,-0.00013
 287,0.00005887,0.00012944,0.00006736,0.00006502,-0.00001381,-0.0001981
 7,0.00004558,-0.00001202,-0.00000124,-0.00002732,-0.00001424,-0.000121
 01,-0.00004051,0.00009993,0.00002359,0.00002090,0.00000479,-0.00002259
 ,-0.00000503,0.00000171,0.00000396,-0.00000158,0.00000539,-0.00000177,
 0.00000006,0.00000098,-0.00000144,0.00000130,0.00000103,-0.00000104,0.
 00000126,0.00000206,-0.00022123,-0.00102670,-0.00040547,-0.07607422,-0
 .10503365,0.09240936,0.00001196,-0.00002834,-0.00000258,-0.00000052,0.
 00000955,0.00000060,0.00003638,0.00001773,0.00000184,-0.00001249,0.000
 05434,0.00000271,-0.00003445,-0.00003308,-0.00000320,-0.00005745,0.000
 12200,0.00000772,0.00006847,-0.00012367,0.00000703,-0.00009104,0.00008
 622,-0.00000901,-0.00002545,-0.00004087,-0.00005028,-0.00021416,-0.000
 47696,0.00031190,0.00313572,0.00283933,0.00235885,-0.00661909,-0.00017
 377,0.00566212,-0.27120203,0.03742188,0.12390329,-0.00941401,0.0051361
 3,0.00490068,0.00086815,-0.00255231,0.00406458,0.00069620,-0.00073847,
 -0.00046631,-0.00087685,0.00023082,-0.00076850,-0.00033748,0.00047566,
 0.00016040,0.00021050,-0.00009574,-0.00040709,-0.00004758,0.00020318,0
 .00002178,-0.00006610,-0.00001329,-0.00012338,0.00006605,0.00016220,0.
 00000364,-0.00005429,-0.00003182,-0.00003649,0.00001064,-0.00000293,0.
 00000852,-0.00004476,0.00004514,0.00000347,-0.00000390,0.00002886,-0.0
 0001886,0.00011448,-0.00001508,0.00000483,-0.00008551,-0.00000743,-0.0
 0000606,0.00000713,-0.00000335,0.00000301,-0.00000294,-0.00000019,0.00
 000071,-0.00000133,0.00000170,0.00000077,-0.00000174,-0.00000119,0.000
 00036,0.00001447,-0.00003391,0.00000310,-0.00032764,-0.00030894,-0.002
 24060,0.28391165,-0.00001192,0.00001603,0.00000079,0.00000362,-0.00000
 710,-0.00000045,-0.00003386,-0.00001823,-0.00000512,0.00001788,-0.0000
 4714,0.00000006,0.00002685,0.00002518,0.00000082,0.00004928,-0.0000952
 4,-0.00001461,-0.00007004,0.00010242,0.00000563,0.00007329,-0.00011764
 ,0.00001501,0.00007187,0.00013978,0.00006913,0.00119189,0.00038995,-0.
 00045900,0.00186519,-0.00454602,0.00137223,0.02678239,-0.00005884,-0.0
 1443869,0.03670663,-0.06424713,-0.01475851,-0.02034020,0.01046920,0.00
 959514,-0.00351525,-0.00353864,0.00391527,0.00035207,-0.00182986,0.000
 10713,0.00001055,0.00018877,-0.00043359,-0.00063199,-0.00112231,0.0005
 8469,0.00020476,0.00005675,-0.00022537,0.00006996,0.00015498,-0.000048
 02,0.00007269,0.00035805,-0.00016511,-0.00004311,-0.00044991,-0.000117
 81,0.00000400,0.00004596,-0.00002206,-0.00000516,-0.00000412,0.0000001
 0,0.00006134,-0.00005250,0.00001104,0.00006884,0.00001968,0.00002750,-
 0.00008554,0.00002081,0.00000209,0.00005573,0.00000632,0.00000331,-0.0
 0000415,0.00000433,0.00000005,0.00000190,-0.00000011,-0.00000011,0.000
 00071,-0.00000088,-0.00000028,0.00000176,0.00000041,-0.00000023,-0.000
 00828,-0.00000971,-0.00003867,-0.00072358,0.00091716,-0.00070069,-0.04
 287868,0.06439483,-0.00000718,0.00000352,-0.00000107,0.00000623,-0.000
 00260,-0.00000116,-0.00002104,-0.00001334,-0.00000164,0.00001019,-0.00
 001594,0.00000023,0.00001509,0.00001063,0.00000085,0.00002914,-0.00005
 776,-0.00000533,-0.00004774,0.00006414,0.00002137,0.00008614,-0.000084
 08,0.,0.00003318,0.00012747,-0.00008846,0.00014791,-0.00018038,0.00033
 517,0.00212862,0.00146332,0.00687701,0.00063996,0.00049128,0.00288037,
 0.12449138,-0.01449211,-0.10265453,0.00937596,-0.00525176,-0.00304434,
 0.00429397,0.00332256,0.00419928,-0.00073570,0.00070006,-0.00011853,-0
 .00084394,-0.00045801,-0.00162408,0.00049679,-0.00002334,-0.00011149,-
 0.00044162,-0.00003287,-0.00029420,0.00002133,-0.00011820,0.00008712,-
 0.00015508,-0.00016074,-0.00016003,-0.00003449,-0.00003574,-0.00013424
 ,0.00001940,-0.00000236,0.00000805,-0.00006641,0.00001457,0.00000440,0
 .00003483,-0.00002060,0.00001298,-0.00001199,0.00000032,-0.00003172,-0
 .00004047,0.00001835,0.00000147,0.00002180,0.00000307,-0.00000121,-0.0
 0000359,0.00000335,0.00000295,0.00000034,-0.00000009,0.00000065,0.0000
 0042,-0.00000090,0.00000068,0.00000122,0.00000037,0.00000044,0.0000474
 1,-0.00003380,-0.00000597,-0.00225609,-0.00094696,-0.00303045,-0.13660
 525,0.01595702,0.09717707,0.00000151,-0.00000181,0.00000377,0.00000310
 ,0.00000210,-0.00000142,-0.00000683,-0.00000098,0.00000324,0.00000227,
 -0.00001244,-0.00000175,0.00000329,0.00000322,0.00000047,0.00000606,-0
 .00000815,-0.00001678,0.00010766,-0.00001191,0.00000384,-0.00008300,0.
 00011929,0.00003120,-0.00014803,-0.00041269,-0.00010759,-0.00058470,0.
 00058320,-0.00095325,-0.00650342,0.00255136,0.00632209,0.00134897,-0.0
 0172647,0.00280773,0.00025376,-0.00039236,-0.00031503,0.00399312,0.001
 61875,0.00300400,-0.01077252,0.00944535,0.00209019,-0.27533538,0.00895
 393,0.12555612,-0.00017447,-0.00006258,0.00041491,0.00007314,0.0000226
 6,-0.00007138,-0.00007067,0.00009459,-0.00004985,-0.00000650,0.0000153
 7,0.00004565,-0.00002774,-0.00002448,-0.00004861,0.00070758,0.00012317
 ,-0.00015319,-0.00217506,0.00165223,-0.00102016,-0.00035361,0.00052308
 ,-0.00010456,-0.00011255,0.00018175,0.00009209,-0.00001228,-0.00022011
 ,0.00008547,-0.00001737,-0.00000212,-0.00001110,0.00001272,0.00001454,
 -0.00000334,0.00000817,-0.00001787,0.00000292,0.00000040,-0.00000022,0
 .00000113,0.00000017,0.00000050,0.00000037,-0.00000026,0.00000043,0.00
 000176,0.00001238,0.00001147,0.00001664,-0.00047441,0.00015243,0.00006
 156,-0.00042978,-0.00016484,-0.00061502,0.29076124,0.00004003,-0.00003
 556,0.00000096,-0.00000776,0.00002551,0.00000125,0.00003110,0.00002970
 ,0.00000584,-0.00000558,0.00003476,-0.00000021,-0.00003034,-0.00001189
 ,-0.00000005,-0.00001012,0.00008011,-0.00000452,0.00016238,-0.00011666
 ,0.00000910,-0.00016979,0.00027244,0.00007158,-0.00006185,-0.00058819,
 -0.00025466,-0.00038000,0.00140986,-0.00045150,-0.02182989,0.00594088,
 0.01226088,-0.00123702,-0.00435602,0.00287036,0.00041844,-0.00070158,-
 0.00018599,0.00394692,-0.00342270,0.00072968,0.03324514,-0.00984656,-0
 .01685584,0.00852995,-0.05553025,-0.00338639,0.00091453,0.00047757,-0.
 00045016,-0.00012615,-0.00026860,0.00011428,0.00001702,-0.00012495,-0.
 00001823,0.00009357,-0.00010259,-0.00001097,-0.00001343,0.00005067,-0.
 00003046,-0.00063279,-0.00122872,0.00040687,0.00096310,-0.00077644,0.0
 0019845,0.00076705,-0.00008184,-0.00005375,-0.00015736,0.00048924,0.00
 012640,-0.00010060,-0.00030407,-0.00003672,0.00003455,-0.00004286,-0.0
 0000516,-0.00005077,0.00005742,-0.00000168,0.00003936,-0.00008266,-0.0
 0000212,-0.00000300,-0.00000045,0.00000018,0.00000034,0.00000428,0.000
 00020,-0.00000270,0.00000057,0.00000034,0.00005421,0.00004891,0.000079
 67,-0.00136871,0.00020614,0.00063297,-0.00006652,0.00017446,-0.0003640
 4,-0.02301880,0.06831199,-0.00005378,0.00005623,0.00001377,0.00000785,
 -0.00003326,-0.00000607,-0.00005681,-0.00003814,-0.00000464,0.00000955
 ,-0.00007619,-0.00000524,0.00005067,0.00002493,0.00000119,0.00003808,-
 0.00015068,-0.00004049,0.00017224,0.00027582,0.00005454,-0.00012289,0.
 00013318,0.00009130,-0.00012231,-0.00022938,-0.00001257,-0.00135417,-0
 .00020767,-0.00179331,0.01198190,-0.00177182,0.00076974,0.00297413,0.0
 0333172,0.00443057,-0.00039422,0.00005548,-0.00031892,0.00303910,0.001
 92890,0.00898826,-0.00184599,-0.00458825,-0.00226146,0.12262118,-0.003
 04593,-0.10720198,0.00031217,0.00008584,0.00043506,-0.00006613,0.00003
 214,-0.00000939,-0.00002128,-0.00010150,-0.00011956,0.00003289,0.00002
 778,0.00007738,-0.00006842,-0.00000872,-0.00010962,0.00080479,0.001069
 99,-0.00006499,0.00043602,-0.00005559,0.00034778,-0.00100555,0.0000595
 8,0.00020705,0.00032995,-0.00069023,-0.00020492,-0.00018030,-0.0001210
 2,0.00015429,-0.00010352,0.00005996,-0.00000680,0.00012160,-0.00006446
 ,-0.00000860,-0.00004497,0.00008137,-0.00000062,0.00000518,0.00000033,
 0.00000206,-0.00000039,-0.00000435,-0.00000099,0.00000217,0.00000126,0
 .00000294,-0.00004817,-0.00006337,-0.00006563,0.00033495,-0.00031509,-
 0.00053836,-0.00070905,-0.00026522,-0.00136333,-0.13709953,0.00460176,
 0.09853222,-0.00000721,0.00001704,0.00000115,0.00000121,-0.00000526,-0
 .00000097,-0.00002017,-0.00001001,-0.00000276,0.00000435,-0.00002657,-
 0.00000224,0.00002064,0.00001823,0.00000340,0.00003318,-0.00007227,-0.
 00000515,-0.00004736,0.00007666,0.00000827,0.00008144,-0.00005783,-0.0
 0000881,-0.00002199,0.00006626,-0.00000431,0.00008688,0.00004095,0.000
 02389,0.00005437,0.00005061,-0.00003922,0.00022818,0.00017851,-0.00042
 833,-0.00065314,-0.00015269,0.00044357,-0.00015640,-0.00104438,-0.0010
 2995,-0.00024062,0.00051307,0.00002959,0.00006994,-0.00016156,-0.00009
 925,-0.01044688,-0.01396750,0.01045773,-0.19572732,-0.10806194,0.10763
 025,0.00744745,0.00390392,-0.00578085,0.00134672,0.00274059,0.00064798
 ,-0.00077048,0.00074181,0.00354675,-0.00003359,-0.00003552,0.00000561,
 0.00002999,0.00000894,0.00000028,-0.00002423,0.00000234,0.00000307,0.0
 0002722,-0.00002773,-0.00000541,-0.00000326,-0.00001495,-0.00000107,-0
 .00006445,0.00000908,-0.00000038,0.00004897,0.00000271,0.00000042,-0.0
 0000524,0.00000323,0.00000149,0.00000168,0.00000022,0.00000061,0.00000
 080,-0.00000163,0.00000032,0.00000112,0.00000086,0.00000050,0.00001188
 ,0.00001146,0.00001174,-0.00002395,0.00001604,0.00000033,0.00070833,0.
 00077309,-0.00005808,0.00000228,0.00000695,0.00000934,0.19750289,0.000
 00466,-0.00001261,-0.00000079,-0.00000082,0.00000369,-0.00000043,0.000
 01468,0.00000648,0.00000137,-0.00000300,0.00001987,0.00000130,-0.00001
 452,-0.00001301,-0.00000228,-0.00002473,0.00005210,0.00000489,0.000032
 89,-0.00005305,-0.00000339,-0.00005603,0.00003799,-0.00000460,0.000013
 97,-0.00002628,0.00000503,0.00002196,-0.00003308,0.00003043,0.00000512
 ,-0.00004282,-0.00000590,-0.00007918,-0.00000768,-0.00003165,0.0006116
 5,-0.00042907,-0.00024628,-0.00074011,-0.00029661,-0.00000578,-0.00014
 282,0.00002228,0.00007029,-0.00007900,-0.00004626,0.00002100,0.0077038
 7,0.00976515,-0.00525301,-0.10309359,-0.13207437,0.07394821,-0.0218122
 8,-0.01977123,0.01505497,0.00069198,-0.00613873,0.00148089,0.00297856,
 0.00052654,-0.00051716,0.00001724,0.00000638,0.00000375,-0.00001803,-0
 .00000661,-0.00000705,0.00001315,-0.00000310,0.00000148,-0.00001530,0.
 00001532,0.00000138,0.00000784,0.00001618,-0.00000016,0.00004813,-0.00
 000548,0.00000114,-0.00003689,-0.00000285,-0.00000169,0.00000347,-0.00
 000117,0.00000028,-0.00000115,-0.00000018,0.00000009,-0.00000060,0.000
 00133,0.00000026,-0.00000071,-0.00000074,0.00000015,-0.00000725,-0.000
 00744,-0.00000267,0.00000945,-0.00000840,-0.00000656,0.00076612,-0.001
 35059,0.00009762,-0.00000107,0.00001058,0.00000964,0.11425754,0.150107
 79,0.00000087,-0.00000648,-0.00000012,-0.00000065,0.00000155,-0.000001
 29,0.00000769,0.00000186,0.00000187,0.00000028,0.00000916,-0.00000086,
 -0.00000879,-0.00000746,-0.00000053,-0.00001661,0.00003367,0.00000460,
 0.00003346,-0.00003067,0.00000082,-0.00004989,0.00003529,-0.00001927,0
 .00001603,-0.00002234,0.00000611,0.00004963,0.00001614,0.00012179,-0.0
 0005791,-0.00002087,0.00003099,-0.00033701,-0.00022770,-0.00023054,0.0
 0019885,0.00022631,-0.00013720,-0.00106944,0.00016254,-0.00186426,0.00
 016300,-0.00029470,-0.00004137,-0.00011013,0.00007401,-0.00011557,0.00
 627873,0.00637722,-0.00046017,0.10673547,0.07658010,-0.10445641,-0.000
 86242,0.00134511,-0.00177798,0.00103553,0.00038296,0.00291208,0.003118
 36,0.00068311,0.00433140,0.00003155,-0.00000975,0.00000796,-0.00001213
 ,-0.00001583,-0.00000401,-0.00000293,0.00000219,0.00000489,-0.00000403
 ,0.00000875,-0.00000329,-0.00000033,0.00001328,-0.00000437,0.00003201,
 -0.00000099,0.00000132,-0.00002438,-0.00000437,-0.00000259,0.00000235,
 0.00000164,0.00000112,-0.00000075,0.00000004,0.00000046,-0.00000045,0.
 00000099,0.00000053,-0.00000024,-0.00000067,0.00000058,-0.00000660,-0.
 00000587,0.00000498,0.00000015,-0.00000321,-0.00002021,-0.00004051,0.0
 0001906,0.00090462,0.00001667,0.00000229,0.00002512,-0.11548967,-0.085
 43310,0.10014377,0.00000241,-0.00000592,-0.00000047,-0.00000040,0.0000
 0195,0.00000010,0.00000705,0.00000284,-0.00000019,-0.00000095,0.000009
 60,0.00000053,-0.00000819,-0.00000676,-0.00000042,-0.00001241,0.000028
 09,0.00000047,0.00001696,-0.00002844,0.00000095,-0.00003000,0.00001861
 ,0.00000490,0.00000068,-0.00001660,0.00000162,0.00000494,0.00001896,-0
 .00001995,0.00010468,0.00003088,-0.00004652,-0.00002644,0.00016841,-0.
 00022826,-0.00038474,0.00013191,0.00015512,0.00144643,0.00085988,0.000
 19422,-0.00002149,0.00022952,-0.00023892,0.00017149,-0.00010365,0.0000
 5552,-0.00467764,0.00213721,0.00244238,-0.00076946,-0.00199698,0.00527
 108,-0.00188912,-0.02854818,0.00334463,-0.04522028,-0.00241718,0.01071
 004,0.00198414,0.01714868,-0.00465797,0.00001743,0.00000148,0.00000224
 ,-0.00001384,-0.00000545,-0.00000783,0.00001124,-0.00000171,0.00000109
 ,-0.00000956,0.00001236,0.00000087,0.00000396,0.00000940,0.00000081,0.
 00002570,-0.00000261,0.00000140,-0.00001949,-0.00000199,-0.00000122,0.
 00000219,-0.00000039,0.00000058,-0.00000079,0.00000003,0.00000011,-0.0
 0000023,0.00000050,0.00000019,-0.00000023,-0.00000023,0.00000008,-0.00
 000420,-0.00000286,-0.00000355,-0.00001399,0.00004269,0.00001440,0.000
 09047,0.00005031,0.00004240,-0.00000926,0.00000853,0.00001373,0.000536
 78,-0.00107518,0.00037423,0.04868617,-0.00000158,0.00000253,0.00000044
 ,-0.00000150,-0.00000151,-0.00000095,0.00000020,-0.00000157,0.00000048
 ,-0.00000016,-0.00000282,0.,0.00000210,0.00000353,0.00000007,0.0000039
 6,-0.00000921,-0.00000101,-0.00000488,0.00001113,-0.00000031,0.0000079
 5,-0.00001042,-0.00000141,-0.00000284,0.00000029,0.00000019,-0.0000134
 7,0.00000513,0.00000101,-0.00006622,-0.00005382,0.00005611,-0.00000745
 ,-0.00009601,-0.00005471,0.00004805,-0.00001782,-0.00003363,0.00003248
 ,0.00000621,0.00038429,0.00005013,-0.00034160,-0.00004237,-0.00005993,
 0.00012953,0.00005802,0.00196694,0.00061156,-0.00103595,-0.00173352,0.
 00196044,0.00215979,-0.00406600,-0.00816569,0.00261036,-0.00846879,-0.
 33761136,0.06429011,-0.00123856,-0.00802666,0.00208081,0.00000196,0.00
 000113,-0.00000027,0.00000774,-0.00000512,0.00000444,-0.00000971,0.000
 00416,-0.00000065,0.00000706,-0.00000987,-0.00000149,-0.00000217,0.000
 00101,0.00000145,-0.00000724,0.00000047,-0.00000037,0.00000643,-0.0000
 0077,0.00000010,-0.00000110,0.00000178,0.00000014,0.00000074,0.,0.0000
 0007,-0.00000005,0.00000079,0.00000014,-0.00000002,-0.00000076,-0.0000
 0005,0.00000287,0.00000277,0.00000021,0.00000939,-0.00001236,0.0000048
 1,0.00002568,0.00001091,0.00001797,0.00000947,-0.00000249,-0.00000502,
 0.00019974,-0.00026032,0.00010673,0.01330230,0.35187686,-0.00000157,0.
 00000119,-0.00000015,0.00000026,-0.00000081,-0.00000053,-0.00000066,-0
 .00000201,0.00000076,0.00000046,-0.00000056,-0.00000137,0.00000027,0.0
 0000087,0.00000098,0.00000158,-0.00000235,-0.00000318,-0.00000604,0.00
 000735,0.00000371,0.00000196,-0.00001676,0.00000510,0.00000305,0.00000
 218,0.,-0.00003223,0.00000534,-0.00002056,-0.00000699,-0.00001026,0.00
 004613,-0.00019893,-0.00014462,-0.00025093,0.00014901,-0.00009114,-0.0
 0012683,0.00033942,-0.00002620,0.00193621,-0.00019484,-0.00013374,-0.0
 0026969,0.00004339,0.00008139,0.00020354,0.00249349,-0.00116557,-0.000
 42520,0.00520745,0.00230790,0.00514289,-0.00135825,0.01567024,-0.00815
 013,0.01187039,0.06108703,-0.04411304,-0.00111472,-0.00774637,0.001499
 65,0.00001156,0.00000278,0.00000260,0.00000520,-0.00000790,-0.00000215
 ,-0.00001015,0.00000398,0.00000218,0.00000463,-0.00000625,-0.00000292,
 0.00000086,0.00000541,0.00000264,-0.00000025,0.00000164,-0.00000067,0.
 00000053,-0.00000202,-0.00000097,-0.00000068,0.00000281,0.00000155,0.0
 0000025,0.00000016,0.00000052,-0.00000004,0.,0.00000046,0.00000021,-0.
 00000029,0.00000038,0.00000224,0.00000378,-0.00000380,0.00002140,-0.00
 002285,0.00002535,0.00005525,0.00000747,0.00015711,0.00001073,-0.00000
 061,0.00000423,0.00013014,0.00078834,0.00063504,-0.01742840,-0.0705995
 5,0.04370105\\0.00000853,-0.00001301,0.00001558,0.00001479,-0.00000430
 ,-0.00001618,0.00001878,0.00001997,0.00001283,-0.00000809,-0.00001069,
 -0.00000642,-0.00001547,0.00000365,0.00000799,0.00000062,0.00001229,-0
 .00000541,-0.00000360,0.00001867,-0.00000017,0.00000560,-0.00000254,-0
 .00000207,-0.00000180,-0.00000170,0.00000214,0.00000609,-0.00000101,0.
 00000214,0.00000615,0.00000704,-0.00000326,-0.00000774,-0.00000311,0.0
 0000173,-0.00000139,-0.00000158,0.00000248,-0.00000026,-0.00000431,0.0
 0000513,-0.00000512,0.00001173,0.00000025,0.00000467,-0.00001725,-0.00
 000143,-0.00000384,0.00001319,0.00000374,-0.00000567,-0.00001809,-0.00
 000971,0.00000777,0.00000926,0.00001108,-0.00001684,0.00000075,-0.0000
 0186,0.00000104,-0.00000350,0.00000072,-0.00000355,0.00000463,0.000003
 72,-0.00000339,-0.00000598,0.00000003,0.00000212,0.00001034,-0.0000006
 8,-0.00001244,-0.00000775,-0.00000291,0.00001480,-0.00001040,-0.000002
 32,-0.00000954,-0.00001592,-0.00000079,0.00000175,0.00001299,-0.000006
 48,0.00000077,-0.00000038,-0.00000286,0.00000069,-0.00000136,0.0000001
 0,0.00000863,0.00000174,-0.00000411,0.00000301,-0.00000016,-0.00000247
 ,0.00000047,-0.00000212,-0.00000053,0.00000209,-0.00000375,-0.00000080
 ,-0.00000183,-0.00000203,-0.00000024,-0.00000436,0.00000291,-0.0000003
 3,-0.00000242,0.00000031,0.00000129,-0.00000101,0.00000149,0.00000007\
 \\@


 HOW IS IT THAT THE SKY FEEDS THE STARS?

                           -- LUCRETIUS
 Job cpu time:  0 days 14 hours 47 minutes 56.5 seconds.
 File lengths (MBytes):  RWF=   1497 Int=      0 D2E=      0 Chk=     27 Scr=      1
 Normal termination of Gaussian 09 at Sun Dec 29 15:32:20 2013.
