 Entering Gaussian System, Link 0=g09
 Initial command:
 /opt/gaussian/g09/l1.exe /panfs/panfs.cluster/home/shuo/Gau-2976.inp -scrdir=/panfs/panfs.cluster/home/shuo/
 Default is to use a total of  12 processors:
                               12 via shared-memory
                                1 via Linda
 Entering Link 1 = /opt/gaussian/g09/l1.exe PID=      2977.
  
 Copyright (c) 1988,1990,1992,1993,1995,1998,2003,2009,2011,
            Gaussian, Inc.  All Rights Reserved.
  
 This is part of the Gaussian(R) 09 program.  It is based on
 the Gaussian(R) 03 system (copyright 2003, Gaussian, Inc.),
 the Gaussian(R) 98 system (copyright 1998, Gaussian, Inc.),
 the Gaussian(R) 94 system (copyright 1995, Gaussian, Inc.),
 the Gaussian 92(TM) system (copyright 1992, Gaussian, Inc.),
 the Gaussian 90(TM) system (copyright 1990, Gaussian, Inc.),
 the Gaussian 88(TM) system (copyright 1988, Gaussian, Inc.),
 the Gaussian 86(TM) system (copyright 1986, Carnegie Mellon
 University), and the Gaussian 82(TM) system (copyright 1983,
 Carnegie Mellon University). Gaussian is a federally registered
 trademark of Gaussian, Inc.
  
 This software contains proprietary and confidential information,
 including trade secrets, belonging to Gaussian, Inc.
  
 This software is provided under written license and may be
 used, copied, transmitted, or stored only in accord with that
 written license.
  
 The following legend is applicable only to US Government
 contracts under FAR:
  
                    RESTRICTED RIGHTS LEGEND
  
 Use, reproduction and disclosure by the US Government is
 subject to restrictions as set forth in subparagraphs (a)
 and (c) of the Commercial Computer Software - Restricted
 Rights clause in FAR 52.227-19.
  
 Gaussian, Inc.
 340 Quinnipiac St., Bldg. 40, Wallingford CT 06492
  
  
 ---------------------------------------------------------------
 Warning -- This program may not be used in any manner that
 competes with the business of Gaussian, Inc. or will provide
 assistance to any competitor of Gaussian, Inc.  The licensee
 of this program is prohibited from giving any competitor of
 Gaussian, Inc. access to this program.  By using this program,
 the user acknowledges that Gaussian, Inc. is engaged in the
 business of creating and licensing software in the field of
 computational chemistry and represents and warrants to the
 licensee that it is not a competitor of Gaussian, Inc. and that
 it will not use this program in any manner prohibited above.
 ---------------------------------------------------------------
  

 Cite this work as:
 Gaussian 09, Revision C.01,
 M. J. Frisch, G. W. Trucks, H. B. Schlegel, G. E. Scuseria, 
 M. A. Robb, J. R. Cheeseman, G. Scalmani, V. Barone, B. Mennucci, 
 G. A. Petersson, H. Nakatsuji, M. Caricato, X. Li, H. P. Hratchian, 
 A. F. Izmaylov, J. Bloino, G. Zheng, J. L. Sonnenberg, M. Hada, 
 M. Ehara, K. Toyota, R. Fukuda, J. Hasegawa, M. Ishida, T. Nakajima, 
 Y. Honda, O. Kitao, H. Nakai, T. Vreven, J. A. Montgomery, Jr., 
 J. E. Peralta, F. Ogliaro, M. Bearpark, J. J. Heyd, E. Brothers, 
 K. N. Kudin, V. N. Staroverov, T. Keith, R. Kobayashi, J. Normand, 
 K. Raghavachari, A. Rendell, J. C. Burant, S. S. Iyengar, J. Tomasi, 
 M. Cossi, N. Rega, J. M. Millam, M. Klene, J. E. Knox, J. B. Cross, 
 V. Bakken, C. Adamo, J. Jaramillo, R. Gomperts, R. E. Stratmann, 
 O. Yazyev, A. J. Austin, R. Cammi, C. Pomelli, J. W. Ochterski, 
 R. L. Martin, K. Morokuma, V. G. Zakrzewski, G. A. Voth, 
 P. Salvador, J. J. Dannenberg, S. Dapprich, A. D. Daniels, 
 O. Farkas, J. B. Foresman, J. V. Ortiz, J. Cioslowski, 
 and D. J. Fox, Gaussian, Inc., Wallingford CT, 2010.
 
 ******************************************
 Gaussian 09:  EM64L-G09RevC.01 23-Sep-2011
                29-Dec-2013 
 ******************************************
 %chk=55_C27H13N3O2S.chk
 %NProcShared=12
 Will use up to   12 processors via shared memory.
 %Mem=8000MB
 Default route:  MaxDisk=100GB
 --------------------------------------------
 #B3LYP/6-31++G(d,p) opt scf=direct freq test
 --------------------------------------------
 1/14=-1,18=20,19=15,26=3,38=1/1,3;
 2/9=110,12=2,17=6,18=5,40=1/2;
 3/5=1,6=6,7=1111,11=2,16=1,25=1,30=1,71=1,74=-5/1,2,3;
 4//1;
 5/5=2,38=5/2;
 6/7=2,8=2,9=2,10=2,28=1/1;
 7//1,2,3,16;
 1/14=-1,18=20,19=15/3(2);
 2/9=110/2;
 99//99;
 2/9=110/2;
 3/5=1,6=6,7=1111,11=2,16=1,25=1,30=1,71=1,74=-5/1,2,3;
 4/5=5,16=3/1;
 5/5=2,38=5/2;
 7//1,2,3,16;
 1/14=-1,18=20,19=15/3(-5);
 2/9=110/2;
 6/7=2,8=2,9=2,10=2,19=2,28=1/1;
 99/9=1/99;
 ----------------------------------------------------------------------
 Geom opt of No.55 candidate from the CEPDB database with SMILE code of
  C1ccc2csc(c12)-c1ncc(s1)-c1ncc(-c2cccc3cocc23)c2nsnc12, HPC, 20131227
 , Shuo Dai, Gaussian09
 ----------------------------------------------------------------------
 Charge =  0 Multiplicity = 1
 Symbolic Z-Matrix:
 C                    -1.40846   1.1918    0.00402 
 C                    -2.25706  -0.07997   0.00131 
 C                    -1.49053  -1.20207  -0.00145 
 C                    -0.13924  -0.83408  -0.00061 
 C                     1.04784  -1.49919  -0.00086 
 S                     2.30605  -0.37176   0.0072 
 C                     1.19891   1.00777   0.00565 
 C                    -0.06556   0.57195   0.00303 
 C                     1.66713   2.34863   0.00584 
 N                     1.00828   3.48881   0.01019 
 C                     1.95348   4.52673   0.00322 
 C                     3.26143   4.09416  -0.0039 
 S                     3.31276   2.44662  -0.00485 
 C                     4.53514   4.70913  -0.0214 
 N                     4.50121   6.03856  -0.08967 
 C                     5.66927   6.68892  -0.15733 
 C                     6.97127   6.17593  -0.07858 
 C                     8.15455   6.98391  -0.08606 
 C                     9.47404   6.45978  -0.20631 
 C                     10.66864   7.2172   -0.20426 
 C                     10.6849   8.61327  -0.11068 
 C                     9.40152   9.12934  -0.00902 
 C                     9.06552   10.44713   0.10957 
 O                     7.7167    10.57354   0.22201 
 C                     7.19815   9.3135    0.22775 
 C                     8.19404   8.38265   0.02089 
 C                     7.02044   4.75788  -0.03618 
 N                     8.10215   3.95378  -0.00795 
 S                     7.61762   2.39343  -0.05158 
 N                     6.01337   2.66469  -0.04024 
 C                     5.7772    3.99508  -0.02876 
 H                    -1.56984   1.79543   0.90279 
 H                    -1.57061   1.8008   -0.89104 
 H                    -3.32993  -0.06671   0.00337 
 H                    -1.81973  -2.22479  -0.00203 
 H                     1.28911  -2.54713  -0.00313 
 H                     1.63716   5.56663   0.00145 
 H                     5.46712   7.73133  -0.33233 
 H                     9.64672   5.3917   -0.31006 
 H                     11.59864   6.65582  -0.28106 
 H                     11.5971   9.18195  -0.10581 
 H                     9.61721   11.36914   0.15591 
 H                     6.1325    9.31642   0.40824 
 

 GradGradGradGradGradGradGradGradGradGradGradGradGradGradGradGradGradGrad
 Berny optimization.
 Initialization pass.
                           ----------------------------
                           !    Initial Parameters    !
                           ! (Angstroms and Degrees)  !
 --------------------------                            --------------------------
 ! Name  Definition              Value          Derivative Info.                !
 --------------------------------------------------------------------------------
 ! R1    R(1,2)                  1.5289         estimate D2E/DX2                !
 ! R2    R(1,8)                  1.4791         estimate D2E/DX2                !
 ! R3    R(1,32)                 1.0946         estimate D2E/DX2                !
 ! R4    R(1,33)                 1.0947         estimate D2E/DX2                !
 ! R5    R(2,3)                  1.3589         estimate D2E/DX2                !
 ! R6    R(2,34)                 1.073          estimate D2E/DX2                !
 ! R7    R(3,4)                  1.4005         estimate D2E/DX2                !
 ! R8    R(3,35)                 1.0744         estimate D2E/DX2                !
 ! R9    R(4,5)                  1.3607         estimate D2E/DX2                !
 ! R10   R(4,8)                  1.408          estimate D2E/DX2                !
 ! R11   R(5,6)                  1.6895         estimate D2E/DX2                !
 ! R12   R(5,36)                 1.0754         estimate D2E/DX2                !
 ! R13   R(6,7)                  1.7689         estimate D2E/DX2                !
 ! R14   R(7,8)                  1.3375         estimate D2E/DX2                !
 ! R15   R(7,9)                  1.4203         estimate D2E/DX2                !
 ! R16   R(9,10)                 1.3169         estimate D2E/DX2                !
 ! R17   R(9,13)                 1.6486         estimate D2E/DX2                !
 ! R18   R(10,11)                1.4038         estimate D2E/DX2                !
 ! R19   R(11,12)                1.3776         estimate D2E/DX2                !
 ! R20   R(11,37)                1.0869         estimate D2E/DX2                !
 ! R21   R(12,13)                1.6483         estimate D2E/DX2                !
 ! R22   R(12,14)                1.4145         estimate D2E/DX2                !
 ! R23   R(14,15)                1.3316         estimate D2E/DX2                !
 ! R24   R(14,31)                1.4327         estimate D2E/DX2                !
 ! R25   R(15,16)                1.3386         estimate D2E/DX2                !
 ! R26   R(16,17)                1.4016         estimate D2E/DX2                !
 ! R27   R(16,38)                1.0762         estimate D2E/DX2                !
 ! R28   R(17,18)                1.4328         estimate D2E/DX2                !
 ! R29   R(17,27)                1.4195         estimate D2E/DX2                !
 ! R30   R(18,19)                1.4249         estimate D2E/DX2                !
 ! R31   R(18,26)                1.4034         estimate D2E/DX2                !
 ! R32   R(19,20)                1.4145         estimate D2E/DX2                !
 ! R33   R(19,39)                1.0869         estimate D2E/DX2                !
 ! R34   R(20,21)                1.3993         estimate D2E/DX2                !
 ! R35   R(20,40)                1.089          estimate D2E/DX2                !
 ! R36   R(21,22)                1.387          estimate D2E/DX2                !
 ! R37   R(21,41)                1.075          estimate D2E/DX2                !
 ! R38   R(22,23)                1.3651         estimate D2E/DX2                !
 ! R39   R(22,26)                1.42           estimate D2E/DX2                !
 ! R40   R(23,24)                1.3594         estimate D2E/DX2                !
 ! R41   R(23,42)                1.0755         estimate D2E/DX2                !
 ! R42   R(24,25)                1.3626         estimate D2E/DX2                !
 ! R43   R(25,26)                1.3788         estimate D2E/DX2                !
 ! R44   R(25,43)                1.0808         estimate D2E/DX2                !
 ! R45   R(27,28)                1.3481         estimate D2E/DX2                !
 ! R46   R(27,31)                1.4586         estimate D2E/DX2                !
 ! R47   R(28,29)                1.6344         estimate D2E/DX2                !
 ! R48   R(29,30)                1.6271         estimate D2E/DX2                !
 ! R49   R(30,31)                1.3512         estimate D2E/DX2                !
 ! A1    A(2,1,8)               98.9366         estimate D2E/DX2                !
 ! A2    A(2,1,32)             112.2305         estimate D2E/DX2                !
 ! A3    A(2,1,33)             112.2781         estimate D2E/DX2                !
 ! A4    A(8,1,32)             111.4391         estimate D2E/DX2                !
 ! A5    A(8,1,33)             111.5365         estimate D2E/DX2                !
 ! A6    A(32,1,33)            110.0432         estimate D2E/DX2                !
 ! A7    A(1,2,3)              111.9488         estimate D2E/DX2                !
 ! A8    A(1,2,34)             123.0051         estimate D2E/DX2                !
 ! A9    A(3,2,34)             125.046          estimate D2E/DX2                !
 ! A10   A(2,3,4)              109.104          estimate D2E/DX2                !
 ! A11   A(2,3,35)             127.8195         estimate D2E/DX2                !
 ! A12   A(4,3,35)             123.0764         estimate D2E/DX2                !
 ! A13   A(3,4,5)              135.5048         estimate D2E/DX2                !
 ! A14   A(3,4,8)              108.2334         estimate D2E/DX2                !
 ! A15   A(5,4,8)              116.2617         estimate D2E/DX2                !
 ! A16   A(4,5,6)              108.876          estimate D2E/DX2                !
 ! A17   A(4,5,36)             132.2268         estimate D2E/DX2                !
 ! A18   A(6,5,36)             118.897          estimate D2E/DX2                !
 ! A19   A(5,6,7)               93.1132         estimate D2E/DX2                !
 ! A20   A(6,7,8)              109.7315         estimate D2E/DX2                !
 ! A21   A(6,7,9)              122.0024         estimate D2E/DX2                !
 ! A22   A(8,7,9)              128.2662         estimate D2E/DX2                !
 ! A23   A(1,8,4)              111.7772         estimate D2E/DX2                !
 ! A24   A(1,8,7)              136.2055         estimate D2E/DX2                !
 ! A25   A(4,8,7)              112.0172         estimate D2E/DX2                !
 ! A26   A(7,9,10)             130.7295         estimate D2E/DX2                !
 ! A27   A(7,9,13)             112.656          estimate D2E/DX2                !
 ! A28   A(10,9,13)            116.6143         estimate D2E/DX2                !
 ! A29   A(9,10,11)            107.6542         estimate D2E/DX2                !
 ! A30   A(10,11,12)           114.0238         estimate D2E/DX2                !
 ! A31   A(10,11,37)           120.7581         estimate D2E/DX2                !
 ! A32   A(12,11,37)           125.218          estimate D2E/DX2                !
 ! A33   A(11,12,13)           110.0847         estimate D2E/DX2                !
 ! A34   A(11,12,14)           135.9276         estimate D2E/DX2                !
 ! A35   A(13,12,14)           113.9852         estimate D2E/DX2                !
 ! A36   A(9,13,12)             91.6229         estimate D2E/DX2                !
 ! A37   A(12,14,15)           114.3139         estimate D2E/DX2                !
 ! A38   A(12,14,31)           124.3346         estimate D2E/DX2                !
 ! A39   A(15,14,31)           121.2922         estimate D2E/DX2                !
 ! A40   A(14,15,16)           117.7363         estimate D2E/DX2                !
 ! A41   A(15,16,17)           129.043          estimate D2E/DX2                !
 ! A42   A(15,16,38)           108.3558         estimate D2E/DX2                !
 ! A43   A(17,16,38)           122.5577         estimate D2E/DX2                !
 ! A44   A(16,17,18)           124.0868         estimate D2E/DX2                !
 ! A45   A(16,17,27)           113.5448         estimate D2E/DX2                !
 ! A46   A(18,17,27)           122.3345         estimate D2E/DX2                !
 ! A47   A(17,18,19)           123.9016         estimate D2E/DX2                !
 ! A48   A(17,18,26)           125.7943         estimate D2E/DX2                !
 ! A49   A(19,18,26)           110.3042         estimate D2E/DX2                !
 ! A50   A(18,19,20)           125.8029         estimate D2E/DX2                !
 ! A51   A(18,19,39)           121.108          estimate D2E/DX2                !
 ! A52   A(20,19,39)           113.089          estimate D2E/DX2                !
 ! A53   A(19,20,21)           122.9667         estimate D2E/DX2                !
 ! A54   A(19,20,40)           116.4295         estimate D2E/DX2                !
 ! A55   A(21,20,40)           120.6038         estimate D2E/DX2                !
 ! A56   A(20,21,22)           111.4305         estimate D2E/DX2                !
 ! A57   A(20,21,41)           122.5456         estimate D2E/DX2                !
 ! A58   A(22,21,41)           126.0175         estimate D2E/DX2                !
 ! A59   A(21,22,23)           126.3914         estimate D2E/DX2                !
 ! A60   A(21,22,26)           126.349          estimate D2E/DX2                !
 ! A61   A(23,22,26)           107.2463         estimate D2E/DX2                !
 ! A62   A(22,23,24)           109.9483         estimate D2E/DX2                !
 ! A63   A(22,23,42)           134.836          estimate D2E/DX2                !
 ! A64   A(24,23,42)           115.1954         estimate D2E/DX2                !
 ! A65   A(23,24,25)           106.9754         estimate D2E/DX2                !
 ! A66   A(24,25,26)           110.4141         estimate D2E/DX2                !
 ! A67   A(24,25,43)           111.927          estimate D2E/DX2                !
 ! A68   A(26,25,43)           137.6483         estimate D2E/DX2                !
 ! A69   A(18,26,22)           123.1215         estimate D2E/DX2                !
 ! A70   A(18,26,25)           131.6054         estimate D2E/DX2                !
 ! A71   A(22,26,25)           105.2093         estimate D2E/DX2                !
 ! A72   A(17,27,28)           128.627          estimate D2E/DX2                !
 ! A73   A(17,27,31)           119.5407         estimate D2E/DX2                !
 ! A74   A(28,27,31)           111.8309         estimate D2E/DX2                !
 ! A75   A(27,28,29)           109.3291         estimate D2E/DX2                !
 ! A76   A(28,29,30)            97.64           estimate D2E/DX2                !
 ! A77   A(29,30,31)           109.6659         estimate D2E/DX2                !
 ! A78   A(14,31,27)           118.5751         estimate D2E/DX2                !
 ! A79   A(14,31,30)           129.9614         estimate D2E/DX2                !
 ! A80   A(27,31,30)           111.4615         estimate D2E/DX2                !
 ! D1    D(8,1,2,3)             -0.0297         estimate D2E/DX2                !
 ! D2    D(8,1,2,34)           179.8577         estimate D2E/DX2                !
 ! D3    D(32,1,2,3)          -117.6743         estimate D2E/DX2                !
 ! D4    D(32,1,2,34)           62.2131         estimate D2E/DX2                !
 ! D5    D(33,1,2,3)           117.7455         estimate D2E/DX2                !
 ! D6    D(33,1,2,34)          -62.3671         estimate D2E/DX2                !
 ! D7    D(2,1,8,4)              0.0354         estimate D2E/DX2                !
 ! D8    D(2,1,8,7)           -179.9067         estimate D2E/DX2                !
 ! D9    D(32,1,8,4)           118.2777         estimate D2E/DX2                !
 ! D10   D(32,1,8,7)           -61.6643         estimate D2E/DX2                !
 ! D11   D(33,1,8,4)          -118.2995         estimate D2E/DX2                !
 ! D12   D(33,1,8,7)            61.7585         estimate D2E/DX2                !
 ! D13   D(1,2,3,4)              0.0141         estimate D2E/DX2                !
 ! D14   D(1,2,3,35)           179.8862         estimate D2E/DX2                !
 ! D15   D(34,2,3,4)          -179.8706         estimate D2E/DX2                !
 ! D16   D(34,2,3,35)            0.0016         estimate D2E/DX2                !
 ! D17   D(2,3,4,5)            179.9149         estimate D2E/DX2                !
 ! D18   D(2,3,4,8)              0.0096         estimate D2E/DX2                !
 ! D19   D(35,3,4,5)             0.0355         estimate D2E/DX2                !
 ! D20   D(35,3,4,8)          -179.8699         estimate D2E/DX2                !
 ! D21   D(3,4,5,6)           -179.7673         estimate D2E/DX2                !
 ! D22   D(3,4,5,36)             0.094          estimate D2E/DX2                !
 ! D23   D(8,4,5,6)              0.1325         estimate D2E/DX2                !
 ! D24   D(8,4,5,36)           179.9938         estimate D2E/DX2                !
 ! D25   D(3,4,8,1)             -0.0305         estimate D2E/DX2                !
 ! D26   D(3,4,8,7)            179.9262         estimate D2E/DX2                !
 ! D27   D(5,4,8,1)           -179.9565         estimate D2E/DX2                !
 ! D28   D(5,4,8,7)              0.0002         estimate D2E/DX2                !
 ! D29   D(4,5,6,7)             -0.1697         estimate D2E/DX2                !
 ! D30   D(36,5,6,7)           179.9476         estimate D2E/DX2                !
 ! D31   D(5,6,7,8)              0.1752         estimate D2E/DX2                !
 ! D32   D(5,6,7,9)           -179.7639         estimate D2E/DX2                !
 ! D33   D(6,7,8,1)            179.8144         estimate D2E/DX2                !
 ! D34   D(6,7,8,4)             -0.1275         estimate D2E/DX2                !
 ! D35   D(9,7,8,1)             -0.2512         estimate D2E/DX2                !
 ! D36   D(9,7,8,4)            179.8068         estimate D2E/DX2                !
 ! D37   D(6,7,9,10)          -179.6928         estimate D2E/DX2                !
 ! D38   D(6,7,9,13)             0.4698         estimate D2E/DX2                !
 ! D39   D(8,7,9,10)             0.3801         estimate D2E/DX2                !
 ! D40   D(8,7,9,13)          -179.4573         estimate D2E/DX2                !
 ! D41   D(7,9,10,11)         -179.7941         estimate D2E/DX2                !
 ! D42   D(13,9,10,11)           0.038          estimate D2E/DX2                !
 ! D43   D(7,9,13,12)          179.8802         estimate D2E/DX2                !
 ! D44   D(10,9,13,12)           0.018          estimate D2E/DX2                !
 ! D45   D(9,10,11,12)          -0.0918         estimate D2E/DX2                !
 ! D46   D(9,10,11,37)         179.7716         estimate D2E/DX2                !
 ! D47   D(10,11,12,13)          0.1064         estimate D2E/DX2                !
 ! D48   D(10,11,12,14)        179.4662         estimate D2E/DX2                !
 ! D49   D(37,11,12,13)       -179.7499         estimate D2E/DX2                !
 ! D50   D(37,11,12,14)         -0.39           estimate D2E/DX2                !
 ! D51   D(11,12,13,9)          -0.0694         estimate D2E/DX2                !
 ! D52   D(14,12,13,9)        -179.5821         estimate D2E/DX2                !
 ! D53   D(11,12,14,15)         -2.5981         estimate D2E/DX2                !
 ! D54   D(11,12,14,31)       -179.8213         estimate D2E/DX2                !
 ! D55   D(13,12,14,15)        176.7439         estimate D2E/DX2                !
 ! D56   D(13,12,14,31)         -0.4793         estimate D2E/DX2                !
 ! D57   D(12,14,15,16)       -177.72           estimate D2E/DX2                !
 ! D58   D(31,14,15,16)         -0.4033         estimate D2E/DX2                !
 ! D59   D(12,14,31,27)       -179.5142         estimate D2E/DX2                !
 ! D60   D(12,14,31,30)          1.0459         estimate D2E/DX2                !
 ! D61   D(15,14,31,27)          3.4473         estimate D2E/DX2                !
 ! D62   D(15,14,31,30)       -175.9927         estimate D2E/DX2                !
 ! D63   D(14,15,16,17)         -4.7172         estimate D2E/DX2                !
 ! D64   D(14,15,16,38)        172.8957         estimate D2E/DX2                !
 ! D65   D(15,16,17,18)       -176.1818         estimate D2E/DX2                !
 ! D66   D(15,16,17,27)          5.8978         estimate D2E/DX2                !
 ! D67   D(38,16,17,18)          6.5064         estimate D2E/DX2                !
 ! D68   D(38,16,17,27)       -171.4139         estimate D2E/DX2                !
 ! D69   D(16,17,18,19)       -170.2731         estimate D2E/DX2                !
 ! D70   D(16,17,18,26)          9.7008         estimate D2E/DX2                !
 ! D71   D(27,17,18,19)          7.4704         estimate D2E/DX2                !
 ! D72   D(27,17,18,26)       -172.5557         estimate D2E/DX2                !
 ! D73   D(16,17,27,28)        177.4003         estimate D2E/DX2                !
 ! D74   D(16,17,27,31)         -2.1329         estimate D2E/DX2                !
 ! D75   D(18,17,27,28)         -0.5613         estimate D2E/DX2                !
 ! D76   D(18,17,27,31)        179.9055         estimate D2E/DX2                !
 ! D77   D(17,18,19,20)       -179.2953         estimate D2E/DX2                !
 ! D78   D(17,18,19,39)          0.5837         estimate D2E/DX2                !
 ! D79   D(26,18,19,20)          0.7273         estimate D2E/DX2                !
 ! D80   D(26,18,19,39)       -179.3937         estimate D2E/DX2                !
 ! D81   D(17,18,26,22)       -179.2234         estimate D2E/DX2                !
 ! D82   D(17,18,26,25)          4.134          estimate D2E/DX2                !
 ! D83   D(19,18,26,22)          0.7535         estimate D2E/DX2                !
 ! D84   D(19,18,26,25)       -175.8891         estimate D2E/DX2                !
 ! D85   D(18,19,20,21)         -1.5152         estimate D2E/DX2                !
 ! D86   D(18,19,20,40)        178.5252         estimate D2E/DX2                !
 ! D87   D(39,19,20,21)        178.5974         estimate D2E/DX2                !
 ! D88   D(39,19,20,40)         -1.3621         estimate D2E/DX2                !
 ! D89   D(19,20,21,22)          0.6233         estimate D2E/DX2                !
 ! D90   D(19,20,21,41)        179.7505         estimate D2E/DX2                !
 ! D91   D(40,20,21,22)       -179.4187         estimate D2E/DX2                !
 ! D92   D(40,20,21,41)         -0.2916         estimate D2E/DX2                !
 ! D93   D(20,21,22,23)        179.3775         estimate D2E/DX2                !
 ! D94   D(20,21,22,26)          0.8789         estimate D2E/DX2                !
 ! D95   D(41,21,22,23)          0.2872         estimate D2E/DX2                !
 ! D96   D(41,21,22,26)       -178.2114         estimate D2E/DX2                !
 ! D97   D(21,22,23,24)       -178.3054         estimate D2E/DX2                !
 ! D98   D(21,22,23,42)         -0.0812         estimate D2E/DX2                !
 ! D99   D(26,22,23,24)          0.4285         estimate D2E/DX2                !
 ! D100  D(26,22,23,42)        178.6527         estimate D2E/DX2                !
 ! D101  D(21,22,26,18)         -1.6822         estimate D2E/DX2                !
 ! D102  D(21,22,26,25)        175.7168         estimate D2E/DX2                !
 ! D103  D(23,22,26,18)        179.5832         estimate D2E/DX2                !
 ! D104  D(23,22,26,25)         -3.0178         estimate D2E/DX2                !
 ! D105  D(22,23,24,25)          2.3912         estimate D2E/DX2                !
 ! D106  D(42,23,24,25)       -176.2172         estimate D2E/DX2                !
 ! D107  D(23,24,25,26)         -4.4155         estimate D2E/DX2                !
 ! D108  D(23,24,25,43)        174.6154         estimate D2E/DX2                !
 ! D109  D(24,25,26,18)       -178.3161         estimate D2E/DX2                !
 ! D110  D(24,25,26,22)          4.5974         estimate D2E/DX2                !
 ! D111  D(43,25,26,18)          3.0183         estimate D2E/DX2                !
 ! D112  D(43,25,26,22)       -174.0681         estimate D2E/DX2                !
 ! D113  D(17,27,28,29)       -176.7252         estimate D2E/DX2                !
 ! D114  D(31,27,28,29)          2.8374         estimate D2E/DX2                !
 ! D115  D(17,27,31,14)         -1.9786         estimate D2E/DX2                !
 ! D116  D(17,27,31,30)        177.5601         estimate D2E/DX2                !
 ! D117  D(28,27,31,14)        178.4142         estimate D2E/DX2                !
 ! D118  D(28,27,31,30)         -2.047          estimate D2E/DX2                !
 ! D119  D(27,28,29,30)         -2.4172         estimate D2E/DX2                !
 ! D120  D(28,29,30,31)          1.2227         estimate D2E/DX2                !
 ! D121  D(29,30,31,14)        179.726          estimate D2E/DX2                !
 ! D122  D(29,30,31,27)          0.2545         estimate D2E/DX2                !
 --------------------------------------------------------------------------------
 Trust Radius=3.00D-01 FncErr=1.00D-07 GrdErr=1.00D-06
 Number of steps in this run=    258 maximum allowed number of steps=    258.
 GradGradGradGradGradGradGradGradGradGradGradGradGradGradGradGradGradGrad

                          Input orientation:                          
 ---------------------------------------------------------------------
 Center     Atomic      Atomic             Coordinates (Angstroms)
 Number     Number       Type             X           Y           Z
 ---------------------------------------------------------------------
      1          6           0       -1.408460    1.191800    0.004020
      2          6           0       -2.257060   -0.079970    0.001310
      3          6           0       -1.490530   -1.202070   -0.001450
      4          6           0       -0.139240   -0.834080   -0.000610
      5          6           0        1.047840   -1.499190   -0.000860
      6         16           0        2.306050   -0.371760    0.007200
      7          6           0        1.198910    1.007770    0.005650
      8          6           0       -0.065560    0.571950    0.003030
      9          6           0        1.667130    2.348630    0.005840
     10          7           0        1.008280    3.488810    0.010190
     11          6           0        1.953480    4.526730    0.003220
     12          6           0        3.261430    4.094160   -0.003900
     13         16           0        3.312760    2.446620   -0.004850
     14          6           0        4.535140    4.709130   -0.021400
     15          7           0        4.501210    6.038560   -0.089670
     16          6           0        5.669270    6.688920   -0.157330
     17          6           0        6.971270    6.175930   -0.078580
     18          6           0        8.154550    6.983910   -0.086060
     19          6           0        9.474040    6.459780   -0.206310
     20          6           0       10.668640    7.217200   -0.204260
     21          6           0       10.684900    8.613270   -0.110680
     22          6           0        9.401520    9.129340   -0.009020
     23          6           0        9.065520   10.447130    0.109570
     24          8           0        7.716700   10.573540    0.222010
     25          6           0        7.198150    9.313500    0.227750
     26          6           0        8.194040    8.382650    0.020890
     27          6           0        7.020440    4.757880   -0.036180
     28          7           0        8.102150    3.953780   -0.007950
     29         16           0        7.617620    2.393430   -0.051580
     30          7           0        6.013370    2.664690   -0.040240
     31          6           0        5.777200    3.995080   -0.028760
     32          1           0       -1.569840    1.795430    0.902790
     33          1           0       -1.570610    1.800800   -0.891040
     34          1           0       -3.329930   -0.066710    0.003370
     35          1           0       -1.819730   -2.224790   -0.002030
     36          1           0        1.289110   -2.547130   -0.003130
     37          1           0        1.637160    5.566630    0.001450
     38          1           0        5.467120    7.731330   -0.332330
     39          1           0        9.646720    5.391700   -0.310060
     40          1           0       11.598640    6.655820   -0.281060
     41          1           0       11.597100    9.181950   -0.105810
     42          1           0        9.617210   11.369140    0.155910
     43          1           0        6.132500    9.316420    0.408240
 ---------------------------------------------------------------------
                    Distance matrix (angstroms):
                    1          2          3          4          5
     1  C    0.000000
     2  C    1.528898   0.000000
     3  C    2.395283   1.358928   0.000000
     4  C    2.390634   2.248076   1.400501   0.000000
     5  C    3.643468   3.596742   2.555700   1.360709   0.000000
     6  S    4.030175   4.572434   3.886323   2.488623   1.689454
     7  C    2.613857   3.623110   3.480881   2.276641   2.511516
     8  C    1.479052   2.286411   2.275457   1.407964   2.351445
     9  C    3.285957   4.614909   4.751667   3.659598   3.897343
    10  N    3.334205   4.837222   5.314936   4.472616   4.988169
    11  C    4.735441   6.241020   6.684338   5.754805   6.093596
    12  C    5.498330   6.919329   7.115559   5.987664   6.015443
    13  S    4.885138   6.116093   6.031960   4.762280   4.549648
    14  C    6.906420   8.310835   8.441053   7.251030   7.120739
    15  N    7.643563   9.116957   9.398694   8.293063   8.291642
    16  C    8.963182  10.424478  10.656207   9.505729   9.403576
    17  C    9.750295  11.149204  11.226883   9.985273   9.695387
    18  C   11.180689  12.582037  12.650889  11.398036  11.066868
    19  C   12.092339  13.432429  13.377881  12.068880  11.592595
    20  C   13.498340  14.844685  14.790898  13.478681  12.983706
    21  C   14.189458  15.591000  15.639499  14.367552  13.969497
    22  C   13.411203  14.857119  15.012490  13.794778  13.518494
    23  C   13.977716  15.460672  15.720890  14.560407  14.387840
    24  O   13.089427  14.595269  14.949515  13.852767  13.793991
    25  C   11.835785  13.330024  13.642687  12.524489  12.441577
    26  C   11.996525  13.447744  13.625647  12.425463  12.195057
    27  C    9.152317  10.463183  10.390323   9.084729   8.650094
    28  N    9.903554  11.116855  10.890470   9.531221   8.916178
    29  S    9.105884  10.179873   9.792269   8.401684   7.636562
    30  N    7.566698   8.714063   8.441674   7.077964   6.480427
    31  C    7.713181   9.008678   8.934820   7.637136   7.249457
    32  H    1.094623   2.191361   3.131924   3.126831   4.303876
    33  H    1.094672   2.191985   3.132892   3.127983   4.305651
    34  H    2.296932   1.072954   2.161587   3.281673   4.606179
    35  H    3.441259   2.188954   1.074397   2.181312   2.957948
    36  H    4.610481   4.319979   3.087975   2.230410   1.075358
    37  H    5.330567   6.859230   7.456390   6.642642   7.090354
    38  H    9.494850  10.990481  11.328019  10.242439  10.239258
    39  H   11.830250  13.104812  12.946481  11.602634  11.023643
    40  H   14.111039  15.408797  15.269283  13.926776  13.337994
    41  H   15.264310  16.665305  16.707029  15.429634  15.012816
    42  H   15.005556  16.495585  16.776232  15.624705  15.461326
    43  H   11.092291  12.603272  12.996810  11.938783  11.958200
                    6          7          8          9         10
     6  S    0.000000
     7  C    1.768860   0.000000
     8  C    2.552477   1.337472   0.000000
     9  C    2.794413   1.420259   2.481696   0.000000
    10  N    4.072863   2.488357   3.108256   1.316857   0.000000
    11  C    4.911163   3.598953   4.440361   2.196844   1.403827
    12  C    4.566981   3.712127   4.845088   2.364056   2.333095
    13  S    2.992804   2.557100   3.863612   1.648580   2.529232
    14  C    5.548433   4.983094   6.187350   3.714591   3.732147
    15  N    6.776453   6.018565   7.123749   4.653678   4.325709
    16  C    7.822501   7.230916   8.386377   5.906087   5.656288
    17  C    8.040142   7.748362   8.996012   6.541349   6.541081
    18  C    9.397847   9.170801  10.425516   7.973762   7.955763
    19  C    9.904323   9.911968  11.212240   8.825781   8.974554
    20  C   11.294686  11.325938  12.626376  10.235932  10.357096
    21  C   12.286162  12.158995  13.425653  10.980868  10.950419
    22  C   11.858198  11.543090  12.761453  10.285866  10.112489
    23  C   12.757323  12.288038  13.450173  10.969623  10.646465
    24  O   12.211506  11.577234  12.674515  10.212403   9.759158
    25  C   10.852905  10.248188  11.367791   8.896676   8.502284
    26  C   10.550275  10.164690  11.367865   8.888767   8.693959
    27  C    6.967106   6.924976   8.230124   5.870620   6.144815
    28  N    7.232240   7.505590   8.840157   6.632208   7.109115
    29  S    5.988531   6.566823   7.896330   5.950936   6.699780
    30  N    4.792338   5.091809   6.429216   4.357960   5.072735
    31  C    5.578483   5.466804   6.771756   4.427716   4.795876
    32  H    4.530046   3.015169   2.137599   3.404192   3.211070
    33  H    4.533800   3.017149   2.138834   3.404038   3.211272
    34  H    5.644231   4.654557   3.326259   5.550179   5.609085
    35  H    4.522816   4.422860   3.301347   5.751037   6.375187
    36  H    2.401356   3.556055   3.400563   4.910341   6.042484
    37  H    5.975945   4.579878   5.276939   3.218143   2.170922
    38  H    8.704465   7.971079   9.054266   6.597556   6.164215
    39  H    9.338285   9.522815  10.846953   8.545989   8.851339
    40  H   11.654278  11.837950  13.158562  10.829085  11.057599
    41  H   13.327031  13.226942  14.496951  12.054503  12.022829
    42  H   13.831989  13.350968  14.503748  12.024803  11.671954
    43  H   10.424173   9.671404  10.725945   8.285623   7.770271
                   11         12         13         14         15
    11  C    0.000000
    12  C    1.377643   0.000000
    13  S    2.484867   1.648340   0.000000
    14  C    2.588213   1.414508   2.571661   0.000000
    15  N    2.963982   2.307618   3.784394   1.331614   0.000000
    16  C    4.302085   3.543164   4.855255   2.285672   1.338622
    17  C    5.282496   4.254675   5.224738   2.844205   2.473902
    18  C    6.670755   5.683311   6.636002   4.275387   3.773671
    19  C    7.767844   6.650838   7.355774   5.243253   4.992001
    20  C    9.123360   8.041162   8.769673   6.629003   6.280089
    21  C    9.641083   8.691471   9.611827   7.284904   6.698328
    22  C    8.755425   7.940640   9.040562   6.574197   5.794175
    23  C    9.254381   8.605845   9.854720   7.312054   6.348867
    24  O    8.356224   7.866564   9.246241   6.676292   5.567995
    25  C    7.104234   6.541631   7.893314   5.324840   4.254348
    26  C    7.335736   6.536238   7.685311   5.184987   4.375383
    27  C    5.072383   3.817293   4.369187   2.485822   2.826574
    28  N    6.175317   4.842757   5.020936   3.646134   4.161701
    29  S    6.052805   4.676660   4.305442   3.855523   4.795877
    30  N    4.466742   3.101271   2.709631   2.522945   3.697576
    31  C    3.860636   2.517843   2.910630   1.432702   2.409911
    32  H    4.547858   5.426547   5.008756   6.827485   7.473070
    33  H    4.544184   5.421727   5.004969   6.818713   7.447671
    34  H    7.001008   7.794801   7.102269   9.201554   9.930243
    35  H    7.734350   8.108472   6.940067   9.405530  10.404082
    36  H    7.104993   6.927971   5.388200   7.949236   9.167287
    37  H    1.086947   2.192362   3.541488   3.022270   2.904101
    38  H    4.767360   4.266373   5.716351   3.177886   1.964010
    39  H    7.748049   6.522980   6.991831   5.165024   5.190691
    40  H    9.881445   8.726282   9.297820   7.331443   7.126791
    41  H   10.708985   9.766237  10.677320   8.359696   7.760980
    42  H   10.274952   9.661615  10.926266   8.379416   7.392486
    43  H    6.369410   5.973684   7.437454   4.895229   3.695049
                   16         17         18         19         20
    16  C    0.000000
    17  C    1.401629   0.000000
    18  C    2.503740   1.432843   0.000000
    19  C    3.811978   2.522051   1.424860   0.000000
    20  C    5.027423   3.843252   2.527656   1.414482   0.000000
    21  C    5.372322   4.442151   3.009666   2.472417   1.399297
    22  C    4.461764   3.825387   2.482688   2.677822   2.302171
    23  C    5.072464   4.760718   3.586367   4.020650   3.619521
    24  O    4.407510   4.470458   3.629334   4.493854   4.490064
    25  C    3.061728   3.160642   2.537748   3.675840   4.077427
    26  C    3.045480   2.524812   1.403379   2.321088   2.744560
    27  C    2.359927   1.419536   2.498780   2.990913   4.402939
    28  N    3.663633   2.494359   3.031589   2.863820   4.156359
    29  S    4.717890   3.837421   4.621903   4.472744   5.709710
    30  N    4.040612   3.639759   4.821039   5.138728   6.513355
    31  C    2.699065   2.486844   3.819448   4.446672   5.859952
    32  H    8.801978   9.648960  11.066251  12.039666  13.431364
    33  H    8.766294   9.631488  11.049496  12.006633  13.401802
    34  H   11.253887  12.045414  13.476369  14.372915  15.781585
    35  H   11.643172  12.159755  13.575473  14.248253  15.657313
    36  H   10.223219  10.410783  11.746568  12.172049  13.540981
    37  H    4.188396   5.369393   6.670286   7.890347   9.183372
    38  H    1.076154   2.178560   2.800280   4.205726   5.228436
    39  H    4.186432   2.797612   2.193600   1.086912   2.094747
    40  H    5.930753   4.656592   3.465173   2.134934   1.089011
    41  H    6.430942   5.516811   4.084473   3.453649   2.175310
    42  H    6.130971   5.833131   4.629057   4.924786   4.298120
    43  H    2.727308   3.286823   3.126279   4.438914   5.035717
                   21         22         23         24         25
    21  C    0.000000
    22  C    1.386985   0.000000
    23  C    2.456409   1.365112   0.000000
    24  O    3.572611   2.231078   1.359389   0.000000
    25  C    3.572434   2.223694   2.187728   1.362581   0.000000
    26  C    2.504971   1.420017   2.242637   2.251289   1.378793
    27  C    5.319572   4.977946   6.047409   5.862878   4.566718
    28  N    5.328414   5.336177   6.565477   6.634959   5.440530
    29  S    6.935280   6.968256   8.184404   8.185284   6.938397
    30  N    7.563978   7.298783   8.360887   8.094444   6.758861
    31  C    6.739429   6.284641   7.243006   6.862994   5.510943
    32  H   14.060182  13.228317  13.732880  12.796816  11.569559
    33  H   14.043370  13.223959  13.743635  12.823961  11.601013
    34  H   16.485464  15.705327  16.254208  15.339190  14.102452
    35  H   16.548146  15.963482  16.705648  15.962172  14.646061
    36  H   14.589276  14.217988  15.143845  14.612207  13.253098
    37  H    9.547575   8.542734   8.888841   7.878997   6.709311
    38  H    5.296430   4.187895   4.529826   3.666887   2.411103
    39  H    3.390587   3.757752   5.106002   5.555136   4.654594
    40  H    2.166924   3.319585   4.576387   5.538147   5.165894
    41  H    1.074956   2.198342   2.838303   4.135395   4.413539
    42  H    2.967466   2.256198   1.075459   2.061380   3.175322
    43  H    4.635520   3.300848   3.157581   2.030941   1.080831
                   26         27         28         29         30
    26  C    0.000000
    27  C    3.810453   0.000000
    28  N    4.429917   1.348136   0.000000
    29  S    6.017331   2.438747   1.634431   0.000000
    30  N    6.119978   2.322854   2.454750   1.627061   0.000000
    31  C    5.009426   1.458617   2.325410   2.439867   1.351239
    32  H   11.811121   9.135135   9.951649   9.256233   7.690903
    33  H   11.811044   9.125856   9.948741   9.245511   7.680294
    34  H   14.289642  11.419649  12.118454  11.220702   9.734460
    35  H   14.587457  11.265321  11.688390  10.506854   9.233955
    36  H   12.928214   9.285064   9.416972   8.028793   7.034421
    37  H    7.136037   5.443822   6.663143   6.770370   5.251115
    38  H    2.825787   3.367776   4.617195   5.761653   5.104365
    39  H    3.341495   2.715527   2.131802   3.629557   4.550892
    40  H    3.829415   4.962062   4.427307   5.836878   6.868941
    41  H    3.497964   6.365773   6.289516   7.869130   8.582367
    42  H    3.311007   7.105552   7.570325   9.198086   9.423035
    43  H    2.296065   4.665430   5.728058   7.095407   6.667896
                   31         32         33         34         35
    31  C    0.000000
    32  H    7.725622   0.000000
    33  H    7.716781   1.793838   0.000000
    34  H    9.971910   2.715592   2.717125   0.000000
    35  H    9.818393   4.128355   4.130106   2.634016   0.000000
    36  H    7.933733   5.277510   5.279288   5.242905   3.125506
    37  H    4.428387   5.031820   5.026709   7.510427   8.523868
    38  H    3.761365   9.288662   9.220249  11.760536  12.342269
    39  H    4.123453  11.841258  11.792396  14.081403  13.768997
    40  H    6.405650  14.086652  14.048930  16.374844  16.093345
    41  H    7.796204  15.130970  15.115772  17.560349  17.610673
    42  H    8.316041  14.743264  14.758609  17.275137  17.765795
    43  H    5.351062  10.776637  10.840230  13.332090  14.021619
                   36         37         38         39         40
    36  H    0.000000
    37  H    8.121223   0.000000
    38  H   11.100040   4.412021   0.000000
    39  H   11.531213   8.017524   4.789929   0.000000
    40  H   13.822371  10.024831   6.225342   2.325690   0.000000
    41  H   15.615266  10.596341   6.303353   4.267516   2.532202
    42  H   16.218666   9.867836   5.540333   5.995647   5.131510
    43  H   12.820744   5.868090   1.871813   5.316872   6.118220
                   41         42         43
    41  H    0.000000
    42  H    2.961800   0.000000
    43  H    5.490372   4.052226   0.000000
 Stoichiometry    C23H12N4OS3
 Framework group  C1[X(C23H12N4OS3)]
 Deg. of freedom   123
 Full point group                 C1      NOp   1
 Largest Abelian subgroup         C1      NOp   1
 Largest concise Abelian subgroup C1      NOp   1
                         Standard orientation:                         
 ---------------------------------------------------------------------
 Center     Atomic      Atomic             Coordinates (Angstroms)
 Number     Number       Type             X           Y           Z
 ---------------------------------------------------------------------
      1          6           0       -6.408110   -2.053945    0.042571
      2          6           0       -7.893859   -1.693316    0.037534
      3          6           0       -8.090146   -0.349039    0.004780
      4          6           0       -6.846867    0.295382   -0.014746
      5          6           0       -6.424229    1.588327   -0.049415
      6         16           0       -4.734962    1.611070   -0.060181
      7          6           0       -4.614828   -0.153043   -0.011853
      8          6           0       -5.840190   -0.688747    0.006540
      9          6           0       -3.362075   -0.821989    0.004195
     10          7           0       -3.074333   -2.106688    0.033660
     11          6           0       -1.675931   -2.229682    0.042168
     12          6           0       -1.006844   -1.025705    0.016432
     13         16           0       -2.085174    0.220600   -0.014431
     14          6           0        0.346702   -0.614948    0.021331
     15          7           0        1.222420   -1.613706    0.115105
     16          6           0        2.522288   -1.299182    0.172807
     17          6           0        3.132412   -0.042380    0.059840
     18          6           0        4.550177    0.164945    0.060046
     19          6           0        5.165867    1.447073    0.145468
     20          6           0        6.557696    1.698990    0.134988
     21          6           0        7.515277    0.680910    0.067267
     22          6           0        6.920711   -0.570345   -0.000407
     23          6           0        7.566114   -1.770064   -0.087927
     24          8           0        6.659431   -2.779382   -0.172432
     25          6           0        5.424399   -2.204107   -0.191942
     26          6           0        5.526637   -0.839723   -0.021430
     27          6           0        2.207902    1.032553   -0.010021
     28          7           0        2.458841    2.355594   -0.073767
     29         16           0        1.045456    3.176053   -0.050190
     30          7           0        0.049134    1.889939   -0.026085
     31          6           0        0.776638    0.751404   -0.008187
     32          1           0       -6.119019   -2.631005   -0.841527
     33          1           0       -6.113720   -2.587775    0.951783
     34          1           0       -8.674069   -2.429631    0.056029
     35          1           0       -9.025120    0.180113   -0.007554
     36          1           0       -6.956654    2.522370   -0.071329
     37          1           0       -1.204153   -3.208528    0.069390
     38          1           0        3.079963   -2.197954    0.371085
     39          1           0        4.569471    2.352179    0.225919
     40          1           0        6.861594    2.743606    0.183650
     41          1           0        8.571514    0.880310    0.055779
     42          1           0        8.596468   -2.075713   -0.127433
     43          1           0        4.642273   -2.932674   -0.352144
 ---------------------------------------------------------------------
 Rotational constants (GHZ):      0.4036570      0.0490192      0.0437457
 Standard basis: 6-31++G(d,p) (6D, 7F)
 There are   673 symmetry adapted basis functions of A   symmetry.
 Integral buffers will be    131072 words long.
 Raffenetti 2 integral format.
 Two-electron integral symmetry is turned on.
   673 basis functions,  1160 primitive gaussians,   673 cartesian basis functions
   117 alpha electrons      117 beta electrons
       nuclear repulsion energy      3191.3871310374 Hartrees.
 NAtoms=   43 NActive=   43 NUniq=   43 SFac= 1.00D+00 NAtFMM=   60 NAOKFM=F Big=F
 One-electron integrals computed using PRISM.
 NBasis=   673 RedAO= T  NBF=   673
 NBsUse=   662 1.00D-06 NBFU=   662
 Harris functional with IExCor=  402 diagonalized for initial guess.
 ExpMin= 3.60D-02 ExpMax= 2.19D+04 ExpMxC= 3.30D+03 IAcc=3 IRadAn=         5 AccDes= 0.00D+00
 HarFok:  IExCor=  402 AccDes= 0.00D+00 IRadAn=         5 IDoV= 1
 ScaDFX=  1.000000  1.000000  1.000000  1.000000
 FoFCou: FMM=F IPFlag=           0 FMFlag=      100000 FMFlg1=           0
         NFxFlg=           0 DoJE=T BraDBF=F KetDBF=T FulRan=T
         Omega=  0.000000  0.000000  1.000000  0.000000  0.000000 ICntrl=     500 IOpCl=  0
         NMat0=    1 NMatS0=    1 NMatT0=    0 NMatD0=    1 NMtDS0=    0 NMtDT0=    0
         I1Cent=           4 NGrid=           0.
 Petite list used in FoFCou.
 Initial guess orbital symmetries:
       Occupied  (A) (A) (A) (A) (A) (A) (A) (A) (A) (A) (A) (A)
                 (A) (A) (A) (A) (A) (A) (A) (A) (A) (A) (A) (A)
                 (A) (A) (A) (A) (A) (A) (A) (A) (A) (A) (A) (A)
                 (A) (A) (A) (A) (A) (A) (A) (A) (A) (A) (A) (A)
                 (A) (A) (A) (A) (A) (A) (A) (A) (A) (A) (A) (A)
                 (A) (A) (A) (A) (A) (A) (A) (A) (A) (A) (A) (A)
                 (A) (A) (A) (A) (A) (A) (A) (A) (A) (A) (A) (A)
                 (A) (A) (A) (A) (A) (A) (A) (A) (A) (A) (A) (A)
                 (A) (A) (A) (A) (A) (A) (A) (A) (A) (A) (A) (A)
                 (A) (A) (A) (A) (A) (A) (A) (A) (A)
       Virtual   (A) (A) (A) (A) (A) (A) (A) (A) (A) (A) (A) (A)
                 (A) (A) (A) (A) (A) (A) (A) (A) (A) (A) (A) (A)
                 (A) (A) (A) (A) (A) (A) (A) (A) (A) (A) (A) (A)
                 (A) (A) (A) (A) (A) (A) (A) (A) (A) (A) (A) (A)
                 (A) (A) (A) (A) (A) (A) (A) (A) (A) (A) (A) (A)
                 (A) (A) (A) (A) (A) (A) (A) (A) (A) (A) (A) (A)
                 (A) (A) (A) (A) (A) (A) (A) (A) (A) (A) (A) (A)
                 (A) (A) (A) (A) (A) (A) (A) (A) (A) (A) (A) (A)
                 (A) (A) (A) (A) (A) (A) (A) (A) (A) (A) (A) (A)
                 (A) (A) (A) (A) (A) (A) (A) (A) (A) (A) (A) (A)
                 (A) (A) (A) (A) (A) (A) (A) (A) (A) (A) (A) (A)
                 (A) (A) (A) (A) (A) (A) (A) (A) (A) (A) (A) (A)
                 (A) (A) (A) (A) (A) (A) (A) (A) (A) (A) (A) (A)
                 (A) (A) (A) (A) (A) (A) (A) (A) (A) (A) (A) (A)
                 (A) (A) (A) (A) (A) (A) (A) (A) (A) (A) (A) (A)
                 (A) (A) (A) (A) (A) (A) (A) (A) (A) (A) (A) (A)
                 (A) (A) (A) (A) (A) (A) (A) (A) (A) (A) (A) (A)
                 (A) (A) (A) (A) (A) (A) (A) (A) (A) (A) (A) (A)
                 (A) (A) (A) (A) (A) (A) (A) (A) (A) (A) (A) (A)
                 (A) (A) (A) (A) (A) (A) (A) (A) (A) (A) (A) (A)
                 (A) (A) (A) (A) (A) (A) (A) (A) (A) (A) (A) (A)
                 (A) (A) (A) (A) (A) (A) (A) (A) (A) (A) (A) (A)
                 (A) (A) (A) (A) (A) (A) (A) (A) (A) (A) (A) (A)
                 (A) (A) (A) (A) (A) (A) (A) (A) (A) (A) (A) (A)
                 (A) (A) (A) (A) (A) (A) (A) (A) (A) (A) (A) (A)
                 (A) (A) (A) (A) (A) (A) (A) (A) (A) (A) (A) (A)
                 (A) (A) (A) (A) (A) (A) (A) (A) (A) (A) (A) (A)
                 (A) (A) (A) (A) (A) (A) (A) (A) (A) (A) (A) (A)
                 (A) (A) (A) (A) (A) (A) (A) (A) (A) (A) (A) (A)
                 (A) (A) (A) (A) (A) (A) (A) (A) (A) (A) (A) (A)
                 (A) (A) (A) (A) (A) (A) (A) (A) (A) (A) (A) (A)
                 (A) (A) (A) (A) (A) (A) (A) (A) (A) (A) (A) (A)
                 (A) (A) (A) (A) (A) (A) (A) (A) (A) (A) (A) (A)
                 (A) (A) (A) (A) (A) (A) (A) (A) (A) (A) (A) (A)
                 (A) (A) (A) (A) (A) (A) (A) (A) (A) (A) (A) (A)
                 (A) (A) (A) (A) (A) (A) (A) (A) (A) (A) (A) (A)
                 (A) (A) (A) (A) (A) (A) (A) (A) (A) (A) (A) (A)
                 (A) (A) (A) (A) (A) (A) (A) (A) (A) (A) (A) (A)
                 (A) (A) (A) (A) (A) (A) (A) (A) (A) (A) (A) (A)
                 (A) (A) (A) (A) (A) (A) (A) (A) (A) (A) (A) (A)
                 (A) (A) (A) (A) (A) (A) (A) (A) (A) (A) (A) (A)
                 (A) (A) (A) (A) (A) (A) (A) (A) (A) (A) (A) (A)
                 (A) (A) (A) (A) (A) (A) (A) (A) (A) (A) (A) (A)
                 (A) (A) (A) (A) (A) (A) (A) (A) (A) (A) (A) (A)
                 (A) (A) (A) (A) (A) (A) (A) (A) (A) (A) (A) (A)
                 (A) (A) (A) (A) (A)
 The electronic state of the initial guess is 1-A.
 Requested convergence on RMS density matrix=1.00D-08 within 128 cycles.
 Requested convergence on MAX density matrix=1.00D-06.
 Requested convergence on             energy=1.00D-06.
 No special actions if energy rises.
 EnCoef did     6 forward-backward iterations
 Restarting incremental Fock formation.
 SCF Done:  E(RB3LYP) =  -2372.38508397     A.U. after   26 cycles
             Convg  =    0.6224D-08             -V/T =  2.0057

 **********************************************************************

            Population analysis using the SCF density.

 **********************************************************************

 Orbital symmetries:
       Occupied  (A) (A) (A) (A) (A) (A) (A) (A) (A) (A) (A) (A)
                 (A) (A) (A) (A) (A) (A) (A) (A) (A) (A) (A) (A)
                 (A) (A) (A) (A) (A) (A) (A) (A) (A) (A) (A) (A)
                 (A) (A) (A) (A) (A) (A) (A) (A) (A) (A) (A) (A)
                 (A) (A) (A) (A) (A) (A) (A) (A) (A) (A) (A) (A)
                 (A) (A) (A) (A) (A) (A) (A) (A) (A) (A) (A) (A)
                 (A) (A) (A) (A) (A) (A) (A) (A) (A) (A) (A) (A)
                 (A) (A) (A) (A) (A) (A) (A) (A) (A) (A) (A) (A)
                 (A) (A) (A) (A) (A) (A) (A) (A) (A) (A) (A) (A)
                 (A) (A) (A) (A) (A) (A) (A) (A) (A)
       Virtual   (A) (A) (A) (A) (A) (A) (A) (A) (A) (A) (A) (A)
                 (A) (A) (A) (A) (A) (A) (A) (A) (A) (A) (A) (A)
                 (A) (A) (A) (A) (A) (A) (A) (A) (A) (A) (A) (A)
                 (A) (A) (A) (A) (A) (A) (A) (A) (A) (A) (A) (A)
                 (A) (A) (A) (A) (A) (A) (A) (A) (A) (A) (A) (A)
                 (A) (A) (A) (A) (A) (A) (A) (A) (A) (A) (A) (A)
                 (A) (A) (A) (A) (A) (A) (A) (A) (A) (A) (A) (A)
                 (A) (A) (A) (A) (A) (A) (A) (A) (A) (A) (A) (A)
                 (A) (A) (A) (A) (A) (A) (A) (A) (A) (A) (A) (A)
                 (A) (A) (A) (A) (A) (A) (A) (A) (A) (A) (A) (A)
                 (A) (A) (A) (A) (A) (A) (A) (A) (A) (A) (A) (A)
                 (A) (A) (A) (A) (A) (A) (A) (A) (A) (A) (A) (A)
                 (A) (A) (A) (A) (A) (A) (A) (A) (A) (A) (A) (A)
                 (A) (A) (A) (A) (A) (A) (A) (A) (A) (A) (A) (A)
                 (A) (A) (A) (A) (A) (A) (A) (A) (A) (A) (A) (A)
                 (A) (A) (A) (A) (A) (A) (A) (A) (A) (A) (A) (A)
                 (A) (A) (A) (A) (A) (A) (A) (A) (A) (A) (A) (A)
                 (A) (A) (A) (A) (A) (A) (A) (A) (A) (A) (A) (A)
                 (A) (A) (A) (A) (A) (A) (A) (A) (A) (A) (A) (A)
                 (A) (A) (A) (A) (A) (A) (A) (A) (A) (A) (A) (A)
                 (A) (A) (A) (A) (A) (A) (A) (A) (A) (A) (A) (A)
                 (A) (A) (A) (A) (A) (A) (A) (A) (A) (A) (A) (A)
                 (A) (A) (A) (A) (A) (A) (A) (A) (A) (A) (A) (A)
                 (A) (A) (A) (A) (A) (A) (A) (A) (A) (A) (A) (A)
                 (A) (A) (A) (A) (A) (A) (A) (A) (A) (A) (A) (A)
                 (A) (A) (A) (A) (A) (A) (A) (A) (A) (A) (A) (A)
                 (A) (A) (A) (A) (A) (A) (A) (A) (A) (A) (A) (A)
                 (A) (A) (A) (A) (A) (A) (A) (A) (A) (A) (A) (A)
                 (A) (A) (A) (A) (A) (A) (A) (A) (A) (A) (A) (A)
                 (A) (A) (A) (A) (A) (A) (A) (A) (A) (A) (A) (A)
                 (A) (A) (A) (A) (A) (A) (A) (A) (A) (A) (A) (A)
                 (A) (A) (A) (A) (A) (A) (A) (A) (A) (A) (A) (A)
                 (A) (A) (A) (A) (A) (A) (A) (A) (A) (A) (A) (A)
                 (A) (A) (A) (A) (A) (A) (A) (A) (A) (A) (A) (A)
                 (A) (A) (A) (A) (A) (A) (A) (A) (A) (A) (A) (A)
                 (A) (A) (A) (A) (A) (A) (A) (A) (A) (A) (A) (A)
                 (A) (A) (A) (A) (A) (A) (A) (A) (A) (A) (A) (A)
                 (A) (A) (A) (A) (A) (A) (A) (A) (A) (A) (A) (A)
                 (A) (A) (A) (A) (A) (A) (A) (A) (A) (A) (A) (A)
                 (A) (A) (A) (A) (A) (A) (A) (A) (A) (A) (A) (A)
                 (A) (A) (A) (A) (A) (A) (A) (A) (A) (A) (A) (A)
                 (A) (A) (A) (A) (A) (A) (A) (A) (A) (A) (A) (A)
                 (A) (A) (A) (A) (A) (A) (A) (A) (A) (A) (A) (A)
                 (A) (A) (A) (A) (A) (A) (A) (A) (A) (A) (A) (A)
                 (A) (A) (A) (A) (A) (A) (A) (A) (A) (A) (A) (A)
                 (A) (A) (A) (A) (A)
 The electronic state is 1-A.
 Alpha  occ. eigenvalues --  -89.00348 -88.91824 -88.91255 -19.24118 -14.39524
 Alpha  occ. eigenvalues --  -14.38704 -14.35550 -14.34906 -10.26889 -10.26724
 Alpha  occ. eigenvalues --  -10.26517 -10.25726 -10.24696 -10.24623 -10.23978
 Alpha  occ. eigenvalues --  -10.23690 -10.23094 -10.22835 -10.22746 -10.22156
 Alpha  occ. eigenvalues --  -10.22134 -10.21120 -10.20778 -10.20453 -10.20358
 Alpha  occ. eigenvalues --  -10.20355 -10.20115 -10.20063 -10.19914 -10.19566
 Alpha  occ. eigenvalues --  -10.19513  -8.05587  -7.97843  -7.97795  -6.02156
 Alpha  occ. eigenvalues --   -6.01558  -6.01358  -5.94291  -5.94166  -5.93878
 Alpha  occ. eigenvalues --   -5.93742  -5.93523  -5.93508  -1.13031  -1.04212
 Alpha  occ. eigenvalues --   -0.98742  -0.96918  -0.91845  -0.91223  -0.88415
 Alpha  occ. eigenvalues --   -0.84785  -0.84399  -0.83591  -0.80423  -0.79726
 Alpha  occ. eigenvalues --   -0.78524  -0.77125  -0.74754  -0.73198  -0.71619
 Alpha  occ. eigenvalues --   -0.69993  -0.68720  -0.65840  -0.65610  -0.63624
 Alpha  occ. eigenvalues --   -0.62168  -0.61160  -0.59942  -0.58465  -0.57645
 Alpha  occ. eigenvalues --   -0.55860  -0.54984  -0.53869  -0.53143  -0.52122
 Alpha  occ. eigenvalues --   -0.50774  -0.50521  -0.48702  -0.47974  -0.47313
 Alpha  occ. eigenvalues --   -0.47178  -0.46865  -0.46161  -0.45653  -0.44689
 Alpha  occ. eigenvalues --   -0.43978  -0.43556  -0.43485  -0.42455  -0.41701
 Alpha  occ. eigenvalues --   -0.41135  -0.40575  -0.40254  -0.39160  -0.39001
 Alpha  occ. eigenvalues --   -0.38396  -0.38129  -0.37838  -0.37418  -0.36994
 Alpha  occ. eigenvalues --   -0.36672  -0.35577  -0.33740  -0.33086  -0.32030
 Alpha  occ. eigenvalues --   -0.31231  -0.31185  -0.30379  -0.29610  -0.28917
 Alpha  occ. eigenvalues --   -0.28094  -0.28002  -0.27339  -0.25875  -0.23272
 Alpha  occ. eigenvalues --   -0.21216  -0.19583
 Alpha virt. eigenvalues --   -0.12389  -0.07046  -0.06001  -0.03316  -0.02716
 Alpha virt. eigenvalues --   -0.02431  -0.01610  -0.00878  -0.00536  -0.00330
 Alpha virt. eigenvalues --    0.00207   0.00549   0.00863   0.00966   0.01517
 Alpha virt. eigenvalues --    0.01636   0.01715   0.01835   0.02592   0.02877
 Alpha virt. eigenvalues --    0.03299   0.03583   0.03797   0.04052   0.04266
 Alpha virt. eigenvalues --    0.04649   0.04955   0.05029   0.05320   0.05533
 Alpha virt. eigenvalues --    0.05779   0.06315   0.06837   0.07032   0.07370
 Alpha virt. eigenvalues --    0.07565   0.08199   0.08446   0.08817   0.08876
 Alpha virt. eigenvalues --    0.09236   0.09544   0.09598   0.09670   0.10241
 Alpha virt. eigenvalues --    0.10661   0.10871   0.11145   0.11263   0.11445
 Alpha virt. eigenvalues --    0.11475   0.11804   0.11966   0.12144   0.12467
 Alpha virt. eigenvalues --    0.12716   0.12802   0.12866   0.13094   0.13171
 Alpha virt. eigenvalues --    0.13356   0.13422   0.13529   0.13883   0.14103
 Alpha virt. eigenvalues --    0.14264   0.14685   0.14779   0.15041   0.15251
 Alpha virt. eigenvalues --    0.15780   0.15941   0.16020   0.16131   0.16261
 Alpha virt. eigenvalues --    0.16471   0.16581   0.16736   0.16818   0.17254
 Alpha virt. eigenvalues --    0.17482   0.17797   0.18162   0.18210   0.18411
 Alpha virt. eigenvalues --    0.18617   0.18932   0.19269   0.19372   0.19617
 Alpha virt. eigenvalues --    0.19703   0.20040   0.20526   0.20857   0.21044
 Alpha virt. eigenvalues --    0.21269   0.21488   0.21879   0.22147   0.22185
 Alpha virt. eigenvalues --    0.22200   0.22512   0.22907   0.23100   0.23220
 Alpha virt. eigenvalues --    0.23651   0.23885   0.24072   0.24139   0.24516
 Alpha virt. eigenvalues --    0.24549   0.24777   0.24911   0.25618   0.25993
 Alpha virt. eigenvalues --    0.26273   0.26295   0.26585   0.26977   0.27173
 Alpha virt. eigenvalues --    0.27311   0.27861   0.27939   0.28171   0.28412
 Alpha virt. eigenvalues --    0.28649   0.28688   0.28988   0.29152   0.29523
 Alpha virt. eigenvalues --    0.29840   0.30030   0.30366   0.30614   0.30793
 Alpha virt. eigenvalues --    0.30954   0.31327   0.31824   0.32089   0.32270
 Alpha virt. eigenvalues --    0.32590   0.32693   0.32866   0.33395   0.33566
 Alpha virt. eigenvalues --    0.33942   0.34249   0.34786   0.35026   0.35250
 Alpha virt. eigenvalues --    0.35858   0.36205   0.36769   0.37129   0.37426
 Alpha virt. eigenvalues --    0.37595   0.38012   0.38235   0.38705   0.39101
 Alpha virt. eigenvalues --    0.39255   0.40036   0.40278   0.40583   0.41016
 Alpha virt. eigenvalues --    0.41543   0.41771   0.42717   0.42879   0.43579
 Alpha virt. eigenvalues --    0.43994   0.45208   0.45908   0.46068   0.46667
 Alpha virt. eigenvalues --    0.47108   0.48108   0.48844   0.49000   0.50250
 Alpha virt. eigenvalues --    0.50932   0.51480   0.52147   0.53568   0.54399
 Alpha virt. eigenvalues --    0.54875   0.55636   0.57095   0.58183   0.59039
 Alpha virt. eigenvalues --    0.60228   0.61795   0.62493   0.63843   0.64552
 Alpha virt. eigenvalues --    0.65028   0.65384   0.65913   0.66391   0.66589
 Alpha virt. eigenvalues --    0.67295   0.67526   0.68091   0.68205   0.68626
 Alpha virt. eigenvalues --    0.68762   0.69361   0.70086   0.70507   0.70790
 Alpha virt. eigenvalues --    0.71136   0.71629   0.71963   0.72547   0.72852
 Alpha virt. eigenvalues --    0.73254   0.73628   0.74295   0.74611   0.75087
 Alpha virt. eigenvalues --    0.75568   0.75803   0.75981   0.76747   0.77721
 Alpha virt. eigenvalues --    0.78100   0.78432   0.78630   0.79686   0.79972
 Alpha virt. eigenvalues --    0.80409   0.80677   0.81061   0.81547   0.81796
 Alpha virt. eigenvalues --    0.82172   0.82643   0.82995   0.85106   0.85687
 Alpha virt. eigenvalues --    0.86203   0.86492   0.87897   0.88525   0.89499
 Alpha virt. eigenvalues --    0.90277   0.90650   0.92030   0.93114   0.93373
 Alpha virt. eigenvalues --    0.93971   0.94789   0.95211   0.95440   0.95509
 Alpha virt. eigenvalues --    0.96466   0.96893   0.97432   0.98118   0.98839
 Alpha virt. eigenvalues --    0.99564   0.99982   1.00316   1.00849   1.01029
 Alpha virt. eigenvalues --    1.01538   1.01972   1.03019   1.03333   1.04529
 Alpha virt. eigenvalues --    1.05438   1.06364   1.07505   1.07658   1.08776
 Alpha virt. eigenvalues --    1.08972   1.09480   1.10389   1.10968   1.11180
 Alpha virt. eigenvalues --    1.11892   1.12154   1.13073   1.13558   1.13827
 Alpha virt. eigenvalues --    1.14859   1.15263   1.16219   1.16618   1.16926
 Alpha virt. eigenvalues --    1.18014   1.19111   1.19839   1.20482   1.20573
 Alpha virt. eigenvalues --    1.20871   1.21688   1.22663   1.22821   1.23183
 Alpha virt. eigenvalues --    1.24005   1.24410   1.25357   1.26115   1.26719
 Alpha virt. eigenvalues --    1.27103   1.27502   1.28008   1.28577   1.28920
 Alpha virt. eigenvalues --    1.29436   1.29975   1.30200   1.30245   1.32241
 Alpha virt. eigenvalues --    1.33060   1.33281   1.33886   1.33964   1.34546
 Alpha virt. eigenvalues --    1.35031   1.35725   1.36706   1.38018   1.38475
 Alpha virt. eigenvalues --    1.38695   1.39042   1.39594   1.40165   1.40903
 Alpha virt. eigenvalues --    1.41884   1.42931   1.43280   1.43897   1.44603
 Alpha virt. eigenvalues --    1.45649   1.46031   1.47675   1.49536   1.49884
 Alpha virt. eigenvalues --    1.50095   1.50777   1.52901   1.53609   1.55208
 Alpha virt. eigenvalues --    1.56527   1.57764   1.59554   1.63245   1.64555
 Alpha virt. eigenvalues --    1.65260   1.66107   1.68387   1.69826   1.70385
 Alpha virt. eigenvalues --    1.71956   1.73722   1.74395   1.74625   1.74750
 Alpha virt. eigenvalues --    1.76005   1.76284   1.77252   1.78708   1.80187
 Alpha virt. eigenvalues --    1.80668   1.80747   1.81258   1.81659   1.83358
 Alpha virt. eigenvalues --    1.83477   1.84855   1.85502   1.86718   1.87164
 Alpha virt. eigenvalues --    1.87889   1.89806   1.89961   1.91178   1.91466
 Alpha virt. eigenvalues --    1.91859   1.93535   1.94691   1.95460   1.96019
 Alpha virt. eigenvalues --    1.97983   1.98314   1.98873   1.98987   2.00207
 Alpha virt. eigenvalues --    2.02654   2.03426   2.04298   2.05266   2.06989
 Alpha virt. eigenvalues --    2.07276   2.07457   2.08413   2.09075   2.10242
 Alpha virt. eigenvalues --    2.12523   2.14640   2.14938   2.15195   2.16375
 Alpha virt. eigenvalues --    2.16847   2.17447   2.17533   2.20065   2.21204
 Alpha virt. eigenvalues --    2.22604   2.23580   2.24021   2.24278   2.27180
 Alpha virt. eigenvalues --    2.28123   2.29327   2.30416   2.31127   2.31637
 Alpha virt. eigenvalues --    2.31900   2.32984   2.34049   2.35091   2.36692
 Alpha virt. eigenvalues --    2.37439   2.37774   2.38353   2.38963   2.39618
 Alpha virt. eigenvalues --    2.39991   2.40718   2.41253   2.43902   2.44385
 Alpha virt. eigenvalues --    2.44469   2.45580   2.46291   2.46850   2.47435
 Alpha virt. eigenvalues --    2.48351   2.48855   2.49107   2.51297   2.51776
 Alpha virt. eigenvalues --    2.52047   2.53020   2.53220   2.54778   2.55802
 Alpha virt. eigenvalues --    2.57148   2.58876   2.59076   2.60130   2.60473
 Alpha virt. eigenvalues --    2.63428   2.63714   2.64211   2.65395   2.65879
 Alpha virt. eigenvalues --    2.66650   2.67049   2.68348   2.69016   2.69235
 Alpha virt. eigenvalues --    2.70462   2.71464   2.71813   2.72809   2.73188
 Alpha virt. eigenvalues --    2.75577   2.77025   2.78185   2.78669   2.80693
 Alpha virt. eigenvalues --    2.80848   2.81674   2.83432   2.84838   2.85335
 Alpha virt. eigenvalues --    2.89792   2.90861   2.92291   2.94078   2.96212
 Alpha virt. eigenvalues --    2.96785   2.98194   2.99872   3.02662   3.04120
 Alpha virt. eigenvalues --    3.06903   3.08259   3.09048   3.14506   3.15949
 Alpha virt. eigenvalues --    3.17015   3.18273   3.24817   3.27038   3.27876
 Alpha virt. eigenvalues --    3.33996   3.34812   3.35002   3.39135   3.40742
 Alpha virt. eigenvalues --    3.46512   3.47519   3.53529   3.56869   3.58614
 Alpha virt. eigenvalues --    3.63752   3.68576   3.73454   3.81826   3.96040
 Alpha virt. eigenvalues --    3.99158   4.05025   4.16885   4.25816   4.30069
 Alpha virt. eigenvalues --    4.31307   4.32346   4.33140   4.34221   4.34411
 Alpha virt. eigenvalues --    4.35662   4.37163   4.37415   4.40640   4.41115
 Alpha virt. eigenvalues --    4.43829   4.44739   4.47679   4.48683   4.55089
 Alpha virt. eigenvalues --    4.56173   4.59697   4.64379   4.66052   4.68622
 Alpha virt. eigenvalues --    4.72698   4.79093   4.81087   4.84072   4.97521
          Condensed to atoms (all electrons):
              1          2          3          4          5          6
     1  C    9.534024  -1.194595   0.436454  -2.533838   1.354496  -0.013384
     2  C   -1.194595   6.534786   0.193262   1.059980  -0.935497   0.103307
     3  C    0.436454   0.193262   9.912180   0.464295  -0.153886   0.385435
     4  C   -2.533838   1.059980   0.464295  19.558514  -8.499393   1.635543
     5  C    1.354496  -0.935497  -0.153886  -8.499393  12.660999  -1.122191
     6  S   -0.013384   0.103307   0.385435   1.635543  -1.122191  16.978061
     7  C    0.937833  -0.478039  -1.518686  -4.038067   1.596187  -0.601487
     8  C   -3.088615   0.531160  -2.568155   2.231398  -1.317231   0.041323
     9  C    0.026834   0.082881  -0.610296  -0.781604   0.587258  -0.361338
    10  N    0.006867   0.028996  -0.024173  -0.171216   0.045314  -0.066398
    11  C    0.274486   0.048448  -0.103311  -0.334892   0.207626   0.430138
    12  C   -0.237949   0.018999  -0.073506   0.109822   0.067919  -0.046515
    13  S    0.255497  -0.022579  -0.183534  -1.858505   0.937930  -0.958893
    14  C   -0.015528  -0.009425   0.020372   0.033536  -0.052398  -0.214249
    15  N   -0.000107   0.000110  -0.000147  -0.000581  -0.000111   0.002979
    16  C   -0.003023  -0.000447   0.000820   0.006041  -0.004661  -0.019229
    17  C    0.001675   0.000131  -0.000411  -0.005961   0.005123   0.011168
    18  C    0.000081   0.000013  -0.000031  -0.000332   0.000270   0.001164
    19  C    0.000002   0.000001  -0.000006  -0.000102   0.000144   0.000551
    20  C   -0.000000   0.000000  -0.000000  -0.000006   0.000009   0.000072
    21  C    0.000000  -0.000000   0.000000  -0.000000   0.000000   0.000001
    22  C   -0.000001  -0.000000   0.000000   0.000002  -0.000001  -0.000024
    23  C   -0.000000  -0.000000   0.000000   0.000000  -0.000000  -0.000002
    24  O   -0.000000   0.000000  -0.000000   0.000000  -0.000000   0.000000
    25  C   -0.000003   0.000001  -0.000001  -0.000001   0.000005   0.000063
    26  C   -0.000004  -0.000002   0.000002   0.000001   0.000007  -0.000141
    27  C    0.000661   0.000481  -0.001604  -0.007405   0.007278   0.032925
    28  N   -0.000084  -0.000008   0.000024   0.000418  -0.000330  -0.003771
    29  S   -0.000210   0.000010  -0.000194  -0.000283  -0.001021   0.000036
    30  N    0.001858   0.000075  -0.001133  -0.011644   0.002188  -0.023655
    31  C   -0.045397   0.000683   0.003124   0.102694  -0.030579  -0.046183
    32  H    0.468345  -0.063104  -0.003578  -0.013182   0.036351  -0.002461
    33  H    0.466865  -0.079159   0.027334  -0.013434   0.029579  -0.003144
    34  H   -0.155615   0.428767  -0.040027   0.088151  -0.069558   0.006315
    35  H    0.057647  -0.147819   0.278973   0.088877  -0.082285  -0.002840
    36  H    0.003003  -0.001389  -0.139925  -0.076512   0.377311  -0.049412
    37  H   -0.001576  -0.000129   0.000784   0.007944  -0.000101   0.004784
    38  H   -0.000175  -0.000022   0.000040   0.000224  -0.000132  -0.000549
    39  H    0.000003   0.000000  -0.000001  -0.000011   0.000008   0.000085
    40  H   -0.000000   0.000000  -0.000000   0.000000  -0.000000  -0.000000
    41  H    0.000000   0.000000   0.000000  -0.000000   0.000000   0.000000
    42  H   -0.000000  -0.000000   0.000000   0.000000   0.000000  -0.000000
    43  H    0.000006   0.000001  -0.000002  -0.000005   0.000004   0.000045
              7          8          9         10         11         12
     1  C    0.937833  -3.088615   0.026834   0.006867   0.274486  -0.237949
     2  C   -0.478039   0.531160   0.082881   0.028996   0.048448   0.018999
     3  C   -1.518686  -2.568155  -0.610296  -0.024173  -0.103311  -0.073506
     4  C   -4.038067   2.231398  -0.781604  -0.171216  -0.334892   0.109822
     5  C    1.596187  -1.317231   0.587258   0.045314   0.207626   0.067919
     6  S   -0.601487   0.041323  -0.361338  -0.066398   0.430138  -0.046515
     7  C    9.324289  -0.037390   1.518191  -0.279431   0.383419  -0.468453
     8  C   -0.037390  12.620791   0.220636  -0.162561  -0.733967  -0.619754
     9  C    1.518191   0.220636  12.785089  -0.072901  -2.740588  -2.618963
    10  N   -0.279431  -0.162561  -0.072901   7.198008  -0.367823   0.620148
    11  C    0.383419  -0.733967  -2.740588  -0.367823  18.463640  -6.115487
    12  C   -0.468453  -0.619754  -2.618963   0.620148  -6.115487  18.723665
    13  S   -0.732242  -1.563459  -2.965794   0.573890  -0.793597   1.315768
    14  C    0.110800   0.116692   0.488624  -0.005634  -1.875551   2.841127
    15  N   -0.000922  -0.001862   0.018903  -0.000908  -0.178728  -0.155461
    16  C    0.014405   0.018928   0.432933  -0.028466  -1.436736  -0.830042
    17  C   -0.057354  -0.009996  -0.237000   0.018639   1.004474   0.874634
    18  C   -0.003384  -0.001577  -0.079587   0.001843   0.188952   0.065062
    19  C   -0.004566  -0.000429  -0.028522   0.000521   0.042809  -0.135188
    20  C   -0.000485  -0.000031  -0.004510   0.000030   0.006867  -0.069367
    21  C    0.000002   0.000003   0.000678   0.000003   0.000414   0.025835
    22  C    0.000046  -0.000008  -0.000453  -0.000014  -0.011585  -0.021561
    23  C   -0.000004  -0.000001  -0.000174  -0.000001  -0.002438  -0.003729
    24  O   -0.000000  -0.000000  -0.000007  -0.000000   0.000019  -0.000330
    25  C   -0.000576  -0.000053  -0.010418   0.000088   0.038355  -0.203649
    26  C   -0.000290  -0.000068   0.004243  -0.000090  -0.060159   0.135387
    27  C   -0.063697  -0.016047  -0.153976   0.001384   0.361262  -1.160053
    28  N   -0.000444  -0.000175  -0.002422  -0.000266  -0.060097  -0.074129
    29  S   -0.005015  -0.003335  -0.059387   0.002469  -0.055374  -0.053949
    30  N    0.007028  -0.017848  -0.040964   0.013269  -0.127372  -0.051100
    31  C   -0.266542   0.063274   0.631788  -0.138174  -1.620012  -4.139051
    32  H    0.010805  -0.154621   0.028358  -0.006480   0.006784   0.000967
    33  H    0.004224  -0.128161   0.018737  -0.006319  -0.005917  -0.006194
    34  H   -0.032064   0.062854  -0.005419   0.000310   0.000561   0.000868
    35  H    0.043505   0.052244  -0.016969   0.000289  -0.001448  -0.002091
    36  H    0.064652   0.077206   0.009526   0.000430   0.004800   0.003428
    37  H    0.013907   0.015616   0.038359  -0.118205   0.814629  -0.456782
    38  H    0.000797   0.001138   0.027285  -0.001643  -0.094544   0.019468
    39  H   -0.000024   0.000001  -0.000570   0.000032   0.005656   0.012244
    40  H   -0.000002  -0.000000  -0.000028  -0.000000  -0.000048  -0.000968
    41  H    0.000000   0.000000   0.000007   0.000000   0.000009   0.000325
    42  H   -0.000000  -0.000000  -0.000002  -0.000000  -0.000007  -0.000163
    43  H   -0.000056  -0.000071  -0.003901   0.000120   0.012920  -0.032342
             13         14         15         16         17         18
     1  C    0.255497  -0.015528  -0.000107  -0.003023   0.001675   0.000081
     2  C   -0.022579  -0.009425   0.000110  -0.000447   0.000131   0.000013
     3  C   -0.183534   0.020372  -0.000147   0.000820  -0.000411  -0.000031
     4  C   -1.858505   0.033536  -0.000581   0.006041  -0.005961  -0.000332
     5  C    0.937930  -0.052398  -0.000111  -0.004661   0.005123   0.000270
     6  S   -0.958893  -0.214249   0.002979  -0.019229   0.011168   0.001164
     7  C   -0.732242   0.110800  -0.000922   0.014405  -0.057354  -0.003384
     8  C   -1.563459   0.116692  -0.001862   0.018928  -0.009996  -0.001577
     9  C   -2.965794   0.488624   0.018903   0.432933  -0.237000  -0.079587
    10  N    0.573890  -0.005634  -0.000908  -0.028466   0.018639   0.001843
    11  C   -0.793597  -1.875551  -0.178728  -1.436736   1.004474   0.188952
    12  C    1.315768   2.841127  -0.155461  -0.830042   0.874634   0.065062
    13  S   23.366021   1.013011   0.117657  -0.144374  -0.285003   0.003269
    14  C    1.013011  22.236375  -0.225473  -2.821055   0.077223   1.299339
    15  N    0.117657  -0.225473   7.213509  -0.214441   0.287020   0.047372
    16  C   -0.144374  -2.821055  -0.214441  13.516513  -4.589193  -2.445576
    17  C   -0.285003   0.077223   0.287020  -4.589193  12.225785   2.474070
    18  C    0.003269   1.299339   0.047372  -2.445576   2.474070  10.195149
    19  C   -0.120089  -1.212152   0.075755  -1.374601   0.451966   1.709870
    20  C   -0.036475  -0.756245   0.012535  -0.170763  -1.704523  -3.910888
    21  C    0.002338   0.075360  -0.002483  -0.072800   0.161181   1.023646
    22  C    0.001665  -0.038365   0.009513   0.465967  -0.236128  -1.748544
    23  C   -0.000724  -0.004564   0.005106  -0.079837   0.020851  -0.969539
    24  O    0.000001   0.001794  -0.000840   0.009630   0.001525   0.002569
    25  C   -0.031630  -0.564040  -0.011617  -0.785736  -0.789555   0.770035
    26  C   -0.008254   0.034795  -0.019875   0.927916  -0.392531  -1.019299
    27  C   -0.479259  -6.410616   0.033395   2.178393  -0.571018  -1.489416
    28  N   -0.032832   0.253105  -0.006232   0.024952  -0.155719   0.020039
    29  S    0.137286   0.011905   0.016968   0.073925  -0.126505  -0.056970
    30  N    0.198296  -0.331021   0.026059   0.108828  -0.043686  -0.056490
    31  C   -2.430035  -7.897062   0.184056   2.583545  -1.453934  -0.044837
    32  H   -0.009318  -0.002698   0.000017  -0.000407   0.000006   0.000001
    33  H   -0.008002   0.001740   0.000036   0.000524  -0.000039  -0.000008
    34  H   -0.000315  -0.000082   0.000000  -0.000005   0.000001   0.000000
    35  H   -0.000309   0.000308  -0.000001   0.000006  -0.000002  -0.000000
    36  H    0.012939  -0.001573   0.000002  -0.000082   0.000119   0.000005
    37  H   -0.050457  -0.076600  -0.015159  -0.017165   0.014010   0.003307
    38  H   -0.003677  -0.085874  -0.109819   0.919364  -0.553424  -0.302670
    39  H   -0.000304   0.016912  -0.001552  -0.068038  -0.038506  -0.111833
    40  H   -0.000175  -0.007252   0.000071   0.009501   0.001570  -0.022306
    41  H    0.000040   0.001363  -0.000077  -0.002675   0.007994   0.106527
    42  H   -0.000039  -0.001067   0.000134  -0.000823  -0.010566  -0.006003
    43  H   -0.000554   0.012911  -0.005132  -0.145491   0.066630   0.081554
             19         20         21         22         23         24
     1  C    0.000002  -0.000000   0.000000  -0.000001  -0.000000  -0.000000
     2  C    0.000001   0.000000  -0.000000  -0.000000  -0.000000   0.000000
     3  C   -0.000006  -0.000000   0.000000   0.000000   0.000000  -0.000000
     4  C   -0.000102  -0.000006  -0.000000   0.000002   0.000000   0.000000
     5  C    0.000144   0.000009   0.000000  -0.000001  -0.000000  -0.000000
     6  S    0.000551   0.000072   0.000001  -0.000024  -0.000002   0.000000
     7  C   -0.004566  -0.000485   0.000002   0.000046  -0.000004  -0.000000
     8  C   -0.000429  -0.000031   0.000003  -0.000008  -0.000001  -0.000000
     9  C   -0.028522  -0.004510   0.000678  -0.000453  -0.000174  -0.000007
    10  N    0.000521   0.000030   0.000003  -0.000014  -0.000001  -0.000000
    11  C    0.042809   0.006867   0.000414  -0.011585  -0.002438   0.000019
[...]
 334015,0.00392091,0.00157763,-0.00031914,0.00334696,-0.00001908,0.0001
 9187,-0.00034173,-0.00005973,0.00009348,-0.00007359,-0.00033244,-0.000
 00736,-0.00133001,0.00006561,-0.00059891,0.00109064,0.00482543,-0.0017
 6348,0.00619099,0.00164815,-0.00005948,-0.00007219,0.00041211,-0.00009
 965,0.00020759,-0.00019986,0.00114245,0.00002126,-0.00071570,-0.000566
 39,-0.00020162,-0.00025673,0.00006765,0.00030035,-0.00000029,0.0000017
 2,-0.00000034,-0.00000124,0.00000183,-0.00000001,-0.00000441,-0.000000
 41,-0.00000002,-0.00000339,-0.00000198,0.00000054,-0.00000154,0.000000
 07,0.00000049,0.00000151,0.00000054,0.00001654,-0.00008930,0.00002680,
 -0.00006605,-0.02866346,0.10127832,0.06348175,0.00000523,0.00000538,0.
 00000089,-0.00000348,0.00000688,-0.00000245,0.00000880,-0.00000199,0.0
 0000090,0.00001826,-0.00002782,0.00000799,-0.00003449,-0.00002884,0.00
 000003,-0.00000609,0.00001828,-0.00000353,-0.00005416,-0.00001201,-0.0
 0000652,0.00003938,-0.00000933,0.00000610,-0.00002890,0.00007565,-0.00
 001829,-0.00001918,-0.00013183,0.00002234,0.00008618,0.00002362,0.0000
 0295,-0.00010398,-0.00000619,-0.00000499,-0.00000982,0.00003771,-0.000
 00237,0.00009983,0.00007388,0.00000739,-0.00007751,-0.00006729,-0.0000
 7114,-0.00018180,-0.00025624,0.00007111,-0.00040849,0.00083403,0.00039
 226,-0.00092236,-0.00406897,0.00071422,-0.01553032,0.00828504,0.009274
 61,-0.26615346,0.06816320,0.10747683,0.00046917,-0.00075227,0.00105377
 ,0.00258465,-0.00072674,0.00238379,-0.00007029,-0.00014212,0.00042492,
 0.00001558,0.00048460,-0.00036454,0.00004101,-0.00015329,-0.00015440,0
 .00024711,-0.00040778,-0.00034305,-0.00006658,0.00008408,-0.00007984,0
 .00007716,0.00000193,-0.00000616,0.00002232,-0.00004601,0.00003012,-0.
 00003181,-0.00005994,-0.00001439,-0.00005499,-0.00001379,-0.00000649,-
 0.00000100,0.00000233,-0.00000087,-0.00000143,0.00000269,-0.00000030,-
 0.00000424,-0.00000033,-0.00000007,-0.00000363,-0.00000232,0.00000041,
 -0.00000166,0.00000071,0.00000018,0.00000950,-0.00000398,0.00000273,0.
 00000505,0.00000380,0.00001904,0.00053585,0.00010474,-0.00101317,0.279
 40072,0.00000044,0.00000028,-0.00000017,0.00000032,0.00000016,0.000000
 15,0.00000025,-0.00000033,0.00000011,0.00000160,-0.00000263,0.00000051
 ,-0.00000406,-0.00000290,0.00000009,0.00000026,0.00000145,-0.00000026,
 -0.00000350,-0.00000034,-0.00000063,0.00000326,-0.00000014,0.00000051,
 -0.00001457,0.00000645,-0.00000253,0.00000161,-0.00001969,0.00000575,0
 .00001264,0.00000259,-0.00000115,-0.00001728,-0.00000267,0.00001267,-0
 .00000260,0.00000390,0.00000041,-0.00000934,0.00005295,-0.00001486,-0.
 00010804,-0.00004131,-0.00005546,-0.00011005,-0.00027747,0.00008554,-0
 .00079570,0.00061479,0.00034181,-0.00316313,-0.00271138,-0.00072626,-0
 .01972240,0.00883569,0.00962807,0.06756164,-0.08011092,-0.03827487,0.0
 2749552,-0.00437538,-0.01278840,-0.00131916,-0.00523603,-0.00362524,0.
 00078481,0.00102161,-0.00028666,0.00077142,-0.00055815,-0.00013837,-0.
 00015157,0.00013431,0.00014451,-0.00009241,-0.00076440,-0.00006711,-0.
 00004203,0.00011289,-0.00006643,0.00007105,-0.00001916,-0.00000710,-0.
 00001667,-0.00005943,0.00002334,0.00000655,-0.00000473,-0.00000315,0.0
 0002148,-0.00002056,-0.00001086,-0.00000017,0.00000015,-0.00000003,-0.
 00000015,0.00000012,-0.00000007,-0.00000021,-0.00000008,-0.00000011,-0
 .00000009,-0.00000002,-0.00000008,-0.00000016,0.00000015,-0.00000008,0
 .00000215,-0.00000163,-0.00000204,-0.00001238,0.00000475,-0.00000676,0
 .00061073,0.00071142,0.00060583,-0.07212634,0.08211339,-0.00000078,-0.
 00000141,0.00000098,-0.00000018,-0.00000119,-0.00000016,-0.00000139,0.
 00000030,-0.00000043,-0.00000322,0.00000755,-0.00000176,0.00000694,0.0
 0000411,-0.00000063,0.00000131,-0.00000324,0.00000117,0.00001439,0.000
 00622,-0.00000058,-0.00001013,-0.00000047,-0.00000123,-0.00000012,-0.0
 0002274,0.00000166,0.00000331,0.00003359,-0.00000511,-0.00003400,-0.00
 000399,-0.00000321,0.00005585,0.00002073,0.00000466,0.00000790,-0.0000
 0743,0.00000684,-0.00000314,-0.00012769,0.00002536,0.00010373,0.000194
 19,-0.00002546,-0.00016612,0.00001676,-0.00012689,0.00037193,0.0000530
 2,0.00019039,0.00061719,-0.00069202,0.00359293,0.00132910,-0.00140832,
 0.00132298,0.10726120,-0.03865083,-0.08815277,0.00889251,-0.00177118,-
 0.00027207,0.00233632,-0.00379194,0.00725743,0.00059749,-0.00007953,0.
 00092899,-0.00032108,0.00018087,-0.00119013,-0.00003953,0.00007986,-0.
 00013995,-0.00024253,0.00021236,-0.00010425,0.00007339,-0.00013877,0.0
 0000152,-0.00005941,0.00008130,-0.00005674,0.00004862,0.00002938,0.000
 00320,0.00001060,0.00002050,-0.00000928,-0.00003761,0.00001502,-0.0000
 0738,0.00000005,-0.00000048,0.00000054,0.00000006,-0.00000031,-0.00000
 048,0.00000047,-0.00000003,0.00000034,0.00000057,0.00000055,0.00000022
 ,0.00000037,-0.00000026,0.00000053,-0.00000301,-0.00000049,-0.00000053
 ,-0.00001573,0.00000206,-0.00000827,-0.00089573,0.00070020,-0.00169956
 ,-0.11789193,0.04366292,0.08273116,0.00000125,0.00000133,0.00000024,-0
 .00000085,0.00000162,-0.00000083,0.00000253,-0.00000007,0.00000034,0.0
 0000353,-0.00000581,0.00000160,-0.00000588,-0.00000568,-0.00000003,-0.
 00000227,0.00000332,-0.00000086,-0.00001238,-0.00000260,-0.00000158,0.
 00000763,-0.00000283,0.00000099,0.00000663,0.00001477,-0.00000083,-0.0
 0000696,-0.00002096,0.00000138,0.00001178,0.00000673,-0.00000072,-0.00
 001203,-0.00000316,-0.00000964,-0.00000254,0.00000617,-0.00000010,0.00
 005859,-0.00001689,0.00001524,-0.00000147,0.00001234,-0.00000145,-0.00
 008706,0.00001120,-0.00001215,-0.00007822,0.00001304,-0.00049362,-0.00
 024103,0.00079235,0.00002299,0.00207183,0.00058114,0.00280537,0.006942
 77,0.00430501,0.00031676,-0.20964483,-0.14203621,0.02656792,-0.0149408
 4,-0.01925730,0.00131070,0.00135369,-0.00022703,-0.00141726,-0.0007874
 9,0.00014946,0.00017292,-0.00062179,-0.00105108,-0.00009442,-0.0016068
 8,0.00254460,0.00311300,0.00001948,0.00006194,-0.00002469,0.00002254,-
 0.00004737,0.00000532,0.00000271,0.00002021,-0.00000084,-0.00001212,-0
 .00003116,-0.00000023,-0.00004519,0.00000148,0.00004081,-0.00000003,0.
 00000048,-0.00000029,-0.00000024,0.00000063,0.00000016,-0.00000139,0.0
 0000006,0.00000002,-0.00000098,-0.00000074,0.00000019,-0.00000037,0.00
 000046,0.00000009,0.00000311,0.00000049,0.00000340,0.00003194,-0.00000
 188,0.00002539,0.00018622,0.00026084,0.00002804,0.00011782,0.00030647,
 -0.00203663,0.21771816,0.00000260,0.00000275,-0.00000028,-0.00000163,0
 .00000352,-0.00000077,0.00000476,-0.00000061,0.00000080,0.00000805,-0.
 00001385,0.00000366,-0.00001516,-0.00001257,0.00000061,-0.00000376,0.0
 0000846,-0.00000184,-0.00002852,-0.00000725,-0.00000278,0.00001917,-0.
 00000474,0.00000300,0.00000432,0.00003730,-0.00000595,-0.00001551,-0.0
 0005371,0.00000904,0.00004155,0.00000757,0.00000353,-0.00005990,-0.000
 00424,0.00000221,-0.00000473,0.00001836,-0.00000473,0.00005134,0.00006
 069,-0.00000690,-0.00004155,-0.00008473,-0.00001364,0.00006375,0.00002
 795,0.00002478,0.00008379,0.00003903,0.00036765,0.00047777,-0.00021331
 ,-0.00002873,0.00192719,-0.00327748,-0.00418435,-0.02403854,-0.0144659
 2,0.00372712,-0.13966964,-0.18306495,0.01137448,0.00701412,0.00996258,
 -0.00061327,0.00014016,0.00018360,0.00054658,-0.00028308,0.00005128,0.
 00027614,0.00042235,0.00031961,-0.00006721,0.00154684,0.00030275,-0.00
 177415,0.00002726,-0.00004610,-0.00002300,-0.00001975,-0.00005065,0.00
 009057,-0.00001124,0.00005875,-0.00000478,-0.00006760,-0.00005134,-0.0
 0000484,0.00002364,-0.00000757,-0.00002703,-0.00000050,0.00000116,-0.0
 0000065,-0.00000053,0.00000121,0.00000011,-0.00000244,-0.00000002,-0.0
 0000031,-0.00000188,-0.00000136,-0.00000008,-0.00000080,0.00000050,-0.
 00000031,0.00000430,-0.00000158,-0.00000100,-0.00000127,-0.00000164,-0
 .00000234,-0.00114839,-0.00073413,0.00014913,0.00080670,0.00066263,0.0
 0142347,0.15292152,0.19046339,0.00000072,0.00000097,0.00000030,-0.0000
 0129,0.00000089,-0.00000087,0.00000163,-0.00000011,-0.00000002,0.00000
 315,-0.00000450,0.00000143,-0.00000480,-0.00000405,-0.00000066,-0.0000
 0194,0.00000340,-0.00000067,-0.00001048,-0.00000433,-0.00000097,0.0000
 0769,-0.00000158,0.00000109,0.00000059,0.00001429,-0.00000191,-0.00000
 652,-0.00002000,-0.00000094,0.00001830,0.00000211,0.00000120,-0.000019
 20,-0.00000522,-0.00003154,-0.00000010,0.00000722,0.00000242,0.0000838
 5,-0.00003492,0.00003130,-0.00002862,0.00009578,0.00000917,-0.00014364
 ,-0.00020261,0.00003681,-0.00057406,0.00043541,-0.00116099,0.00010446,
 -0.00020707,-0.00084747,0.00293760,-0.00370710,0.00690534,-0.00759759,
 -0.00680338,0.00561664,0.02734266,0.01201347,-0.04212886,0.00890279,0.
 00960574,0.00241027,-0.00127097,0.00067289,-0.00120258,-0.00004671,0.0
 0013263,-0.00044227,0.00058026,0.00057861,-0.00007722,0.00266900,-0.00
 231612,0.00256148,0.00014829,0.00012233,0.00000781,0.00002279,-0.00011
 478,0.00002745,-0.00000238,0.00008209,-0.00000487,-0.00001590,-0.00004
 584,-0.00001393,-0.00009711,0.00004513,0.00006943,-0.00000010,0.000000
 24,0.00000027,-0.00000027,0.00000033,-0.00000030,-0.00000089,-0.000000
 13,0.00000021,-0.00000062,-0.00000029,0.00000033,-0.00000020,0.0000000
 9,0.00000040,-0.00000011,-0.00000038,0.00000660,-0.00002597,0.00001024
 ,0.00000643,-0.00037209,-0.00028841,0.00005907,-0.00192767,0.00162043,
 -0.00426256,-0.03103589,-0.01105986,0.03208253,-0.00000105,-0.00000064
 ,0.00000037,0.00000008,-0.00000117,-0.00000009,-0.00000146,0.00000041,
 -0.00000029,-0.00000273,0.00000445,-0.00000153,0.00000617,0.00000498,-
 0.00000038,0.00000007,-0.00000286,0.00000058,0.00000758,0.00000110,0.0
 0000068,-0.00000567,0.00000126,-0.00000053,0.00001079,-0.00001261,0.00
 000334,0.00000044,0.00002326,-0.00000408,-0.00001269,-0.00000439,-0.00
 000176,0.00001476,-0.00000101,0.00000416,-0.00000032,-0.00000580,0.000
 00138,-0.00000915,0.00000980,0.00000440,0.00000561,-0.00000325,-0.0000
 0007,0.00001596,0.00006599,-0.00005823,-0.00007116,0.00015251,0.000215
 60,0.00094673,0.00041588,0.00011476,0.00024585,-0.00003030,-0.00024584
 ,-0.00030674,-0.00028539,-0.00003666,0.00051242,-0.00033891,-0.0011076
 9,0.01094949,0.00934666,-0.00099158,-0.08846224,-0.09941140,-0.0038227
 8,-0.01810450,-0.03264392,-0.00592173,-0.00397562,0.00313291,0.0038026
 6,-0.00061489,0.00193007,0.00265718,0.00008206,0.00002355,-0.00000738,
 -0.00001654,-0.00000736,0.00000511,-0.00000650,0.00000143,0.00000499,0
 .00000474,0.00001108,-0.00000850,0.00001538,0.00000006,-0.00001781,0.0
 0000042,-0.00000051,0.00000034,0.00000034,-0.00000047,-0.00000008,0.00
 000060,-0.00000009,0.00000021,0.00000052,0.00000038,0.00000015,0.00000
 023,-0.00000010,0.00000027,0.00000008,0.00000089,0.00000016,-0.0000044
 4,-0.00001762,0.00001973,-0.00000252,0.00000394,0.00002130,-0.00001678
 ,0.00003306,0.00001581,-0.00030268,-0.00026463,0.00015844,0.09890357,0
 .00000076,0.00000060,-0.00000054,-0.00000055,0.00000081,0.00000007,0.0
 0000066,0.00000003,0.00000013,0.00000252,-0.00000408,0.00000047,-0.000
 00463,-0.00000317,0.00000029,-0.00000049,0.00000174,-0.00000053,-0.000
 00704,-0.00000128,0.,0.00000497,-0.00000067,0.00000114,-0.00000576,0.0
 0001123,-0.00000030,-0.00000320,-0.00001862,0.00000395,0.00001334,0.00
 000259,0.00000177,-0.00001669,-0.00000234,-0.00000940,-0.00000040,0.00
 000506,-0.00000058,0.00002435,-0.00000542,-0.00000001,-0.00001000,-0.0
 0000467,0.00000612,0.00002060,-0.00007145,-0.00001039,0.00004334,-0.00
 021159,-0.00018391,-0.00108950,0.00013458,0.00020205,0.00024577,0.0000
 4397,0.00002308,0.00000142,-0.00031333,-0.00004600,-0.00027505,0.00033
 562,0.00080377,-0.01025511,-0.00659194,0.00176742,-0.11068288,-0.31712
 150,-0.05191092,-0.00046752,0.00010010,0.00241995,0.00110500,0.0025120
 9,-0.00041402,0.00163964,-0.00198891,-0.00274933,-0.00009069,0.0000242
 4,-0.00001946,0.00002793,-0.00001435,0.00000999,-0.00000097,0.00000511
 ,-0.00000785,-0.00000728,-0.00002039,0.00001267,-0.00001342,-0.0000062
 7,0.00000706,-0.00000021,0.00000033,-0.00000023,-0.00000024,0.00000018
 ,0.00000014,-0.00000010,-0.00000012,-0.00000012,-0.00000038,-0.0000002
 6,-0.00000008,-0.00000019,0.00000013,-0.00000026,0.00000077,-0.0000006
 1,-0.00000055,0.00000827,-0.00001269,-0.00000304,0.00002845,0.00000718
 ,-0.00002506,0.00003014,-0.00006777,-0.00002490,0.00042737,-0.00007013
 ,-0.00026031,0.11947291,0.32303535,-0.00000099,-0.00000007,0.00000100,
 -0.00000042,-0.00000105,-0.00000077,-0.00000088,0.00000061,-0.00000053
 ,-0.00000175,0.00000263,-0.00000110,0.00000517,0.00000422,-0.00000144,
 -0.00000107,-0.00000180,0.00000071,0.00000222,-0.00000245,0.00000120,-
 0.00000221,0.00000093,-0.00000069,0.00001332,-0.00000460,0.00000399,-0
 .00000505,0.00001547,-0.00000464,0.00000285,-0.00001007,0.00000098,-0.
 00001579,-0.00000790,0.00000045,-0.00000109,0.00000068,-0.00000066,-0.
 00000401,0.00007226,-0.00002272,-0.00006209,-0.00003051,0.00004761,0.0
 0012464,0.00009466,0.00006549,0.00037211,-0.00026086,0.00029914,-0.000
 55185,-0.00044729,0.00078752,-0.00014013,0.00013494,-0.00024605,0.0000
 5965,0.00004468,-0.00016848,-0.00106356,0.00082314,-0.00125171,-0.0074
 1904,-0.00654824,0.00176855,-0.00757276,-0.05642798,-0.03357032,0.0046
 3964,0.01601601,-0.00342960,0.00296571,-0.00148071,0.00076305,0.002642
 92,-0.00278239,0.00236857,-0.00010845,-0.00010257,-0.00006899,-0.00002
 666,0.00000067,0.00000358,-0.00000755,0.00001968,0.00000771,-0.0000284
 5,-0.00001921,-0.00000882,0.00008104,-0.00003419,0.00000347,0.00000038
 ,-0.00000066,0.00000053,0.00000030,-0.00000038,-0.00000027,0.00000027,
 -0.00000008,0.00000057,0.00000028,0.00000033,0.00000050,0.00000019,0.0
 0000009,0.00000077,-0.00000132,-0.00000072,-0.00000052,-0.00001807,0.0
 0004162,-0.00006499,0.00003610,-0.00001150,0.00003605,0.00001734,-0.00
 004090,-0.00001546,0.00038071,0.00000410,0.00010782,0.00501979,0.05086
 994,0.03092111,0.00000172,0.00000104,-0.00000080,-0.00000404,0.0000009
 1,-0.00000043,0.00000273,0.00000102,0.00000018,0.00000497,-0.00000507,
 0.00000154,-0.00000570,-0.00000469,0.00000006,-0.00000438,0.00000481,-
 0.00000116,-0.00001637,-0.00000541,-0.00000230,0.00001124,-0.00000503,
 0.00000239,0.00000724,0.00001610,-0.00000177,-0.00002696,-0.00001596,0
 .00000526,0.00003747,-0.00002452,0.00000864,-0.00003157,0.00000696,0.0
 0001277,-0.00000505,0.00002156,-0.00000612,0.00007904,-0.00010222,0.00
 007548,0.00004221,-0.00002210,-0.00000413,-0.00015629,-0.00002510,-0.0
 0071051,0.00018966,0.00005346,-0.00022047,-0.00014681,-0.00068493,-0.0
 0067990,-0.00041708,-0.00005053,0.00015449,0.00005923,0.00031640,-0.00
 009306,-0.00007147,-0.00099884,0.00001788,-0.00078940,0.00173830,0.002
 93296,0.00291768,-0.00003484,-0.00010960,-0.00543902,-0.00257875,-0.00
 115546,-0.31412475,-0.07379151,0.10533263,-0.00595446,-0.00729895,0.00
 050539,0.00004802,0.00026326,0.00004579,0.00002445,-0.00003724,0.00001
 447,-0.00001806,-0.00000916,-0.00000356,-0.00000021,-0.00003194,-0.000
 00955,-0.00007578,0.00002849,-0.00001074,-0.00000076,-0.00000002,0.000
 00144,-0.00000017,-0.00000042,-0.00000133,-0.00000152,-0.00000061,-0.0
 0000022,-0.00000100,-0.00000036,-0.00000006,-0.00000012,0.00000034,0.,
 -0.00000318,-0.00001156,-0.00000939,0.00026889,-0.00093887,-0.00034562
 ,-0.00005918,0.00002070,0.00004758,0.00000283,0.00002676,0.00001316,-0
 .00014667,0.00008984,0.00020292,0.00019383,-0.00016591,0.00066857,0.32
 360880,-0.00000272,-0.00000358,-0.00000035,0.00000344,-0.00000423,0.00
 000164,-0.00000636,0.00000086,-0.00000052,-0.00000959,0.00001544,-0.00
 000420,0.00001624,0.00001466,-0.00000014,0.00000753,-0.00001153,0.0000
 0300,0.00003689,0.00001077,0.00000136,-0.00002590,0.00000696,-0.000004
 62,-0.00002168,-0.00004344,0.00000515,0.00002441,0.00005979,-0.0000058
 0,-0.00005624,-0.00000864,-0.00000538,0.00006726,0.00000281,0.00002767
 ,0.00001362,-0.00002615,0.00000421,-0.00017014,-0.00011618,-0.00000559
 ,-0.00007788,-0.00015117,0.00000233,-0.00062244,-0.00048759,-0.0005774
 4,0.00046413,0.00002745,-0.00007988,-0.00025197,0.00022238,0.00049390,
 -0.00013375,-0.00026644,0.00003764,-0.00001113,0.00016624,0.00026444,0
 .00061205,0.00115231,-0.00011838,0.00205603,-0.00179889,-0.00260832,0.
 00213575,-0.00508785,-0.00326351,-0.03449765,-0.01460334,0.01256091,-0
 .06385281,-0.06577838,0.01220428,0.01149531,0.01179168,-0.00131070,-0.
 00012303,-0.00026717,0.00012141,-0.00004093,0.00001569,0.00001354,0.00
 000222,0.00006070,-0.00002315,-0.00000541,0.00000391,-0.00000287,0.000
 07058,-0.00000418,-0.00003775,-0.00000010,-0.00000111,-0.00000024,0.00
 000022,-0.00000107,0.00000072,0.00000363,0.00000053,0.00000023,0.00000
 248,0.00000167,-0.00000023,0.00000108,-0.00000021,-0.00000015,-0.00001
 265,0.00000354,-0.00001028,-0.00006063,-0.00068211,-0.00080387,0.00005
 387,-0.00002048,-0.00003894,0.00000004,-0.00000256,-0.00001774,0.00026
 576,-0.00004518,-0.00036333,-0.00160416,0.00031065,0.00006949,0.084254
 61,0.07554345,-0.00000192,-0.00000062,0.00000369,0.00000049,-0.0000034
 2,-0.00000188,-0.00000217,0.00000146,-0.00000139,-0.00000456,0.0000096
 1,-0.00000216,0.00001197,0.00001014,-0.00000296,-0.00000019,-0.0000050
 2,0.00000230,0.00001672,-0.00000253,0.00000293,-0.00000968,0.00000377,
 -0.00000218,0.00000119,-0.00000829,-0.00000135,0.00000601,0.00003918,-
 0.00001565,0.00000939,-0.00004184,0.00000641,-0.00004155,0.00000614,-0
 .00002516,0.00000879,0.00001406,0.00000040,-0.00008582,0.00018363,-0.0
 0010863,-0.00005206,0.00031349,0.00007831,0.00024991,-0.00094936,0.000
 61823,0.00049206,0.00031618,-0.00062383,-0.00062272,0.00026059,-0.0010
 7029,-0.00009811,-0.00006676,0.00006876,-0.00014122,0.00005750,-0.0004
 3371,0.00042961,0.00062106,0.00075394,0.00272410,-0.00276289,0.0024870
 1,0.00041029,-0.00247856,0.00142757,-0.01182922,-0.00181379,-0.0019231
 6,0.10961505,0.01750277,-0.06108205,0.00549628,0.00668677,0.00010307,-
 0.00012885,-0.00020945,0.00009030,-0.00008721,0.00008231,-0.00001773,-
 0.00000589,0.00005644,0.00000199,-0.00003510,0.00005451,-0.00003558,0.
 00012660,0.00001809,0.00003934,0.00000076,-0.00000195,0.00000206,0.000
 00002,-0.00000147,-0.00000132,0.00000108,0.00000010,0.00000137,0.00000
 112,0.00000113,0.00000104,0.00000074,0.00000023,0.00000152,-0.00001777
 ,-0.00000697,0.00001003,-0.00032722,-0.00066554,-0.00114172,0.00007010
 ,-0.00003869,0.00000922,0.00000228,-0.00001310,0.00001399,0.00031850,-
 0.00017818,0.00023285,0.00017561,-0.00046220,0.00166741,-0.10667742,-0
 .01652855,0.05886705\\0.00000025,0.00001245,-0.00000211,-0.00000110,-0
 .00000401,0.00000076,0.00000117,0.00000122,0.00000043,0.00000255,0.000
 00009,-0.00000030,0.00000203,0.00000131,0.00000081,-0.00000666,-0.0000
 0132,-0.00000028,-0.00001100,0.00000251,-0.00000035,0.00000194,-0.0000
 0190,0.00000036,0.00000904,-0.00000644,0.00000106,-0.00001012,-0.00000
 509,-0.00000183,0.00001398,0.00000596,0.00000273,-0.00000843,-0.000007
 94,0.00000481,-0.00001308,0.00000995,-0.00000508,0.00001046,0.00000780
 ,-0.00000275,-0.00000279,0.00000018,-0.00000470,0.00000127,-0.00000535
 ,0.00000037,-0.00000344,0.00000176,-0.00000015,-0.00000730,0.00000741,
 0.00000792,0.00000423,-0.00000461,-0.00000330,-0.00000219,-0.00000395,
 -0.00000039,-0.00000284,0.00000501,-0.00000575,-0.00000102,0.00000230,
 0.00000663,0.00000584,-0.00000120,-0.00000879,-0.00000257,-0.00001454,
 -0.00000282,0.00000187,0.00001243,-0.00000121,0.00000948,-0.00000986,0
 .00000178,0.00000022,0.00000589,0.00000701,-0.00000147,-0.00001182,-0.
 00000204,-0.00000372,0.00000066,0.00000124,0.00001640,-0.00000274,0.00
 000636,-0.00000522,0.00000506,-0.00000632,0.,-0.00000222,0.00000046,0.
 00000057,-0.00000289,0.,0.00000093,0.00000189,-0.00000059,0.00000007,0
 .00000200,-0.00000038,-0.00000111,0.00000153,0.,-0.00000156,0.00000062
 ,0.00000019,-0.00000100,-0.00000066,-0.00000001,0.00000056,0.00000060,
 0.00000075,0.00000206,0.00000176,0.00000059,0.00000260,-0.00000220,0.0
 0000259,0.00000069,-0.00000118,0.00000293,-0.00000161,-0.00000047,-0.0
 0000062\\\@


 PICNIC:  A SNACK IN THE GRASS.
 Job cpu time:  0 days 22 hours  1 minutes 28.2 seconds.
 File lengths (MBytes):  RWF=   2040 Int=      0 D2E=      0 Chk=     32 Scr=      1
 Normal termination of Gaussian 09 at Sun Dec 29 15:20:58 2013.
