 Entering Gaussian System, Link 0=g09
 Initial command:
 /opt/gaussian/g09/l1.exe /panfs/panfs.cluster/home/shuo/Gau-17159.inp -scrdir=/panfs/panfs.cluster/home/shuo/
 Default is to use a total of  12 processors:
                               12 via shared-memory
                                1 via Linda
 Entering Link 1 = /opt/gaussian/g09/l1.exe PID=     17160.
  
 Copyright (c) 1988,1990,1992,1993,1995,1998,2003,2009,2011,
            Gaussian, Inc.  All Rights Reserved.
  
 This is part of the Gaussian(R) 09 program.  It is based on
 the Gaussian(R) 03 system (copyright 2003, Gaussian, Inc.),
 the Gaussian(R) 98 system (copyright 1998, Gaussian, Inc.),
 the Gaussian(R) 94 system (copyright 1995, Gaussian, Inc.),
 the Gaussian 92(TM) system (copyright 1992, Gaussian, Inc.),
 the Gaussian 90(TM) system (copyright 1990, Gaussian, Inc.),
 the Gaussian 88(TM) system (copyright 1988, Gaussian, Inc.),
 the Gaussian 86(TM) system (copyright 1986, Carnegie Mellon
 University), and the Gaussian 82(TM) system (copyright 1983,
 Carnegie Mellon University). Gaussian is a federally registered
 trademark of Gaussian, Inc.
  
 This software contains proprietary and confidential information,
 including trade secrets, belonging to Gaussian, Inc.
  
 This software is provided under written license and may be
 used, copied, transmitted, or stored only in accord with that
 written license.
  
 The following legend is applicable only to US Government
 contracts under FAR:
  
                    RESTRICTED RIGHTS LEGEND
  
 Use, reproduction and disclosure by the US Government is
 subject to restrictions as set forth in subparagraphs (a)
 and (c) of the Commercial Computer Software - Restricted
 Rights clause in FAR 52.227-19.
  
 Gaussian, Inc.
 340 Quinnipiac St., Bldg. 40, Wallingford CT 06492
  
  
 ---------------------------------------------------------------
 Warning -- This program may not be used in any manner that
 competes with the business of Gaussian, Inc. or will provide
 assistance to any competitor of Gaussian, Inc.  The licensee
 of this program is prohibited from giving any competitor of
 Gaussian, Inc. access to this program.  By using this program,
 the user acknowledges that Gaussian, Inc. is engaged in the
 business of creating and licensing software in the field of
 computational chemistry and represents and warrants to the
 licensee that it is not a competitor of Gaussian, Inc. and that
 it will not use this program in any manner prohibited above.
 ---------------------------------------------------------------
  

 Cite this work as:
 Gaussian 09, Revision C.01,
 M. J. Frisch, G. W. Trucks, H. B. Schlegel, G. E. Scuseria, 
 M. A. Robb, J. R. Cheeseman, G. Scalmani, V. Barone, B. Mennucci, 
 G. A. Petersson, H. Nakatsuji, M. Caricato, X. Li, H. P. Hratchian, 
 A. F. Izmaylov, J. Bloino, G. Zheng, J. L. Sonnenberg, M. Hada, 
 M. Ehara, K. Toyota, R. Fukuda, J. Hasegawa, M. Ishida, T. Nakajima, 
 Y. Honda, O. Kitao, H. Nakai, T. Vreven, J. A. Montgomery, Jr., 
 J. E. Peralta, F. Ogliaro, M. Bearpark, J. J. Heyd, E. Brothers, 
 K. N. Kudin, V. N. Staroverov, T. Keith, R. Kobayashi, J. Normand, 
 K. Raghavachari, A. Rendell, J. C. Burant, S. S. Iyengar, J. Tomasi, 
 M. Cossi, N. Rega, J. M. Millam, M. Klene, J. E. Knox, J. B. Cross, 
 V. Bakken, C. Adamo, J. Jaramillo, R. Gomperts, R. E. Stratmann, 
 O. Yazyev, A. J. Austin, R. Cammi, C. Pomelli, J. W. Ochterski, 
 R. L. Martin, K. Morokuma, V. G. Zakrzewski, G. A. Voth, 
 P. Salvador, J. J. Dannenberg, S. Dapprich, A. D. Daniels, 
 O. Farkas, J. B. Foresman, J. V. Ortiz, J. Cioslowski, 
 and D. J. Fox, Gaussian, Inc., Wallingford CT, 2010.
 
 ******************************************
 Gaussian 09:  EM64L-G09RevC.01 23-Sep-2011
                30-Dec-2013 
 ******************************************
 %chk=9_C20H12N4S2SeSi.chk
 %NProcShared=12
 Will use up to   12 processors via shared memory.
 %Mem=8000MB
 Default route:  MaxDisk=100GB
 --------------------------------------------
 #B3LYP/6-31++G(d,p) opt scf=direct freq test
 --------------------------------------------
 1/14=-1,18=20,19=15,26=3,38=1/1,3;
 2/9=110,12=2,17=6,18=5,40=1/2;
 3/5=1,6=6,7=1111,11=2,16=1,25=1,30=1,71=1,74=-5/1,2,3;
 4//1;
 5/5=2,38=5/2;
 6/7=2,8=2,9=2,10=2,28=1/1;
 7//1,2,3,16;
 1/14=-1,18=20,19=15/3(2);
 2/9=110/2;
 99//99;
 2/9=110/2;
 3/5=1,6=6,7=1111,11=2,16=1,25=1,30=1,71=1,74=-5/1,2,3;
 4/5=5,16=3/1;
 5/5=2,38=5/2;
 7//1,2,3,16;
 1/14=-1,18=20,19=15/3(-5);
 2/9=110/2;
 6/7=2,8=2,9=2,10=2,19=2,28=1/1;
 99/9=1/99;
 ----------------------------------------------------------------------
 Geom opt of No.9 candidate from the CEPDB database with SMILE code of 
 c1[nH]cc2c1c1ccncc1c1ccc3cc([nH]c3c21)-c1nccc2nsnc12, HPC, 20131227, S
 huo Dai, Gaussian09
 ----------------------------------------------------------------------
 Charge =  0 Multiplicity = 1
 Symbolic Z-Matrix:
 C                    -1.02843   2.67141  -0.01955 
 N                     0.10115   3.4556   -0.01883 
 H                     0.09097   4.47032   0.00762 
 C                     1.24151   2.66323  -0.0462 
 C                     0.8593    1.32892  -0.10784 
 C                    -0.60132   1.37185  -0.04838 
 C                    -1.4552    0.22915  -0.01615 
 C                    -2.87566   0.2418   -0.00035 
 C                    -3.52985  -0.9817    0.00258 
 N                    -2.89159  -2.15635   0.006 
 C                    -1.52934  -2.12329   0.00937 
 C                    -0.70431  -0.96576  -0.00755 
 C                     0.7809   -1.02567  -0.0073 
 C                     1.43384  -2.25963   0.05725 
 C                     2.79369  -2.39966   0.30887 
 C                     3.52197  -1.25074   0.63219 
 C                     4.86886  -0.9816    0.89641 
 C                     5.29059  -1.2391   -0.4073 
 N                     4.37923   0.06835  -0.77977 
 H                     4.78725   0.98842  -0.68229 
 C                     3.08877  -0.09477   0.00867 
 C                     1.65433   0.15303  -0.10911 
 C                     6.7646   -1.6929   -0.47596 
 N                     7.65177  -0.68123  -0.20253 
 C                     8.99855  -0.90406   0.00028 
 C                     9.72397  -2.08828  -0.00858 
 C                     8.90422  -3.21395  -0.12689 
 N                     9.37876  -4.47199  -0.10415 
 S                     8.05021  -5.45097  -0.19541 
 N                     6.80288  -4.32142  -0.28014 
 C                     7.35137  -3.07886  -0.31379 
 H                    -2.01547   3.1363    0.01171 
 H                     2.20403   3.13492  -0.01055 
 H                    -3.45099   1.15443  -0.00473 
 H                    -4.61355  -1.04277  -0.00133 
 H                    -1.10838  -3.11733   0.01282 
 H                     0.90696  -3.20449  -0.05949 
 H                     3.30157  -3.35172   0.2233 
 H                     5.39407  -0.08113   1.26267 
 H                     9.54347   0.02179   0.1641 
 H                     10.80314  -2.13434   0.07621 
 

 GradGradGradGradGradGradGradGradGradGradGradGradGradGradGradGradGradGrad
 Berny optimization.
 Initialization pass.
                           ----------------------------
                           !    Initial Parameters    !
                           ! (Angstroms and Degrees)  !
 --------------------------                            --------------------------
 ! Name  Definition              Value          Derivative Info.                !
 --------------------------------------------------------------------------------
 ! R1    R(1,2)                  1.3751         estimate D2E/DX2                !
 ! R2    R(1,6)                  1.3683         estimate D2E/DX2                !
 ! R3    R(1,32)                 1.0915         estimate D2E/DX2                !
 ! R4    R(2,3)                  1.0151         estimate D2E/DX2                !
 ! R5    R(2,4)                  1.3889         estimate D2E/DX2                !
 ! R6    R(4,5)                  1.3893         estimate D2E/DX2                !
 ! R7    R(4,33)                 1.0725         estimate D2E/DX2                !
 ! R8    R(5,6)                  1.4625         estimate D2E/DX2                !
 ! R9    R(5,22)                 1.4194         estimate D2E/DX2                !
 ! R10   R(6,7)                  1.4269         estimate D2E/DX2                !
 ! R11   R(7,8)                  1.4206         estimate D2E/DX2                !
 ! R12   R(7,12)                 1.4113         estimate D2E/DX2                !
 ! R13   R(8,9)                  1.3874         estimate D2E/DX2                !
 ! R14   R(8,34)                 1.0788         estimate D2E/DX2                !
 ! R15   R(9,10)                 1.3369         estimate D2E/DX2                !
 ! R16   R(9,35)                 1.0854         estimate D2E/DX2                !
 ! R17   R(10,11)                1.3627         estimate D2E/DX2                !
 ! R18   R(11,12)                1.4216         estimate D2E/DX2                !
 ! R19   R(11,36)                1.0795         estimate D2E/DX2                !
 ! R20   R(12,13)                1.4864         estimate D2E/DX2                !
 ! R21   R(13,14)                1.3976         estimate D2E/DX2                !
 ! R22   R(13,22)                1.4706         estimate D2E/DX2                !
 ! R23   R(14,15)                1.39           estimate D2E/DX2                !
 ! R24   R(14,37)                1.0881         estimate D2E/DX2                !
 ! R25   R(15,16)                1.3982         estimate D2E/DX2                !
 ! R26   R(15,38)                1.0824         estimate D2E/DX2                !
 ! R27   R(16,17)                1.3987         estimate D2E/DX2                !
 ! R28   R(16,21)                1.383          estimate D2E/DX2                !
 ! R29   R(17,18)                1.3942         estimate D2E/DX2                !
 ! R30   R(17,39)                1.1049         estimate D2E/DX2                !
 ! R31   R(18,19)                1.6367         estimate D2E/DX2                !
 ! R32   R(18,23)                1.5438         estimate D2E/DX2                !
 ! R33   R(19,20)                1.0112         estimate D2E/DX2                !
 ! R34   R(19,21)                1.521          estimate D2E/DX2                !
 ! R35   R(21,22)                1.4604         estimate D2E/DX2                !
 ! R36   R(23,24)                1.3731         estimate D2E/DX2                !
 ! R37   R(23,31)                1.5138         estimate D2E/DX2                !
 ! R38   R(24,25)                1.3801         estimate D2E/DX2                !
 ! R39   R(25,26)                1.3888         estimate D2E/DX2                !
 ! R40   R(25,40)                1.0867         estimate D2E/DX2                !
 ! R41   R(26,27)                1.3975         estimate D2E/DX2                !
 ! R42   R(26,41)                1.0835         estimate D2E/DX2                !
 ! R43   R(27,28)                1.3448         estimate D2E/DX2                !
 ! R44   R(27,31)                1.5699         estimate D2E/DX2                !
 ! R45   R(28,29)                1.6528         estimate D2E/DX2                !
 ! R46   R(29,30)                1.6849         estimate D2E/DX2                !
 ! R47   R(30,31)                1.3586         estimate D2E/DX2                !
 ! A1    A(2,1,6)              106.573          estimate D2E/DX2                !
 ! A2    A(2,1,32)             119.9957         estimate D2E/DX2                !
 ! A3    A(6,1,32)             133.427          estimate D2E/DX2                !
 ! A4    A(1,2,3)              124.1825         estimate D2E/DX2                !
 ! A5    A(1,2,4)              110.4324         estimate D2E/DX2                !
 ! A6    A(3,2,4)              125.3824         estimate D2E/DX2                !
 ! A7    A(2,4,5)              108.8389         estimate D2E/DX2                !
 ! A8    A(2,4,33)             119.0326         estimate D2E/DX2                !
 ! A9    A(5,4,33)             132.1261         estimate D2E/DX2                !
 ! A10   A(4,5,6)              104.1676         estimate D2E/DX2                !
 ! A11   A(4,5,22)             129.9085         estimate D2E/DX2                !
 ! A12   A(6,5,22)             125.715          estimate D2E/DX2                !
 ! A13   A(1,6,5)              109.9075         estimate D2E/DX2                !
 ! A14   A(1,6,7)              124.9852         estimate D2E/DX2                !
 ! A15   A(5,6,7)              125.1061         estimate D2E/DX2                !
 ! A16   A(6,7,8)              126.2631         estimate D2E/DX2                !
 ! A17   A(6,7,12)             111.088          estimate D2E/DX2                !
 ! A18   A(8,7,12)             122.6482         estimate D2E/DX2                !
 ! A19   A(7,8,9)              117.6222         estimate D2E/DX2                !
 ! A20   A(7,8,34)             122.7323         estimate D2E/DX2                !
 ! A21   A(9,8,34)             119.6397         estimate D2E/DX2                !
 ! A22   A(8,9,10)             123.3493         estimate D2E/DX2                !
 ! A23   A(8,9,35)             121.3574         estimate D2E/DX2                !
 ! A24   A(10,9,35)            115.2929         estimate D2E/DX2                !
 ! A25   A(9,10,11)            117.128          estimate D2E/DX2                !
 ! A26   A(10,11,12)           126.8643         estimate D2E/DX2                !
 ! A27   A(10,11,36)           111.562          estimate D2E/DX2                !
 ! A28   A(12,11,36)           121.5686         estimate D2E/DX2                !
 ! A29   A(7,12,11)            112.3774         estimate D2E/DX2                !
 ! A30   A(7,12,13)            124.4548         estimate D2E/DX2                !
 ! A31   A(11,12,13)           123.1667         estimate D2E/DX2                !
 ! A32   A(12,13,14)           120.1601         estimate D2E/DX2                !
 ! A33   A(12,13,22)           124.1346         estimate D2E/DX2                !
 ! A34   A(14,13,22)           115.6841         estimate D2E/DX2                !
 ! A35   A(13,14,15)           123.6678         estimate D2E/DX2                !
 ! A36   A(13,14,37)           122.3792         estimate D2E/DX2                !
 ! A37   A(15,14,37)           113.932          estimate D2E/DX2                !
 ! A38   A(14,15,16)           117.9468         estimate D2E/DX2                !
 ! A39   A(14,15,38)           122.2297         estimate D2E/DX2                !
 ! A40   A(16,15,38)           119.7771         estimate D2E/DX2                !
 ! A41   A(15,16,17)           134.6986         estimate D2E/DX2                !
 ! A42   A(15,16,21)           114.7977         estimate D2E/DX2                !
 ! A43   A(17,16,21)           103.0594         estimate D2E/DX2                !
 ! A44   A(16,17,18)            94.5369         estimate D2E/DX2                !
 ! A45   A(16,17,39)           132.6227         estimate D2E/DX2                !
 ! A46   A(18,17,39)           108.4635         estimate D2E/DX2                !
 ! A47   A(17,18,19)            84.0782         estimate D2E/DX2                !
 ! A48   A(17,18,23)           112.6243         estimate D2E/DX2                !
 ! A49   A(19,18,23)           139.1437         estimate D2E/DX2                !
 ! A50   A(18,19,20)           118.7005         estimate D2E/DX2                !
 ! A51   A(18,19,21)           105.5921         estimate D2E/DX2                !
 ! A52   A(20,19,21)           112.9511         estimate D2E/DX2                !
 ! A53   A(16,21,19)            93.3014         estimate D2E/DX2                !
 ! A54   A(16,21,22)           119.0671         estimate D2E/DX2                !
 ! A55   A(19,21,22)           140.6516         estimate D2E/DX2                !
 ! A56   A(5,22,13)            109.346          estimate D2E/DX2                !
 ! A57   A(5,22,21)            133.6793         estimate D2E/DX2                !
 ! A58   A(13,22,21)           116.2177         estimate D2E/DX2                !
 ! A59   A(18,23,24)           113.0462         estimate D2E/DX2                !
 ! A60   A(18,23,31)           129.3802         estimate D2E/DX2                !
 ! A61   A(24,23,31)           113.7536         estimate D2E/DX2                !
 ! A62   A(23,24,25)           122.7405         estimate D2E/DX2                !
 ! A63   A(24,25,26)           130.2773         estimate D2E/DX2                !
 ! A64   A(24,25,40)           111.9582         estimate D2E/DX2                !
 ! A65   A(26,25,40)           117.7437         estimate D2E/DX2                !
 ! A66   A(25,26,27)           112.3942         estimate D2E/DX2                !
 ! A67   A(25,26,41)           123.7811         estimate D2E/DX2                !
 ! A68   A(27,26,41)           123.8223         estimate D2E/DX2                !
 ! A69   A(26,27,28)           123.0318         estimate D2E/DX2                !
 ! A70   A(26,27,31)           121.3974         estimate D2E/DX2                !
 ! A71   A(28,27,31)           115.5672         estimate D2E/DX2                !
 ! A72   A(27,28,29)           105.6365         estimate D2E/DX2                !
 ! A73   A(28,29,30)           101.5811         estimate D2E/DX2                !
 ! A74   A(29,30,31)           108.3909         estimate D2E/DX2                !
 ! A75   A(23,31,27)           118.3566         estimate D2E/DX2                !
 ! A76   A(23,31,30)           133.1185         estimate D2E/DX2                !
 ! A77   A(27,31,30)           108.5224         estimate D2E/DX2                !
 ! D1    D(6,1,2,3)           -179.4662         estimate D2E/DX2                !
 ! D2    D(6,1,2,4)             -0.0346         estimate D2E/DX2                !
 ! D3    D(32,1,2,3)            -0.1278         estimate D2E/DX2                !
 ! D4    D(32,1,2,4)           179.3038         estimate D2E/DX2                !
 ! D5    D(2,1,6,5)             -1.7132         estimate D2E/DX2                !
 ! D6    D(2,1,6,7)            177.9023         estimate D2E/DX2                !
 ! D7    D(32,1,6,5)           179.0758         estimate D2E/DX2                !
 ! D8    D(32,1,6,7)            -1.3087         estimate D2E/DX2                !
 ! D9    D(1,2,4,5)              1.849          estimate D2E/DX2                !
 ! D10   D(1,2,4,33)          -177.6461         estimate D2E/DX2                !
 ! D11   D(3,2,4,5)           -178.7278         estimate D2E/DX2                !
 ! D12   D(3,2,4,33)             1.7772         estimate D2E/DX2                !
 ! D13   D(2,4,5,6)             -2.7227         estimate D2E/DX2                !
 ! D14   D(2,4,5,22)          -177.6122         estimate D2E/DX2                !
 ! D15   D(33,4,5,6)           176.6821         estimate D2E/DX2                !
 ! D16   D(33,4,5,22)            1.7925         estimate D2E/DX2                !
 ! D17   D(4,5,6,1)              2.7734         estimate D2E/DX2                !
 ! D18   D(4,5,6,7)           -176.8415         estimate D2E/DX2                !
 ! D19   D(22,5,6,1)           177.946          estimate D2E/DX2                !
 ! D20   D(22,5,6,7)            -1.6689         estimate D2E/DX2                !
 ! D21   D(4,5,22,13)          172.5013         estimate D2E/DX2                !
 ! D22   D(4,5,22,21)            3.1789         estimate D2E/DX2                !
 ! D23   D(6,5,22,13)           -1.3925         estimate D2E/DX2                !
 ! D24   D(6,5,22,21)         -170.7149         estimate D2E/DX2                !
 ! D25   D(1,6,7,8)              2.5397         estimate D2E/DX2                !
 ! D26   D(1,6,7,12)          -177.7444         estimate D2E/DX2                !
 ! D27   D(5,6,7,8)           -177.9023         estimate D2E/DX2                !
 ! D28   D(5,6,7,12)             1.8137         estimate D2E/DX2                !
 ! D29   D(6,7,8,9)            178.6653         estimate D2E/DX2                !
 ! D30   D(6,7,8,34)            -0.4516         estimate D2E/DX2                !
 ! D31   D(12,7,8,9)            -1.0199         estimate D2E/DX2                !
 ! D32   D(12,7,8,34)          179.8632         estimate D2E/DX2                !
 ! D33   D(6,7,12,11)         -179.3412         estimate D2E/DX2                !
 ! D34   D(6,7,12,13)            1.0247         estimate D2E/DX2                !
 ! D35   D(8,7,12,11)            0.3868         estimate D2E/DX2                !
 ! D36   D(8,7,12,13)         -179.2473         estimate D2E/DX2                !
 ! D37   D(7,8,9,10)             0.7518         estimate D2E/DX2                !
 ! D38   D(7,8,9,35)          -179.0286         estimate D2E/DX2                !
 ! D39   D(34,8,9,10)          179.8971         estimate D2E/DX2                !
 ! D40   D(34,8,9,35)            0.1166         estimate D2E/DX2                !
 ! D41   D(8,9,10,11)            0.1325         estimate D2E/DX2                !
 ! D42   D(35,9,10,11)         179.9251         estimate D2E/DX2                !
 ! D43   D(9,10,11,12)          -0.8666         estimate D2E/DX2                !
 ! D44   D(9,10,11,36)         179.9512         estimate D2E/DX2                !
 ! D45   D(10,11,12,7)           0.5917         estimate D2E/DX2                !
 ! D46   D(10,11,12,13)       -179.7687         estimate D2E/DX2                !
 ! D47   D(36,11,12,7)         179.6991         estimate D2E/DX2                !
 ! D48   D(36,11,12,13)         -0.6614         estimate D2E/DX2                !
 ! D49   D(7,12,13,14)         177.3603         estimate D2E/DX2                !
 ! D50   D(7,12,13,22)          -4.3876         estimate D2E/DX2                !
 ! D51   D(11,12,13,14)         -2.2356         estimate D2E/DX2                !
 ! D52   D(11,12,13,22)        176.0166         estimate D2E/DX2                !
 ! D53   D(12,13,14,15)       -167.6975         estimate D2E/DX2                !
 ! D54   D(12,13,14,37)         10.5318         estimate D2E/DX2                !
 ! D55   D(22,13,14,15)         13.9079         estimate D2E/DX2                !
 ! D56   D(22,13,14,37)       -167.8628         estimate D2E/DX2                !
 ! D57   D(12,13,22,5)           4.1589         estimate D2E/DX2                !
 ! D58   D(12,13,22,21)        175.5688         estimate D2E/DX2                !
 ! D59   D(14,13,22,5)        -177.518          estimate D2E/DX2                !
 ! D60   D(14,13,22,21)         -6.1082         estimate D2E/DX2                !
 ! D61   D(13,14,15,16)          5.9072         estimate D2E/DX2                !
 ! D62   D(13,14,15,38)       -171.6096         estimate D2E/DX2                !
 ! D63   D(37,14,15,16)       -172.4568         estimate D2E/DX2                !
 ! D64   D(37,14,15,38)         10.0264         estimate D2E/DX2                !
 ! D65   D(14,15,16,17)       -177.3267         estimate D2E/DX2                !
 ! D66   D(14,15,16,21)        -33.488          estimate D2E/DX2                !
 ! D67   D(38,15,16,17)          0.2533         estimate D2E/DX2                !
 ! D68   D(38,15,16,21)        144.0919         estimate D2E/DX2                !
 ! D69   D(15,16,17,18)         67.9446         estimate D2E/DX2                !
 ! D70   D(15,16,17,39)       -171.7389         estimate D2E/DX2                !
 ! D71   D(21,16,17,18)        -78.6969         estimate D2E/DX2                !
 ! D72   D(21,16,17,39)         41.6196         estimate D2E/DX2                !
 ! D73   D(15,16,21,19)       -115.2098         estimate D2E/DX2                !
 ! D74   D(15,16,21,22)         41.4648         estimate D2E/DX2                !
 ! D75   D(17,16,21,19)         39.2871         estimate D2E/DX2                !
 ! D76   D(17,16,21,22)       -164.0384         estimate D2E/DX2                !
 ! D77   D(16,17,18,19)         65.1099         estimate D2E/DX2                !
 ! D78   D(16,17,18,23)       -153.5767         estimate D2E/DX2                !
 ! D79   D(39,17,18,19)        -72.8481         estimate D2E/DX2                !
 ! D80   D(39,17,18,23)         68.4653         estimate D2E/DX2                !
 ! D81   D(17,18,19,20)         84.304          estimate D2E/DX2                !
 ! D82   D(17,18,19,21)        -43.5994         estimate D2E/DX2                !
 ! D83   D(23,18,19,20)        -33.8139         estimate D2E/DX2                !
 ! D84   D(23,18,19,21)       -161.7173         estimate D2E/DX2                !
 ! D85   D(17,18,23,24)        -70.9348         estimate D2E/DX2                !
 ! D86   D(17,18,23,31)         85.3455         estimate D2E/DX2                !
 ! D87   D(19,18,23,24)         37.1846         estimate D2E/DX2                !
 ! D88   D(19,18,23,31)       -166.5351         estimate D2E/DX2                !
 ! D89   D(18,19,21,16)          3.094          estimate D2E/DX2                !
 ! D90   D(18,19,21,22)       -143.8236         estimate D2E/DX2                !
 ! D91   D(20,19,21,16)       -128.1763         estimate D2E/DX2                !
 ! D92   D(20,19,21,22)         84.9061         estimate D2E/DX2                !
 ! D93   D(16,21,22,5)         147.2993         estimate D2E/DX2                !
 ! D94   D(16,21,22,13)        -21.4637         estimate D2E/DX2                !
 ! D95   D(19,21,22,5)         -71.2702         estimate D2E/DX2                !
 ! D96   D(19,21,22,13)        119.9668         estimate D2E/DX2                !
 ! D97   D(18,23,24,25)        169.4672         estimate D2E/DX2                !
 ! D98   D(31,23,24,25)          9.3263         estimate D2E/DX2                !
 ! D99   D(18,23,31,27)       -167.1178         estimate D2E/DX2                !
 ! D100  D(18,23,31,30)         12.2419         estimate D2E/DX2                !
 ! D101  D(24,23,31,27)        -10.9724         estimate D2E/DX2                !
 ! D102  D(24,23,31,30)        168.3873         estimate D2E/DX2                !
 ! D103  D(23,24,25,26)         -0.5481         estimate D2E/DX2                !
 ! D104  D(23,24,25,40)        177.7248         estimate D2E/DX2                !
 ! D105  D(24,25,26,27)         -6.3196         estimate D2E/DX2                !
 ! D106  D(24,25,26,41)        174.2265         estimate D2E/DX2                !
 ! D107  D(40,25,26,27)        175.4903         estimate D2E/DX2                !
 ! D108  D(40,25,26,41)         -3.9636         estimate D2E/DX2                !
 ! D109  D(25,26,27,28)       -177.2802         estimate D2E/DX2                !
 ! D110  D(25,26,27,31)          3.4464         estimate D2E/DX2                !
 ! D111  D(41,26,27,28)          2.1734         estimate D2E/DX2                !
 ! D112  D(41,26,27,31)       -177.0999         estimate D2E/DX2                !
 ! D113  D(26,27,28,29)        177.1292         estimate D2E/DX2                !
 ! D114  D(31,27,28,29)         -3.5583         estimate D2E/DX2                !
 ! D115  D(26,27,31,23)          4.8492         estimate D2E/DX2                !
 ! D116  D(26,27,31,30)       -174.6579         estimate D2E/DX2                !
 ! D117  D(28,27,31,23)       -174.4755         estimate D2E/DX2                !
 ! D118  D(28,27,31,30)          6.0174         estimate D2E/DX2                !
 ! D119  D(27,28,29,30)          0.4022         estimate D2E/DX2                !
 ! D120  D(28,29,30,31)          3.1813         estimate D2E/DX2                !
 ! D121  D(29,30,31,23)        175.4656         estimate D2E/DX2                !
 ! D122  D(29,30,31,27)         -5.1286         estimate D2E/DX2                !
 --------------------------------------------------------------------------------
 Trust Radius=3.00D-01 FncErr=1.00D-07 GrdErr=1.00D-06
 Number of steps in this run=    246 maximum allowed number of steps=    246.
 GradGradGradGradGradGradGradGradGradGradGradGradGradGradGradGradGradGrad

                          Input orientation:                          
 ---------------------------------------------------------------------
 Center     Atomic      Atomic             Coordinates (Angstroms)
 Number     Number       Type             X           Y           Z
 ---------------------------------------------------------------------
      1          6           0       -1.028430    2.671410   -0.019550
      2          7           0        0.101150    3.455600   -0.018830
      3          1           0        0.090970    4.470320    0.007620
      4          6           0        1.241510    2.663230   -0.046200
      5          6           0        0.859300    1.328920   -0.107840
      6          6           0       -0.601320    1.371850   -0.048380
      7          6           0       -1.455200    0.229150   -0.016150
      8          6           0       -2.875660    0.241800   -0.000350
      9          6           0       -3.529850   -0.981700    0.002580
     10          7           0       -2.891590   -2.156350    0.006000
     11          6           0       -1.529340   -2.123290    0.009370
     12          6           0       -0.704310   -0.965760   -0.007550
     13          6           0        0.780900   -1.025670   -0.007300
     14          6           0        1.433840   -2.259630    0.057250
     15          6           0        2.793690   -2.399660    0.308870
     16          6           0        3.521970   -1.250740    0.632190
     17          6           0        4.868860   -0.981600    0.896410
     18          6           0        5.290590   -1.239100   -0.407300
     19          7           0        4.379230    0.068350   -0.779770
     20          1           0        4.787250    0.988420   -0.682290
     21          6           0        3.088770   -0.094770    0.008670
     22          6           0        1.654330    0.153030   -0.109110
     23          6           0        6.764600   -1.692900   -0.475960
     24          7           0        7.651770   -0.681230   -0.202530
     25          6           0        8.998550   -0.904060    0.000280
     26          6           0        9.723970   -2.088280   -0.008580
     27          6           0        8.904220   -3.213950   -0.126890
     28          7           0        9.378760   -4.471990   -0.104150
     29         16           0        8.050210   -5.450970   -0.195410
     30          7           0        6.802880   -4.321420   -0.280140
     31          6           0        7.351370   -3.078860   -0.313790
     32          1           0       -2.015470    3.136300    0.011710
     33          1           0        2.204030    3.134920   -0.010550
     34          1           0       -3.450990    1.154430   -0.004730
     35          1           0       -4.613550   -1.042770   -0.001330
     36          1           0       -1.108380   -3.117330    0.012820
     37          1           0        0.906960   -3.204490   -0.059490
     38          1           0        3.301570   -3.351720    0.223300
     39          1           0        5.394070   -0.081130    1.262670
     40          1           0        9.543470    0.021790    0.164100
     41          1           0       10.803140   -2.134340    0.076210
 ---------------------------------------------------------------------
                    Distance matrix (angstroms):
                    1          2          3          4          5
     1  C    0.000000
     2  N    1.375102   0.000000
     3  H    2.118932   1.015116   0.000000
     4  C    2.270111   1.388892   2.142945   0.000000
     5  C    2.318102   2.259531   3.236056   1.389341   0.000000
     6  C    1.368251   2.199171   3.175361   2.250264   1.462460
     7  C    2.479270   3.582208   4.514281   3.632890   2.564139
     8  C    3.052152   4.380668   5.165398   4.776664   3.891441
     9  C    4.427505   5.733607   6.544837   6.004479   4.961431
    10  N    5.174870   6.360117   7.266940   6.349299   5.121449
    11  C    4.820881   5.812341   6.789779   5.530956   4.199654
    12  C    3.651603   4.494143   5.493966   4.117922   2.778577
    13  C    4.116093   4.532546   5.539145   3.717749   2.358039
    14  C    5.512153   5.869046   6.862798   4.927702   3.638000
    15  C    6.358633   6.453002   7.388645   5.307372   4.221116
    16  C    6.042695   5.854526   6.700177   4.580379   3.780490
    17  C    6.997249   6.577041   7.303534   5.227903   4.735356
    18  C    7.441267   7.008666   7.733413   5.635035   5.130374
    19  N    6.049516   5.509488   6.195684   4.137247   3.798741
    20  H    6.090469   5.337292   5.886820   3.972640   3.984310
    21  C    4.960230   4.640232   5.461397   3.319931   2.647830
    22  C    3.680687   3.650683   4.593116   2.544697   1.419434
    23  C    8.943536   8.433124   9.097058   7.047346   6.643755
    24  N    9.306962   8.611560   9.151411   7.231963   7.084301
    25  C   10.645408   9.908114  10.403317   8.538114   8.440692
    26  C   11.758779  11.105556  11.653763   9.722674   9.501025
    27  C   11.545844  11.044846  11.693565   9.657374   9.238981
    28  N   12.623190  12.203606  12.893426  10.822641  10.306880
    29  S   12.183008  11.939251  12.720956  10.593437   9.883510
    30  N   10.502238  10.269543  11.064684   8.931344   8.202571
    31  C   10.167263   9.764828  10.478875   8.388897   7.849708
    32  H    1.091489   2.140786   2.493334   3.291666   3.397825
    33  H    3.265535   2.127207   2.499729   1.072477   2.253752
    34  H    2.858364   4.232408   4.851882   4.929275   4.315053
    35  H    5.162223   6.516443   7.247534   6.929515   5.965597
    36  H    5.789383   6.683365   7.681855   6.240220   4.863688
    37  H    6.186560   6.708784   7.718358   5.877265   4.533918
    38  H    7.421992   7.526016   8.458060   6.363655   5.289870
    39  H    7.104159   6.493512   7.100262   5.146689   4.942740
    40  H   10.900426  10.048976  10.448142   8.714584   8.786202
    41  H   12.770687  12.074314  12.584785  10.698431  10.531287
                    6          7          8          9         10
     6  C    0.000000
     7  C    1.426854   0.000000
     8  C    2.540067   1.420604   0.000000
     9  C    3.757404   2.402224   1.387417   0.000000
    10  N    4.206720   2.784657   2.398211   1.336858   0.000000
    11  C    3.616706   2.353746   2.721456   2.303327   1.362655
    12  C    2.340234   1.411283   2.484555   2.825603   2.490358
    13  C    2.767729   2.564136   3.870008   4.310986   3.842629
    14  C    4.164214   3.813917   4.983198   5.125847   4.326966
    15  C    5.087043   5.006930   6.262145   6.487803   5.698538
    16  C    4.933830   5.232842   6.599807   7.084981   6.507380
    17  C    6.029446   6.503262   7.891671   8.446139   7.899206
    18  C    6.454494   6.914799   8.309411   8.833709   8.243800
    19  N    5.199992   5.886386   7.298699   8.016746   7.644053
    20  H    5.439260   6.323639   7.729338   8.574647   8.326338
    21  C    3.971271   4.555568   5.973926   6.677785   6.325727
    22  C    2.564599   3.111850   4.532165   5.308089   5.100184
    23  C    7.989512   8.454041   9.843977  10.330078   9.679312
    24  N    8.506021   9.154258  10.569751  11.187537  10.648094
    25  C    9.866085  10.515005  11.929370  12.528641  11.955906
    26  C   10.889706  11.416846  12.813275  13.299939  12.615752
    27  C   10.554194  10.917178  12.276962  12.633519  11.843872
    28  N   11.565274  11.810298  13.130171  13.372574  12.487426
    29  S   11.019141  11.074688  12.321539  12.414160  11.428826
    30  N    9.342870   9.432564  10.703990  10.862733   9.937412
    31  C    9.117266   9.412077  10.757192  11.085987  10.289389
    32  H    2.262016   2.960777   3.019636   4.387637   5.364677
    33  H    3.313583   4.672633   5.845810   7.058620   7.345962
    34  H    2.858285   2.199875   1.078850   2.137598   3.357724
    35  H    4.683011   3.404875   2.161107   1.085426   2.050673
    36  H    4.518140   3.364528   3.795683   3.228705   2.025677
    37  H    4.818498   4.167921   5.117482   4.962855   3.941049
    38  H    6.133390   5.958761   7.149935   7.234225   6.311209
    39  H    6.306719   6.974536   8.371854   9.057329   8.633535
    40  H   10.236434  11.002101  12.422167  13.112772  12.625372
    41  H   11.931915  12.484451  13.883857  14.379451  13.694928
                   11         12         13         14         15
    11  C    0.000000
    12  C    1.421561   0.000000
    13  C    2.557783   1.486418   0.000000
    14  C    2.966701   2.499997   1.397553   0.000000
    15  C    4.342196   3.793705   2.457465   1.390005   0.000000
    16  C    5.163815   4.283915   2.823662   2.389289   1.398193
    17  C    6.559517   5.646027   4.186890   3.759909   2.581168
    18  C    6.889619   6.014428   4.532423   4.016442   2.845050
    19  N    6.351160   5.244815   3.839475   3.846481   3.128921
    20  H    7.075340   5.867821   4.534646   4.726744   4.054105
    21  C    5.043990   3.891830   2.488593   2.725394   2.343013
    22  C    3.915536   2.612506   1.470571   2.428419   2.826495
    23  C    8.319268   7.518827   6.038999   5.387253   4.108965
    24  N    9.296086   8.363196   6.882268   6.420396   5.178366
    25  C   10.598258   9.703059   8.218553   7.685418   6.390018
    26  C   11.253379  10.488521   9.005978   8.292162   6.944531
    27  C   10.491295   9.868761   8.413751   7.533340   6.179930
    28  N   11.158670  10.675733   9.263352   8.248778   6.915800
    29  S   10.143134   9.838395   8.512434   7.350159   6.098835
    30  N    8.622151   8.227555   6.870273   5.761198   4.484830
    31  C    8.937816   8.333844   6.890617   5.985480   4.649889
    32  H    5.282009   4.306554   5.014184   6.404364   7.339154
    33  H    6.448815   5.027328   4.397251   5.449675   5.575061
    34  H    3.799524   3.469793   4.760434   5.959967   7.192074
    35  H    3.268025   3.910003   5.394480   6.168882   7.536881
    36  H    1.079507   2.189279   2.818657   2.683376   3.978548
    37  H    2.666326   2.758768   2.183088   1.088114   2.084032
    38  H    4.989238   4.668316   3.437654   2.169942   1.082443
    39  H    7.326308   6.291762   4.877122   4.677854   3.612104
    40  H   11.279735  10.296685   8.826618   8.425105   7.172441
    41  H   12.332666  11.566936  10.083720   9.370157   8.017220
                   16         17         18         19         20
    16  C    0.000000
    17  C    1.398700   0.000000
    18  C    2.051510   1.394210   0.000000
    19  N    2.113888   2.037575   1.636685   0.000000
    20  H    2.888361   2.525853   2.300177   1.011193   0.000000
    21  C    1.383006   2.177905   2.516055   1.521030   2.129686
    22  C    2.451158   3.554105   3.905039   2.807496   3.292658
    23  C    3.455163   2.446053   1.543812   2.980653   3.337958
    24  N    4.251629   3.007072   2.434814   3.406552   3.350131
    25  C    5.523805   4.226512   3.745309   4.784577   4.667165
    26  C    6.291015   5.061209   4.531550   5.814811   5.855866
    27  C    5.779188   4.723840   4.127588   5.628080   5.909131
    28  N    6.724629   5.789917   5.220786   6.787227   7.157673
    29  S    6.231518   5.593597   5.039866   6.654357   7.235310
    30  N    4.585389   4.034737   3.435679   5.039225   5.693759
    31  C    4.347552   3.467844   2.764105   4.353813   4.822164
    32  H    7.091851   8.070551   8.526324   7.136592   7.167428
    33  H    4.624294   4.986946   5.368083   3.837583   3.425160
    34  H    7.403559   8.636815   9.072280   7.943085   8.267723
    35  H    8.162799   9.525008   9.914401   9.094539   9.641809
    36  H    5.030698   6.408547   6.682145   6.394577   7.217951
    37  H    3.336741   4.642374   4.816632   4.825655   5.746740
    38  H    2.151717   2.920093   2.969347   3.723490   4.675912
    39  H    2.295703   1.104915   2.034798   2.285565   2.301095
    40  H    6.172269   4.836843   4.472508   5.249994   4.926701
    41  H    7.355630   6.100592   5.605662   6.844791   6.820402
                   21         22         23         24         25
    21  C    0.000000
    22  C    1.460443   0.000000
    23  C    4.037402   5.445815   0.000000
    24  N    4.605378   6.055907   1.373066   0.000000
    25  C    5.964941   7.420712   2.416528   1.380073   0.000000
    26  C    6.928222   8.375719   3.022026   2.512254   1.388773
    27  C    6.600539   7.993608   2.648286   2.826486   2.315310
    28  N    7.663991   9.003202   3.833460   4.166777   3.589650
    29  S    7.303863   8.504090   3.981782   4.786358   4.648874
    30  N    5.634057   6.823307   2.636082   3.738666   4.071603
    31  C    5.213303   6.553112   1.513765   2.418935   2.746197
    32  H    6.040951   4.730954  10.032379  10.395911  11.731721
    33  H    3.348736   3.033736   6.657571   6.654151   7.904365
    34  H    6.658013   5.203652  10.615443  11.255223  12.618576
    35  H    7.760447   6.381839  11.406588  12.272297  13.612807
    36  H    5.172229   4.282836   8.015717   9.095119  10.346437
    37  H    3.799381   3.440053   6.063852   7.202761   8.412454
    38  H    3.270944   3.886794   3.902976   5.122215   6.204543
    39  H    2.624330   3.990271   2.738428   2.757561   3.906804
    40  H    6.457623   7.894960   3.327455   2.051142   1.086726
    41  H    7.979719   9.432239   4.099947   3.481430   2.185383
                   26         27         28         29         30
    26  C    0.000000
    27  C    1.397541   0.000000
    28  N    2.410472   1.344756   0.000000
    29  S    3.760859   2.395472   1.652808   0.000000
    30  N    3.686926   2.380253   2.586272   1.684902   0.000000
    31  C    2.589137   1.569880   2.468820   2.475742   1.358650
    32  H   12.849556  12.632676  13.701386  13.232612  11.552751
    33  H    9.155945   9.231155  10.457083  10.388912   8.764651
    34  H   13.568152  13.105300  14.009603  13.264436  11.627667
    35  H   14.375591  13.691599  14.406764  13.410470  11.881168
    36  H   10.881140  10.014041  10.574918   9.453518   8.007727
    37  H    8.887530   7.997550   8.566210   7.489404   6.004839
    38  H    6.549601   5.615274   6.188252   5.208815   3.667825
    39  H    4.938903   4.905771   6.084867   6.165733   4.727057
    40  H    2.124804   3.311092   4.504791   5.684204   5.154770
    41  H    1.083475   2.193788   2.743355   4.318847   4.573006
                   31         32         33         34         35
    31  C    0.000000
    32  H   11.245971   0.000000
    33  H    8.074536   4.219559   0.000000
    34  H   11.606345   2.447202   5.991797   0.000000
    35  H   12.140947   4.920855   7.995785   2.485809   0.000000
    36  H    8.466140   6.319074   7.075538   4.871967   4.073109
    37  H    6.450649   6.982212   6.470928   6.164001   5.928950
    38  H    4.094362   8.391072   6.582992   8.121235   8.248081
    39  H    3.911858   8.174230   4.705361   9.020421  10.132863
    40  H    3.827233  11.972155   7.974300  13.044821  14.197953
    41  H    3.599852  13.860035  10.085501  14.628834  15.455480
                   36         37         38         39         40
    36  H    0.000000
    37  H    2.018519   0.000000
    38  H    4.421188   2.415741   0.000000
    39  H    7.284401   5.624735   4.019404   0.000000
    40  H   11.105803   9.222157   7.095449   4.293596   0.000000
    41  H   11.952180   9.954799   7.601132   5.906047   2.498678
                   41
    41  H    0.000000
 Stoichiometry    C22H12N6S
 Framework group  C1[X(C22H12N6S)]
 Deg. of freedom   117
 Full point group                 C1      NOp   1
 Largest Abelian subgroup         C1      NOp   1
 Largest concise Abelian subgroup C1      NOp   1
                         Standard orientation:                         
 ---------------------------------------------------------------------
 Center     Atomic      Atomic             Coordinates (Angstroms)
 Number     Number       Type             X           Y           Z
 ---------------------------------------------------------------------
      1          6           0       -5.413539    2.052671   -0.021831
      2          7           0       -4.638150    3.188147   -0.002564
      3          1           0       -5.009996    4.132266    0.026246
      4          6           0       -3.289898    2.854860   -0.015129
      5          6           0       -3.170124    1.472492   -0.085684
      6          6           0       -4.550587    0.991182   -0.047596
      7          6           0       -4.940969   -0.381127   -0.030752
      8          6           0       -6.272555   -0.876071   -0.035804
      9          6           0       -6.447201   -2.252417   -0.045520
     10          7           0       -5.431987   -3.122148   -0.035626
     11          6           0       -4.171328   -2.605409   -0.012148
     12          6           0       -3.813384   -1.229652   -0.014072
     13          6           0       -2.404660   -0.755885    0.007863
     14          6           0       -1.355360   -1.676249    0.078949
     15          6           0       -0.038384   -1.323943    0.350185
     16          6           0        0.227884    0.006692    0.687020
     17          6           0        1.386622    0.736526    0.971677
     18          6           0        1.889181    0.656243   -0.326326
     19          7           0        0.576226    1.555416   -0.708915
     20          1           0        0.627879    2.559737   -0.603170
     21          6           0       -0.581148    0.936797    0.060063
     22          6           0       -2.007966    0.657554   -0.078178
     23          6           0        3.428846    0.758564   -0.374433
     24          7           0        3.893141    2.018029   -0.085487
     25          6           0        5.228073    2.288691    0.136547
     26          6           0        6.328277    1.441200    0.135420
     27          6           0        5.965636    0.098112    0.002286
     28          7           0        6.857418   -0.908063    0.028884
     29         16           0        5.966822   -2.295794   -0.084320
     30          7           0        4.399801   -1.684821   -0.184580
     31          6           0        4.469307   -0.328137   -0.207087
     32          1           0       -6.501796    2.134683   -0.003933
     33          1           0       -2.559527    3.638549    0.035835
     34          1           0       -7.135499   -0.228666   -0.046381
     35          1           0       -7.437663   -2.695967   -0.065512
     36          1           0       -3.423529   -3.383920   -0.004972
     37          1           0       -1.508950   -2.745978   -0.047863
     38          1           0        0.776776   -2.031561    0.269734
     39          1           0        1.551282    1.762305    1.347846
     40          1           0        5.404692    3.346739    0.310652
     41          1           0        7.351686    1.782443    0.235951
 ---------------------------------------------------------------------
 Rotational constants (GHZ):      0.4026684      0.0661558      0.0572460
 Standard basis: 6-31++G(d,p) (6D, 7F)
 There are   627 symmetry adapted basis functions of A   symmetry.
 Integral buffers will be    131072 words long.
 Raffenetti 2 integral format.
 Two-electron integral symmetry is turned on.
   627 basis functions,  1048 primitive gaussians,   627 cartesian basis functions
   101 alpha electrons      101 beta electrons
       nuclear repulsion energy      2497.6195163944 Hartrees.
 NAtoms=   41 NActive=   41 NUniq=   41 SFac= 1.00D+00 NAtFMM=   60 NAOKFM=F Big=F
 One-electron integrals computed using PRISM.
 NBasis=   627 RedAO= T  NBF=   627
 NBsUse=   618 1.00D-06 NBFU=   618
 Harris functional with IExCor=  402 diagonalized for initial guess.
 ExpMin= 3.60D-02 ExpMax= 2.19D+04 ExpMxC= 3.30D+03 IAcc=3 IRadAn=         5 AccDes= 0.00D+00
 HarFok:  IExCor=  402 AccDes= 0.00D+00 IRadAn=         5 IDoV= 1
 ScaDFX=  1.000000  1.000000  1.000000  1.000000
 FoFCou: FMM=F IPFlag=           0 FMFlag=      100000 FMFlg1=           0
         NFxFlg=           0 DoJE=T BraDBF=F KetDBF=T FulRan=T
         Omega=  0.000000  0.000000  1.000000  0.000000  0.000000 ICntrl=     500 IOpCl=  0
         NMat0=    1 NMatS0=    1 NMatT0=    0 NMatD0=    1 NMtDS0=    0 NMtDT0=    0
         I1Cent=           4 NGrid=           0.
 Petite list used in FoFCou.
 Initial guess orbital symmetries:
       Occupied  (A) (A) (A) (A) (A) (A) (A) (A) (A) (A) (A) (A)
                 (A) (A) (A) (A) (A) (A) (A) (A) (A) (A) (A) (A)
                 (A) (A) (A) (A) (A) (A) (A) (A) (A) (A) (A) (A)
                 (A) (A) (A) (A) (A) (A) (A) (A) (A) (A) (A) (A)
                 (A) (A) (A) (A) (A) (A) (A) (A) (A) (A) (A) (A)
                 (A) (A) (A) (A) (A) (A) (A) (A) (A) (A) (A) (A)
                 (A) (A) (A) (A) (A) (A) (A) (A) (A) (A) (A) (A)
                 (A) (A) (A) (A) (A) (A) (A) (A) (A) (A) (A) (A)
                 (A) (A) (A) (A) (A)
       Virtual   (A) (A) (A) (A) (A) (A) (A) (A) (A) (A) (A) (A)
                 (A) (A) (A) (A) (A) (A) (A) (A) (A) (A) (A) (A)
                 (A) (A) (A) (A) (A) (A) (A) (A) (A) (A) (A) (A)
                 (A) (A) (A) (A) (A) (A) (A) (A) (A) (A) (A) (A)
                 (A) (A) (A) (A) (A) (A) (A) (A) (A) (A) (A) (A)
                 (A) (A) (A) (A) (A) (A) (A) (A) (A) (A) (A) (A)
                 (A) (A) (A) (A) (A) (A) (A) (A) (A) (A) (A) (A)
                 (A) (A) (A) (A) (A) (A) (A) (A) (A) (A) (A) (A)
                 (A) (A) (A) (A) (A) (A) (A) (A) (A) (A) (A) (A)
                 (A) (A) (A) (A) (A) (A) (A) (A) (A) (A) (A) (A)
                 (A) (A) (A) (A) (A) (A) (A) (A) (A) (A) (A) (A)
                 (A) (A) (A) (A) (A) (A) (A) (A) (A) (A) (A) (A)
                 (A) (A) (A) (A) (A) (A) (A) (A) (A) (A) (A) (A)
                 (A) (A) (A) (A) (A) (A) (A) (A) (A) (A) (A) (A)
                 (A) (A) (A) (A) (A) (A) (A) (A) (A) (A) (A) (A)
                 (A) (A) (A) (A) (A) (A) (A) (A) (A) (A) (A) (A)
                 (A) (A) (A) (A) (A) (A) (A) (A) (A) (A) (A) (A)
                 (A) (A) (A) (A) (A) (A) (A) (A) (A) (A) (A) (A)
                 (A) (A) (A) (A) (A) (A) (A) (A) (A) (A) (A) (A)
                 (A) (A) (A) (A) (A) (A) (A) (A) (A) (A) (A) (A)
                 (A) (A) (A) (A) (A) (A) (A) (A) (A) (A) (A) (A)
                 (A) (A) (A) (A) (A) (A) (A) (A) (A) (A) (A) (A)
                 (A) (A) (A) (A) (A) (A) (A) (A) (A) (A) (A) (A)
                 (A) (A) (A) (A) (A) (A) (A) (A) (A) (A) (A) (A)
                 (A) (A) (A) (A) (A) (A) (A) (A) (A) (A) (A) (A)
                 (A) (A) (A) (A) (A) (A) (A) (A) (A) (A) (A) (A)
                 (A) (A) (A) (A) (A) (A) (A) (A) (A) (A) (A) (A)
                 (A) (A) (A) (A) (A) (A) (A) (A) (A) (A) (A) (A)
                 (A) (A) (A) (A) (A) (A) (A) (A) (A) (A) (A) (A)
                 (A) (A) (A) (A) (A) (A) (A) (A) (A) (A) (A) (A)
                 (A) (A) (A) (A) (A) (A) (A) (A) (A) (A) (A) (A)
                 (A) (A) (A) (A) (A) (A) (A) (A) (A) (A) (A) (A)
                 (A) (A) (A) (A) (A) (A) (A) (A) (A) (A) (A) (A)
                 (A) (A) (A) (A) (A) (A) (A) (A) (A) (A) (A) (A)
                 (A) (A) (A) (A) (A) (A) (A) (A) (A) (A) (A) (A)
                 (A) (A) (A) (A) (A) (A) (A) (A) (A) (A) (A) (A)
                 (A) (A) (A) (A) (A) (A) (A) (A) (A) (A) (A) (A)
                 (A) (A) (A) (A) (A) (A) (A) (A) (A) (A) (A) (A)
                 (A) (A) (A) (A) (A) (A) (A) (A) (A) (A) (A) (A)
                 (A) (A) (A) (A) (A) (A) (A) (A) (A) (A) (A) (A)
                 (A) (A) (A) (A) (A) (A) (A) (A) (A) (A) (A) (A)
                 (A) (A) (A) (A) (A) (A) (A) (A) (A) (A) (A) (A)
                 (A) (A) (A) (A) (A) (A) (A) (A) (A) (A) (A) (A)
                 (A)
 The electronic state of the initial guess is 1-A.
 Requested convergence on RMS density matrix=1.00D-08 within 128 cycles.
 Requested convergence on MAX density matrix=1.00D-06.
 Requested convergence on             energy=1.00D-06.
 No special actions if energy rises.
 EnCoef did     7 forward-backward iterations
 Restarting incremental Fock formation.
 SCF Done:  E(RB3LYP) =  -1571.91693038     A.U. after   26 cycles
             Convg  =    0.4801D-08             -V/T =  2.0082

 **********************************************************************

            Population analysis using the SCF density.

 **********************************************************************

 Orbital symmetries:
       Occupied  (A) (A) (A) (A) (A) (A) (A) (A) (A) (A) (A) (A)
                 (A) (A) (A) (A) (A) (A) (A) (A) (A) (A) (A) (A)
                 (A) (A) (A) (A) (A) (A) (A) (A) (A) (A) (A) (A)
                 (A) (A) (A) (A) (A) (A) (A) (A) (A) (A) (A) (A)
                 (A) (A) (A) (A) (A) (A) (A) (A) (A) (A) (A) (A)
                 (A) (A) (A) (A) (A) (A) (A) (A) (A) (A) (A) (A)
                 (A) (A) (A) (A) (A) (A) (A) (A) (A) (A) (A) (A)
                 (A) (A) (A) (A) (A) (A) (A) (A) (A) (A) (A) (A)
                 (A) (A) (A) (A) (A)
       Virtual   (A) (A) (A) (A) (A) (A) (A) (A) (A) (A) (A) (A)
                 (A) (A) (A) (A) (A) (A) (A) (A) (A) (A) (A) (A)
                 (A) (A) (A) (A) (A) (A) (A) (A) (A) (A) (A) (A)
                 (A) (A) (A) (A) (A) (A) (A) (A) (A) (A) (A) (A)
                 (A) (A) (A) (A) (A) (A) (A) (A) (A) (A) (A) (A)
                 (A) (A) (A) (A) (A) (A) (A) (A) (A) (A) (A) (A)
                 (A) (A) (A) (A) (A) (A) (A) (A) (A) (A) (A) (A)
                 (A) (A) (A) (A) (A) (A) (A) (A) (A) (A) (A) (A)
                 (A) (A) (A) (A) (A) (A) (A) (A) (A) (A) (A) (A)
                 (A) (A) (A) (A) (A) (A) (A) (A) (A) (A) (A) (A)
                 (A) (A) (A) (A) (A) (A) (A) (A) (A) (A) (A) (A)
                 (A) (A) (A) (A) (A) (A) (A) (A) (A) (A) (A) (A)
                 (A) (A) (A) (A) (A) (A) (A) (A) (A) (A) (A) (A)
                 (A) (A) (A) (A) (A) (A) (A) (A) (A) (A) (A) (A)
                 (A) (A) (A) (A) (A) (A) (A) (A) (A) (A) (A) (A)
                 (A) (A) (A) (A) (A) (A) (A) (A) (A) (A) (A) (A)
                 (A) (A) (A) (A) (A) (A) (A) (A) (A) (A) (A) (A)
                 (A) (A) (A) (A) (A) (A) (A) (A) (A) (A) (A) (A)
                 (A) (A) (A) (A) (A) (A) (A) (A) (A) (A) (A) (A)
                 (A) (A) (A) (A) (A) (A) (A) (A) (A) (A) (A) (A)
                 (A) (A) (A) (A) (A) (A) (A) (A) (A) (A) (A) (A)
                 (A) (A) (A) (A) (A) (A) (A) (A) (A) (A) (A) (A)
                 (A) (A) (A) (A) (A) (A) (A) (A) (A) (A) (A) (A)
                 (A) (A) (A) (A) (A) (A) (A) (A) (A) (A) (A) (A)
                 (A) (A) (A) (A) (A) (A) (A) (A) (A) (A) (A) (A)
                 (A) (A) (A) (A) (A) (A) (A) (A) (A) (A) (A) (A)
                 (A) (A) (A) (A) (A) (A) (A) (A) (A) (A) (A) (A)
                 (A) (A) (A) (A) (A) (A) (A) (A) (A) (A) (A) (A)
                 (A) (A) (A) (A) (A) (A) (A) (A) (A) (A) (A) (A)
                 (A) (A) (A) (A) (A) (A) (A) (A) (A) (A) (A) (A)
                 (A) (A) (A) (A) (A) (A) (A) (A) (A) (A) (A) (A)
                 (A) (A) (A) (A) (A) (A) (A) (A) (A) (A) (A) (A)
                 (A) (A) (A) (A) (A) (A) (A) (A) (A) (A) (A) (A)
                 (A) (A) (A) (A) (A) (A) (A) (A) (A) (A) (A) (A)
                 (A) (A) (A) (A) (A) (A) (A) (A) (A) (A) (A) (A)
                 (A) (A) (A) (A) (A) (A) (A) (A) (A) (A) (A) (A)
                 (A) (A) (A) (A) (A) (A) (A) (A) (A) (A) (A) (A)
                 (A) (A) (A) (A) (A) (A) (A) (A) (A) (A) (A) (A)
                 (A) (A) (A) (A) (A) (A) (A) (A) (A) (A) (A) (A)
                 (A) (A) (A) (A) (A) (A) (A) (A) (A) (A) (A) (A)
                 (A) (A) (A) (A) (A) (A) (A) (A) (A) (A) (A) (A)
                 (A) (A) (A) (A) (A) (A) (A) (A) (A) (A) (A) (A)
                 (A) (A) (A) (A) (A) (A) (A) (A) (A) (A) (A) (A)
                 (A)
 The electronic state is 1-A.
 Alpha  occ. eigenvalues --  -88.98906 -14.42984 -14.41238 -14.39747 -14.39061
 Alpha  occ. eigenvalues --  -14.36250 -14.33293 -10.28838 -10.28394 -10.27056
 Alpha  occ. eigenvalues --  -10.26107 -10.24516 -10.23980 -10.23647 -10.23342
 Alpha  occ. eigenvalues --  -10.23267 -10.23235 -10.22767 -10.22279 -10.22205
 Alpha  occ. eigenvalues --  -10.22175 -10.21952 -10.21591 -10.21523 -10.21080
 Alpha  occ. eigenvalues --  -10.20646 -10.20303 -10.20083 -10.19439  -8.04177
 Alpha  occ. eigenvalues --   -6.00751  -6.00163  -5.99910  -1.01812  -0.99938
 Alpha  occ. eigenvalues --   -0.99107  -0.94233  -0.93772  -0.90466  -0.87605
 Alpha  occ. eigenvalues --   -0.84040  -0.81634  -0.80832  -0.79597  -0.78361
 Alpha  occ. eigenvalues --   -0.76584  -0.75384  -0.73876  -0.72814  -0.68206
 Alpha  occ. eigenvalues --   -0.66535  -0.65104  -0.63632  -0.63329  -0.61768
 Alpha  occ. eigenvalues --   -0.58882  -0.58564  -0.57577  -0.56958  -0.55925
 Alpha  occ. eigenvalues --   -0.52936  -0.52531  -0.51678  -0.50684  -0.49762
 Alpha  occ. eigenvalues --   -0.49422  -0.48175  -0.47862  -0.47407  -0.45985
 Alpha  occ. eigenvalues --   -0.45530  -0.45117  -0.44133  -0.43924  -0.43581
 Alpha  occ. eigenvalues --   -0.42787  -0.41622  -0.41382  -0.40305  -0.40042
 Alpha  occ. eigenvalues --   -0.39636  -0.38967  -0.38348  -0.37565  -0.35888
 Alpha  occ. eigenvalues --   -0.35735  -0.35085  -0.33817  -0.32791  -0.32058
 Alpha  occ. eigenvalues --   -0.31195  -0.29262  -0.29056  -0.28504  -0.27796
 Alpha  occ. eigenvalues --   -0.25794  -0.25634  -0.23603  -0.21826  -0.21445
 Alpha  occ. eigenvalues --   -0.18034
 Alpha virt. eigenvalues --   -0.13167  -0.10987  -0.05655  -0.04710  -0.04378
 Alpha virt. eigenvalues --   -0.02862  -0.02813  -0.02567  -0.01592  -0.01431
 Alpha virt. eigenvalues --   -0.00296  -0.00192  -0.00029   0.00796   0.01059
 Alpha virt. eigenvalues --    0.01760   0.01981   0.02333   0.02481   0.02928
 Alpha virt. eigenvalues --    0.03327   0.03573   0.04246   0.04586   0.05053
 Alpha virt. eigenvalues --    0.05223   0.05865   0.06036   0.06146   0.06485
 Alpha virt. eigenvalues --    0.06746   0.06960   0.07108   0.07481   0.08050
 Alpha virt. eigenvalues --    0.08228   0.08277   0.08847   0.09004   0.09113
 Alpha virt. eigenvalues --    0.09509   0.09555   0.09948   0.10229   0.10483
 Alpha virt. eigenvalues --    0.10703   0.11011   0.11255   0.11326   0.11419
 Alpha virt. eigenvalues --    0.11586   0.11799   0.12603   0.12719   0.12794
 Alpha virt. eigenvalues --    0.12927   0.13197   0.13277   0.13708   0.13827
 Alpha virt. eigenvalues --    0.13852   0.14609   0.15040   0.15141   0.15208
 Alpha virt. eigenvalues --    0.15441   0.15712   0.15886   0.16105   0.16585
 Alpha virt. eigenvalues --    0.16675   0.17026   0.17223   0.17534   0.17927
 Alpha virt. eigenvalues --    0.18294   0.18513   0.18774   0.19014   0.19264
 Alpha virt. eigenvalues --    0.19487   0.19612   0.19943   0.19997   0.20146
 Alpha virt. eigenvalues --    0.20541   0.20904   0.21054   0.21355   0.21653
 Alpha virt. eigenvalues --    0.21777   0.22116   0.22315   0.22457   0.22698
 Alpha virt. eigenvalues --    0.23215   0.23540   0.23624   0.23786   0.23916
 Alpha virt. eigenvalues --    0.24423   0.24520   0.24771   0.24941   0.25454
 Alpha virt. eigenvalues --    0.25520   0.25702   0.25799   0.26112   0.26170
 Alpha virt. eigenvalues --    0.26543   0.26835   0.27143   0.27376   0.27538
 Alpha virt. eigenvalues --    0.27854   0.28302   0.28330   0.28527   0.29001
 Alpha virt. eigenvalues --    0.29198   0.29550   0.29648   0.29989   0.30443
 Alpha virt. eigenvalues --    0.30605   0.30780   0.31099   0.31305   0.31370
 Alpha virt. eigenvalues --    0.31857   0.32078   0.32357   0.32685   0.32857
 Alpha virt. eigenvalues --    0.33204   0.33314   0.33576   0.34051   0.34816
 Alpha virt. eigenvalues --    0.34872   0.35067   0.35288   0.35603   0.35661
 Alpha virt. eigenvalues --    0.35950   0.36486   0.36592   0.37121   0.37540
 Alpha virt. eigenvalues --    0.38457   0.38645   0.38769   0.39260   0.39640
 Alpha virt. eigenvalues --    0.40544   0.40628   0.41379   0.41677   0.42165
 Alpha virt. eigenvalues --    0.42617   0.42987   0.43201   0.43756   0.44498
 Alpha virt. eigenvalues --    0.44689   0.46292   0.46770   0.47174   0.48130
 Alpha virt. eigenvalues --    0.49922   0.50989   0.51791   0.52021   0.52839
 Alpha virt. eigenvalues --    0.54991   0.55333   0.56475   0.57333   0.61839
 Alpha virt. eigenvalues --    0.63198   0.63924   0.64070   0.66836   0.67445
 Alpha virt. eigenvalues --    0.67678   0.67862   0.68210   0.68465   0.68905
 Alpha virt. eigenvalues --    0.69585   0.70110   0.70797   0.71346   0.71797
 Alpha virt. eigenvalues --    0.71940   0.72745   0.72984   0.73715   0.73964
 Alpha virt. eigenvalues --    0.74213   0.74467   0.75372   0.76317   0.76685
 Alpha virt. eigenvalues --    0.77006   0.78156   0.78658   0.78872   0.79289
 Alpha virt. eigenvalues --    0.80043   0.80539   0.81319   0.81487   0.82108
 Alpha virt. eigenvalues --    0.83088   0.83432   0.84065   0.84604   0.85216
 Alpha virt. eigenvalues --    0.86295   0.87891   0.88371   0.88896   0.89898
 Alpha virt. eigenvalues --    0.90131   0.90841   0.91595   0.91664   0.92280
 Alpha virt. eigenvalues --    0.93206   0.94222   0.94589   0.94816   0.95484
 Alpha virt. eigenvalues --    0.95745   0.96808   0.97681   0.97866   0.98425
 Alpha virt. eigenvalues --    0.99265   0.99953   1.00057   1.01441   1.01648
 Alpha virt. eigenvalues --    1.01963   1.03035   1.03500   1.03901   1.04105
 Alpha virt. eigenvalues --    1.04708   1.05220   1.05411   1.06158   1.06974
 Alpha virt. eigenvalues --    1.08107   1.08740   1.09320   1.09972   1.10381
 Alpha virt. eigenvalues --    1.11662   1.12010   1.12456   1.13036   1.14194
 Alpha virt. eigenvalues --    1.15061   1.15483   1.16366   1.16861   1.17373
 Alpha virt. eigenvalues --    1.17535   1.19332   1.19845   1.20355   1.21033
 Alpha virt. eigenvalues --    1.21414   1.22179   1.22324   1.22804   1.23187
 Alpha virt. eigenvalues --    1.23630   1.24393   1.25035   1.25613   1.26050
 Alpha virt. eigenvalues --    1.27268   1.27406   1.28402   1.29309   1.30172
 Alpha virt. eigenvalues --    1.30519   1.31294   1.31559   1.32472   1.33311
 Alpha virt. eigenvalues --    1.33611   1.34855   1.35684   1.36284   1.36906
 Alpha virt. eigenvalues --    1.37100   1.37472   1.38072   1.38673   1.39833
 Alpha virt. eigenvalues --    1.40151   1.41556   1.41810   1.44219   1.44733
 Alpha virt. eigenvalues --    1.45019   1.46305   1.47947   1.48826   1.49483
 Alpha virt. eigenvalues --    1.50359   1.51644   1.52736   1.53381   1.54024
 Alpha virt. eigenvalues --    1.56333   1.56977   1.58175   1.60552   1.61616
 Alpha virt. eigenvalues --    1.62551   1.63976   1.66138   1.67197   1.68018
 Alpha virt. eigenvalues --    1.69698   1.72063   1.72347   1.74036   1.74513
 Alpha virt. eigenvalues --    1.76324   1.76598   1.77018   1.78302   1.78820
 Alpha virt. eigenvalues --    1.80547   1.81206   1.81932   1.82382   1.83745
 Alpha virt. eigenvalues --    1.84255   1.84908   1.85772   1.87738   1.89674
 Alpha virt. eigenvalues --    1.90267   1.90564   1.91533   1.92658   1.93335
 Alpha virt. eigenvalues --    1.93895   1.95350   1.96122   1.96552   1.97660
 Alpha virt. eigenvalues --    1.98226   1.99519   1.99745   2.00379   2.01234
 Alpha virt. eigenvalues --    2.02024   2.03143   2.03727   2.04897   2.05942
 Alpha virt. eigenvalues --    2.08073   2.08975   2.10682   2.10870   2.12248
 Alpha virt. eigenvalues --    2.12894   2.13309   2.14147   2.16022   2.16375
 Alpha virt. eigenvalues --    2.16846   2.17588   2.19113   2.20861   2.21310
 Alpha virt. eigenvalues --    2.22119   2.22858   2.24324   2.24908   2.26606
 Alpha virt. eigenvalues --    2.26981   2.28564   2.29425   2.30586   2.31224
 Alpha virt. eigenvalues --    2.32125   2.32331   2.33029   2.33694   2.34249
 Alpha virt. eigenvalues --    2.35229   2.36079   2.36746   2.37688   2.39273
 Alpha virt. eigenvalues --    2.39696   2.41788   2.42168   2.42591   2.44195
 Alpha virt. eigenvalues --    2.44677   2.45441   2.46069   2.47419   2.47755
 Alpha virt. eigenvalues --    2.49106   2.50177   2.50832   2.52061   2.53052
 Alpha virt. eigenvalues --    2.53989   2.54964   2.56115   2.57128   2.58352
 Alpha virt. eigenvalues --    2.58692   2.59519   2.60795   2.61264   2.62349
 Alpha virt. eigenvalues --    2.62550   2.63176   2.63910   2.64538   2.65325
 Alpha virt. eigenvalues --    2.65935   2.66393   2.67018   2.68299   2.69594
 Alpha virt. eigenvalues --    2.70318   2.71675   2.72168   2.73486   2.74133
 Alpha virt. eigenvalues --    2.74960   2.76554   2.77635   2.78171   2.78985
 Alpha virt. eigenvalues --    2.82115   2.82877   2.83839   2.84413   2.86072
 Alpha virt. eigenvalues --    2.86712   2.88113   2.89999   2.92867   2.95861
 Alpha virt. eigenvalues --    2.97242   2.99643   3.01828   3.03086   3.05474
 Alpha virt. eigenvalues --    3.07950   3.11374   3.14618   3.14993   3.15855
 Alpha virt. eigenvalues --    3.16501   3.21138   3.26565   3.27270   3.27724
 Alpha virt. eigenvalues --    3.31460   3.32956   3.36411   3.38827   3.42656
 Alpha virt. eigenvalues --    3.44877   3.48766   3.52416   3.60037   3.67246
 Alpha virt. eigenvalues --    3.69419   3.74183   3.78683   3.94385   4.07521
 Alpha virt. eigenvalues --    4.18202   4.25510   4.26262   4.29134   4.30853
 Alpha virt. eigenvalues --    4.31848   4.32758   4.35848   4.37337   4.40547
 Alpha virt. eigenvalues --    4.41727   4.42357   4.43901   4.45211   4.48195
 Alpha virt. eigenvalues --    4.50594   4.52227   4.53995   4.56126   4.59757
 Alpha virt. eigenvalues --    4.62293   4.65653   4.69092   4.73141   4.74042
 Alpha virt. eigenvalues --    4.83803   4.96598
          Condensed to atoms (all electrons):
              1          2          3          4          5          6
     1  C   11.786152   0.408234  -0.090408  -2.612488  -0.194251  -1.587134
     2  N    0.408234   6.674619   0.300080   0.336152  -0.138088  -0.123018
     3  H   -0.090408   0.300080   0.441271  -0.114741   0.095897   0.071982
     4  C   -2.612488   0.336152  -0.114741  11.015229  -3.280541   0.172671
     5  C   -0.194251  -0.138088   0.095897  -3.280541  11.641352   0.300604
     6  C   -1.587134  -0.123018   0.071982   0.172671   0.300604   9.832211
     7  C    3.245955   0.004727   0.011386  -2.102011  -0.099664  -0.252479
     8  C   -1.192592   0.000024   0.000413   0.665445   0.445085   0.160320
     9  C    0.352274   0.002238   0.000709  -0.255621  -0.327745  -0.113311
    10  N    0.000891   0.000021   0.000039   0.000599   0.020781   0.014112
    11  C   -0.291126  -0.017136  -0.000153  -0.059905  -0.503046  -0.812073
    12  C   -1.747045  -0.056216   0.002527   0.133224   0.793621  -0.093809
    13  C   -1.351429  -0.035550   0.000685   1.339708  -0.488560   0.588042
    14  C   -0.702078  -0.018442  -0.000490   0.757940   0.128849  -1.401514
    15  C    0.290699  -0.002596   0.000729  -0.662332  -0.104960   0.482144
    16  C   -0.130499   0.005701  -0.001487  -0.293436  -0.379579  -0.160443
    17  C   -0.115298  -0.004835  -0.000652  -0.106624   0.470122  -0.450034
    18  C    0.031153   0.001253   0.001176   0.052885  -0.711798   0.056805
    19  N    0.024824  -0.000939  -0.000009  -0.240185   0.097685   0.018098
    20  H    0.005384  -0.001207   0.000217  -0.020430   0.081027   0.002006
    21  C   -0.214778  -0.058373   0.005287  -0.658159  -0.094270  -1.158973
    22  C   -0.513689   0.038297   0.002716   1.295150  -1.302867   0.601515
    23  C    0.001981  -0.000244  -0.000216  -0.234514   0.211734  -0.018115
    24  N    0.000126   0.000003   0.000005   0.000553  -0.001911   0.000712
    25  C    0.000034   0.000004   0.000001  -0.000470   0.004625  -0.000255
    26  C   -0.000000   0.000003  -0.000001   0.000420  -0.003039   0.000444
    27  C    0.000098  -0.000001   0.000003  -0.001780  -0.001887   0.000055
    28  N   -0.000000   0.000000  -0.000000   0.000010  -0.000046  -0.000002
    29  S    0.000005  -0.000000  -0.000000  -0.000077   0.000141   0.000058
    30  N    0.000011  -0.000000  -0.000000  -0.000638   0.001549   0.000067
    31  C    0.000863   0.000068   0.000013   0.010068  -0.035156   0.008320
    32  H    0.532614  -0.077744  -0.022195  -0.027908  -0.030384  -0.135536
    33  H   -0.010353  -0.085661  -0.022164   0.600786  -0.271905  -0.016240
    34  H   -0.205720  -0.001338   0.000894   0.043451   0.049939   0.113479
    35  H    0.014111   0.000348  -0.000005  -0.006788  -0.014694  -0.013932
    36  H    0.029033  -0.000360  -0.000008  -0.027797  -0.078579  -0.025392
    37  H   -0.015380   0.000085  -0.000008   0.038057   0.034243  -0.007140
    38  H    0.004446   0.000119   0.000009  -0.018090  -0.006784   0.016930
    39  H    0.002677   0.000021   0.000017  -0.013985   0.021022   0.001596
    40  H    0.000004  -0.000001  -0.000001  -0.000160   0.000864  -0.000032
    41  H   -0.000000   0.000000  -0.000000   0.000003  -0.000031   0.000003
              7          8          9         10         11         12
     1  C    3.245955  -1.192592   0.352274   0.000891  -0.291126  -1.747045
     2  N    0.004727   0.000024   0.002238   0.000021  -0.017136  -0.056216
     3  H    0.011386   0.000413   0.000709   0.000039  -0.000153   0.002527
     4  C   -2.102011   0.665445  -0.255621   0.000599  -0.059905   0.133224
     5  C   -0.099664   0.445085  -0.327745   0.020781  -0.503046   0.793621
     6  C   -0.252479   0.160320  -0.113311   0.014112  -0.812073  -0.093809
     7  C   12.358287  -3.901312   1.262577  -0.025779  -1.571384  -1.071804
     8  C   -3.901312  10.505273  -2.286593   0.202784   0.426790   1.121681
     9  C    1.262577  -2.286593   8.113958  -0.079445  -0.142285  -0.451631
    10  N   -0.025779   0.202784  -0.079445   6.813696   0.186761   0.200356
    11  C   -1.571384   0.426790  -0.142285   0.186761  10.050732  -2.156433
    12  C   -1.071804   1.121681  -0.451631   0.200356  -2.156433  10.175880
    13  C   -1.334246   0.300731  -0.321376   0.026855   0.127612   0.572721
    14  C   -1.837407   0.735854  -0.435214  -0.000242   1.480242  -0.685502
    15  C    0.249985  -0.259521   0.054613   0.010816   0.279832  -0.671559
    16  C   -0.286911   0.116099  -0.046463  -0.000670  -0.073364  -0.183034
    17  C    0.036864   0.063827  -0.013689   0.001440  -0.156318   0.063077
    18  C    0.018734  -0.014851   0.005966   0.000047   0.054178   0.004056
    19  N    0.038757  -0.008549   0.002088  -0.000012  -0.003222  -0.006054
    20  H    0.002801  -0.001624   0.000264  -0.000006  -0.002500  -0.003828
    21  C   -0.050832  -0.222220   0.019930   0.002604   0.463886  -0.008298
    22  C    0.891723  -0.916680   0.334479  -0.000692  -1.281934   0.764614
    23  C    0.001621  -0.005539   0.001166   0.000081   0.010813  -0.028768
    24  N    0.000200   0.000005   0.000004  -0.000000   0.000029   0.000079
    25  C    0.000109   0.000011  -0.000001   0.000000   0.000052  -0.000109
    26  C   -0.000044  -0.000007   0.000002  -0.000000  -0.000028   0.000173
    27  C   -0.000072  -0.000052   0.000014  -0.000000   0.000363  -0.001122
    28  N    0.000000   0.000000  -0.000000   0.000000  -0.000000  -0.000002
    29  S    0.000018  -0.000004   0.000001   0.000000  -0.000025   0.000161
    30  N   -0.000021  -0.000015   0.000003   0.000001  -0.000063   0.000274
    31  C    0.000949  -0.000378   0.000133  -0.000023  -0.000197  -0.001026
    32  H    0.061152  -0.017106   0.019255  -0.001587  -0.004085  -0.032149
    33  H   -0.032449   0.015058  -0.003760   0.000073   0.004340   0.003891
    34  H   -0.389358   0.598884  -0.116048   0.025539   0.002850   0.123438
    35  H    0.078742  -0.341153   0.655787  -0.138651  -0.011165  -0.015038
    36  H   -0.022998  -0.042617   0.106956  -0.204869   0.794488  -0.480798
    37  H   -0.020602   0.016829  -0.039561   0.007829  -0.119795   0.029907
    38  H    0.012892  -0.009028   0.004400   0.000464  -0.002535   0.011990
    39  H    0.001666  -0.000764   0.000114   0.000009  -0.002926  -0.001483
    40  H    0.000013   0.000000  -0.000000   0.000000  -0.000007   0.000001
    41  H   -0.000001  -0.000000   0.000000  -0.000000  -0.000000   0.000001
             13         14         15         16         17         18
     1  C   -1.351429  -0.702078   0.290699  -0.130499  -0.115298   0.031153
     2  N   -0.035550  -0.018442  -0.002596   0.005701  -0.004835   0.001253
     3  H    0.000685  -0.000490   0.000729  -0.001487  -0.000652   0.001176
     4  C    1.339708   0.757940  -0.662332  -0.293436  -0.106624   0.052885
     5  C   -0.488560   0.128849  -0.104960  -0.379579   0.470122  -0.711798
     6  C    0.588042  -1.401514   0.482144  -0.160443  -0.450034   0.056805
     7  C   -1.334246  -1.837407   0.249985  -0.286911   0.036864   0.018734
     8  C    0.300731   0.735854  -0.259521   0.116099   0.063827  -0.014851
     9  C   -0.321376  -0.435214   0.054613  -0.046463  -0.013689   0.005966
    10  N    0.026855  -0.000242   0.010816  -0.000670   0.001440   0.000047
    11  C    0.127612   1.480242   0.279832  -0.073364  -0.156318   0.054178
    12  C    0.572721  -0.685502  -0.671559  -0.183034   0.063077   0.004056
    13  C   12.479405   1.099927  -2.729430   1.350574  -2.044177  -0.102360
    14  C    1.099927  10.272499  -0.553376  -0.378728  -0.411955  -0.795516
    15  C   -2.729430  -0.553376  12.900993  -1.464370  -2.152058  -0.454681
    16  C    1.350574  -0.378728  -1.464370  19.608665  -6.668601   0.053008
    17  C   -2.044177  -0.411955  -2.152058  -6.668601  22.126789  -7.057165
    18  C   -0.102360  -0.795516  -0.454681   0.053008  -7.057165  40.373362
    19  N   -0.288289  -0.020432   0.084956   0.165451   1.645502  -1.412942
    20  H    0.022232  -0.008390   0.049389   0.230570  -0.165529  -0.199221
    21  C   -2.426133   0.353299  -1.698867  -2.683493  -2.996727   5.741588
    22  C   -0.183426  -1.962723   1.576392  -3.994183  -2.128906   1.169202
    23  C   -0.831790   0.225162  -0.103293   0.175839   6.913686 -24.669011
    24  N   -0.003772  -0.012820  -0.017802  -0.016673  -0.105492   0.333923
    25  C   -0.025653  -0.005363   0.011299  -0.318428   0.351195  -1.953692
    26  C    0.019941   0.011137  -0.025706   0.393847  -0.333290   0.507532
    27  C   -0.013618   0.045906   0.108687   0.031552   0.362833  -2.712955
    28  N   -0.000070  -0.000967  -0.001697  -0.002459  -0.004239   0.081706
    29  S    0.000865   0.003030   0.015580  -0.012899   0.022688  -0.198648
    30  N   -0.001892  -0.002646   0.031464  -0.030141   0.045429   0.112543
    31  C    0.155933   0.110165   0.002131   0.727938  -1.560923  -0.517358
    32  H   -0.022601  -0.004511   0.002447  -0.001440  -0.001461  -0.000858
    33  H    0.029895   0.016709  -0.023644  -0.050906  -0.013411   0.038397
    34  H    0.035458   0.019603  -0.005839   0.002684   0.001627  -0.000372
    35  H   -0.012476  -0.010190   0.001670  -0.000989  -0.000225   0.000121
    36  H   -0.194980   0.069687   0.153328  -0.028338  -0.013152   0.006847
    37  H    0.015186   0.419026  -0.109667   0.077358   0.013252  -0.002350
    38  H   -0.005913  -0.151119   0.515550  -0.049684  -0.110280   0.015614
    39  H   -0.001858  -0.020704   0.074948   0.061371   0.277957  -0.064937
    40  H   -0.000464   0.000244   0.000817  -0.012586   0.009699  -0.062403
    41  H    0.000163   0.000061  -0.000616   0.004853  -0.002921  -0.002181
             19         20         21         22         23         24
     1  C    0.024824   0.005384  -0.214778  -0.513689   0.001981   0.000126
     2  N   -0.000939  -0.001207  -0.058373   0.038297  -0.000244   0.000003
     3  H   -0.000009   0.000217   0.005287   0.002716  -0.000216   0.000005
     4  C   -0.240185  -0.020430  -0.658159   1.295150  -0.234514   0.000553
     5  C    0.097685   0.081027  -0.094270  -1.302867   0.211734  -0.001911
     6  C    0.018098   0.002006  -1.158973   0.601515  -0.018115   0.000712
     7  C    0.038757   0.002801  -0.050832   0.891723   0.001621   0.000200
     8  C   -0.008549  -0.001624  -0.222220  -0.916680  -0.005539   0.000005
     9  C    0.002088   0.000264   0.019930   0.334479   0.001166   0.000004
    10  N   -0.000012  -0.000006   0.002604  -0.000692   0.000081  -0.000000
    11  C   -0.003222  -0.002500   0.463886  -1.281934   0.010813   0.000029
    12  C   -0.006054  -0.003828  -0.008298   0.764614  -0.028768   0.000079
    13  C   -0.288289   0.022232  -2.426133  -0.183426  -0.831790  -0.003772
    14  C   -0.020432  -0.008390   0.353299  -1.962723   0.225162  -0.012820
    15  C    0.084956   0.049389  -1.698867   1.576392  -0.103293  -0.017802
    16  C    0.165451   0.230570  -2.683493  -3.994183   0.175839  -0.016673
    17  C    1.645502  -0.165529  -2.996727  -2.128906   6.913686  -0.105492
    18  C   -1.412942  -0.199221   5.741588   1.169202 -24.669011   0.333923
    19  N    7.493039   0.157826  -1.404738  -1.072158   1.919310  -0.027428
    20  H    0.157826   0.550136   0.060382  -0.119604  -0.023308  -0.005108
    21  C   -1.404738   0.060382  20.957602   0.770511  -6.759869  -0.053271
    22  C   -1.072158  -0.119604   0.770511  13.914904  -1.973591   0.039183
    23  C    1.919310  -0.023308  -6.759869  -1.973591  39.192240  -0.522154
    24  N   -0.027428  -0.005108  -0.053271   0.039183  -0.522154   6.972433
    25  C   -0.017482  -0.019630  -0.048551   0.030747   0.739800  -0.405243
    26  C    0.020524   0.008189  -0.075345  -0.015228   0.184581   0.538704
    27  C    0.072398   0.012117  -0.715678  -0.080238   4.762692  -0.475900
    28  N   -0.001032  -0.000355   0.004662   0.000493   0.019959   0.003539
    29  S    0.003049   0.000501  -0.000534   0.000513  -0.470011   0.031086
    30  N    0.009041   0.001552   0.009513  -0.001654  -0.229522   0.006626
    31  C   -0.091518   0.007150   0.218724   0.011134 -12.129560   0.772339
    32  H    0.000064   0.000207  -0.017225   0.001231   0.000102   0.000000
    33  H   -0.003945  -0.013586  -0.022606   0.074491  -0.015574   0.000197
    34  H   -0.000242  -0.000070  -0.002106  -0.018117  -0.000097  -0.000000
    35  H    0.000032   0.000006   0.000666   0.010101   0.000024   0.000000
    36  H    0.000091  -0.000142   0.021924  -0.038938   0.003887   0.000024
    37  H   -0.003373  -0.000072  -0.006584  -0.003799  -0.027399  -0.000495
    38  H   -0.002286   0.002780  -0.063736   0.068281  -0.017232   0.000725
    39  H    0.014083   0.020569  -0.033504  -0.039319   0.010296  -0.023103
    40  H    0.000894  -0.000594   0.009138  -0.000198   0.033400  -0.135309
    41  H    0.000616   0.000216  -0.000411  -0.000196   0.011252   0.024063
             25         26         27         28         29         30
     1  C    0.000034  -0.000000   0.000098  -0.000000   0.000005   0.000011
     2  N    0.000004   0.000003  -0.000001   0.000000  -0.000000  -0.000000
     3  H    0.000001  -0.000001   0.000003  -0.000000  -0.000000  -0.000000
     4  C   -0.000470   0.000420  -0.001780   0.000010  -0.000077  -0.000638
     5  C    0.004625  -0.003039  -0.001887  -0.000046   0.000141   0.001549
     6  C   -0.000255   0.000444   0.000055  -0.000002   0.000058   0.000067
     7  C    0.000109  -0.000044  -0.000072   0.000000   0.000018  -0.000021
     8  C    0.000011  -0.000007  -0.000052   0.000000  -0.000004  -0.000015
     9  C   -0.000001   0.000002   0.000014  -0.000000   0.000001   0.000003
    10  N    0.000000  -0.000000  -0.000000   0.000000   0.000000   0.000001
    11  C    0.000052  -0.000028   0.000363  -0.000000  -0.000025  -0.000063
    12  C   -0.000109   0.000173  -0.001122  -0.000002   0.000161   0.000274
    13  C   -0.025653   0.019941  -0.013618  -0.000070   0.000865  -0.001892
    14  C   -0.005363   0.011137   0.045906  -0.000967   0.003030  -0.002646
    15  C    0.011299  -0.025706   0.108687  -0.001697   0.015580   0.031464
[...]
 1,0.00002179,-0.00000463,0.00000325,-0.00001697,0.00000266,-0.00001363
 ,0.00001314,-0.00000385,-0.00000603,-0.00003846,0.00000934,-0.00001172
 ,-0.00001193,0.00000619,0.00000172,0.00002681,0.00000067,-0.00002686,0
 .00008932,-0.00001506,0.00216100,0.00136232,-0.00005005,0.13849149,0.1
 6013246,0.00000553,0.00005667,0.00000174,-0.00003840,0.00006389,-0.000
 04245,-0.00001526,-0.00000072,-0.00002818,-0.00007387,0.00002201,0.000
 02608,0.00044748,0.00022490,0.00047946,0.00000748,-0.00010319,-0.00010
 015,-0.00002695,0.00010894,-0.00017116,0.00005059,-0.00000080,0.000172
 83,-0.00000360,-0.00002978,0.00006079,0.00002458,-0.00035832,-0.000358
 55,0.00015806,0.00044446,-0.00004980,0.00019418,-0.00084805,-0.0021669
 3,0.00606595,0.00346384,-0.00011174,0.04695472,0.03996131,-0.04690546,
 -0.00171957,-0.00071557,0.00370609,-0.00007138,0.00191108,0.00770608,0
 .00001239,0.00011185,0.00070618,-0.00001422,-0.00016355,-0.00058394,-0
 .00000970,-0.00005112,-0.00009205,-0.00001212,-0.00001446,-0.00005158,
 -0.00024038,-0.00003033,-0.00047030,-0.00051493,0.00210059,0.00394545,
 -0.00003811,-0.00007308,-0.00018547,0.00000453,0.00001008,-0.00001729,
 -0.00000375,0.00000657,0.00005402,0.00000373,0.00000191,-0.00000459,0.
 00000293,-0.00000147,0.00000239,0.00000283,0.00000496,-0.00000568,0.00
 000213,-0.00000902,0.00000503,-0.00000207,0.00000492,-0.00000835,0.000
 00513,-0.00000801,-0.00000142,0.00000114,0.00000881,-0.00000695,0.0000
 0345,0.00000508,0.00000662,-0.00000035,0.00000211,0.00002931,0.0000079
 0,-0.00001638,0.00002899,-0.00022934,-0.00008771,0.00171220,-0.0506226
 0,-0.04452178,0.03733627,0.00001879,0.00000441,0.00000006,0.00002754,0
 .00002107,-0.00000433,0.00000059,-0.00000095,0.00000201,0.00000218,0.0
 0004086,-0.00001432,0.00017834,-0.00003951,-0.00006553,-0.00006279,-0.
 00011642,0.00004293,-0.00045332,0.00005841,-0.00001694,0.00002018,0.00
 013977,-0.00003943,0.00001357,0.00002189,-0.00000474,-0.00004099,-0.00
 008661,0.00002174,0.00008065,0.00007267,-0.00001410,0.00056315,0.00129
 714,-0.00034984,-0.00483277,0.00108296,0.00051964,0.00117059,0.0288193
 1,-0.00739616,-0.06250847,0.02836059,-0.00570875,0.00825309,-0.0247662
 4,0.00613684,0.00148509,0.00069159,-0.00042828,0.00030877,-0.00023869,
 0.00002583,-0.00004642,-0.00158858,0.00041830,-0.00034445,-0.00002954,
 0.00004468,-0.00372382,-0.00152945,0.00095341,-0.00097212,-0.00017322,
 0.00006805,-0.00004756,0.00001699,0.00000538,-0.00007086,0.00000316,-0
 .00000170,0.00002892,0.00002055,-0.00000537,-0.00001711,0.00001425,-0.
 00000239,0.00000227,-0.00000682,0.00000208,0.00001223,0.00002678,-0.00
 000794,-0.00005607,0.00000464,0.00000291,0.00003590,0.00001020,-0.0000
 0669,0.00000396,-0.00003025,0.00001010,0.00000124,-0.00000063,0.000000
 81,0.00000780,0.00002157,-0.00000786,-0.00004864,0.00002189,-0.0000029
 7,-0.00000576,0.00000123,0.00000032,-0.00003672,-0.00002640,0.00000905
 ,0.00103834,-0.00019810,-0.00032914,0.06043933,0.00006655,0.00003003,-
 0.00000166,-0.00007536,-0.00002403,0.00002321,0.00000217,0.00000843,0.
 00000530,-0.00001418,-0.00003651,-0.00000435,0.00007304,-0.00002679,-0
 .00027339,-0.00000512,-0.00002942,0.00004438,0.00024358,0.00002707,-0.
 00014675,-0.00002466,-0.00005511,0.00000797,0.00001703,-0.00000644,0.0
 0000931,0.00006378,0.00000694,-0.00002026,-0.00002742,-0.00003660,0.00
 005211,-0.00027936,-0.00048559,0.00024753,0.00209406,0.00200862,0.0014
 8798,-0.00090614,-0.00798248,0.00304309,0.03007676,-0.31810774,0.07222
 435,0.00400804,-0.01295252,0.00386039,0.00083275,0.00104518,-0.0009868
 7,-0.00029800,-0.00054042,0.00008541,0.00003587,-0.00084795,0.00022102
 ,-0.00020808,0.00011579,0.00005018,-0.00261382,0.00106953,0.00125557,-
 0.00033818,0.00020241,-0.00018928,0.00031752,0.00009714,-0.00001580,-0
 .00018239,-0.00019314,0.00003963,0.00010206,0.00006530,-0.00001601,-0.
 00005653,-0.00000082,0.00000594,-0.00003143,-0.00000460,0.00000332,-0.
 00002042,-0.00002373,0.00000699,-0.00006440,0.00006794,-0.00001088,0.0
 0002866,-0.00002782,-0.00000240,-0.00002045,0.00005112,-0.00000152,0.0
 0000032,-0.00000338,0.00000387,-0.00000004,0.00000786,-0.00000960,0.00
 002357,-0.00001409,0.00000124,0.00000871,-0.00000357,0.00000160,-0.000
 00009,-0.00001521,0.00000368,0.00006520,0.00061841,-0.00151046,-0.0322
 4519,0.33611168,-0.00001624,0.00000172,0.00003816,0.00002075,0.0000174
 8,0.00004150,0.00000121,0.00000563,0.00002761,0.00000014,-0.00000798,-
 0.00005452,-0.00009450,-0.00026555,-0.00097756,0.00001401,0.00005222,0
 .00012665,-0.00006551,-0.00013585,-0.00044027,0.00000345,-0.00000162,-
 0.00002690,-0.00000318,0.00000807,0.00002834,-0.00001771,-0.00001097,-
 0.00005239,0.00001202,0.00004695,0.00014710,0.00006151,0.00014842,0.00
 034714,0.00025619,0.00154828,0.00776933,0.00037526,0.00121297,0.003105
 09,-0.00615524,0.07233253,-0.05335767,-0.00138957,0.00563138,0.0013695
 1,-0.00046410,-0.00097815,-0.00225045,0.00004180,0.00008189,-0.0003058
 0,-0.00000648,0.00032070,-0.00007966,0.00009156,0.00003935,0.00024334,
 0.00123528,0.00118883,0.00486645,0.00011269,-0.00019930,-0.00055522,-0
 .00007365,0.00000272,0.00011630,0.00004657,0.00002770,-0.00009707,-0.0
 0002633,-0.00001099,0.00003362,0.00001579,0.00000076,0.00000343,0.0000
 0932,0.00000347,0.00000637,0.00000372,0.00000310,-0.00000574,0.0000216
 3,-0.00001451,0.00001451,-0.00001180,-0.00000126,-0.00002873,0.0000075
 9,-0.00000086,0.00003930,0.00000065,0.00000389,0.00001070,-0.00000224,
 -0.00001072,-0.00002517,-0.00000339,0.00000136,-0.00000424,-0.00000164
 ,0.00000206,0.00000406,0.00000225,0.00000544,-0.00000267,-0.00039835,-
 0.00149451,-0.00472706,0.00618744,-0.07962311,0.04446033,-0.00002564,-
 0.00000582,0.00000231,0.00004015,0.00005037,-0.00001527,-0.00000345,0.
 00000720,-0.00000176,-0.00006807,-0.00008090,0.00002413,-0.00045251,-0
 .00000761,0.00003689,0.00005221,0.00010941,-0.00003588,-0.00000625,-0.
 00001183,0.00000490,0.00000229,-0.00001543,0.00000388,-0.00001908,-0.0
 0000021,0.00000089,-0.00000384,-0.00000363,0.00000062,-0.00000721,0.00
 004770,-0.00001161,-0.00001953,-0.00006438,0.00001885,0.00010570,-0.00
 007214,0.00000214,-0.00009640,0.00000747,-0.00000633,0.00178069,-0.000
 03762,-0.00023211,-0.00311809,0.02328690,-0.00583398,-0.12398762,0.126
 68080,-0.02727337,0.01188102,-0.01263915,0.00256776,-0.00122381,-0.004
 76290,0.00158549,0.00102902,-0.00045790,0.00018891,-0.00590141,-0.0000
 3694,0.00059301,0.00068921,0.00128447,-0.00033359,0.00112640,0.0007737
 6,-0.00044940,-0.00030600,-0.00012973,0.00003939,0.00015541,0.00014391
 ,-0.00002885,-0.00011589,-0.00002596,0.00001296,0.00016117,-0.00018935
 ,0.00005588,0.00056802,0.00048240,-0.00016455,-0.00131733,0.00076950,-
 0.00012456,-0.00205359,0.00002306,0.00010191,-0.00008878,-0.00088446,0
 .00024879,0.00000871,0.00001575,-0.00000422,0.00004382,0.00005356,-0.0
 0001554,-0.00000036,0.00000158,-0.00000033,0.00000025,-0.00000079,0.00
 000027,-0.00000761,-0.00000920,0.00000277,-0.00003002,-0.00000637,0.00
 001114,-0.00042401,-0.00064355,0.00020825,0.12163231,0.00002539,-0.000
 01463,-0.00000039,0.00001104,0.00000993,-0.00000186,0.00000230,0.00000
 525,-0.00000189,-0.00002245,-0.00002424,0.00000172,-0.00005561,0.00002
 595,0.00002626,-0.00001742,0.00000457,-0.00001799,-0.00000666,0.000006
 53,0.00000498,0.00001213,-0.00000008,-0.00000216,-0.00000141,-0.000001
 26,0.00000047,0.00001056,-0.00000183,-0.00000237,-0.00000507,-0.000001
 65,0.00000068,0.00002988,-0.00000342,0.00000503,0.00001252,0.00008924,
 -0.00006613,0.00018762,-0.00014761,-0.00001907,0.00019250,0.00028246,-
 0.00064868,-0.00146530,0.00408131,-0.00071551,0.12080818,-0.28303943,0
 .05901122,0.01467325,-0.01168115,0.00212703,-0.00227529,-0.00230105,0.
 00187191,0.00096645,-0.00007771,0.00052439,-0.00122124,0.00029007,0.00
 093758,-0.00001772,0.00023735,0.00012782,0.00022527,0.00014123,-0.0008
 0622,-0.00030434,-0.00012673,-0.00000422,0.00015824,0.00002013,0.00006
 257,-0.00007725,0.00008061,-0.00001817,0.00003873,-0.00020718,0.000117
 35,0.00050273,0.00027381,-0.00011659,0.00000675,0.00047492,-0.00014297
 ,0.00170081,-0.00075485,0.00001542,-0.00076080,-0.00043852,0.00021165,
 0.00000456,0.00000076,0.00000135,0.00002811,0.00003555,-0.00000623,-0.
 00000064,-0.00000068,0.00000071,0.00000164,0.00000020,0.00000027,-0.00
 000166,-0.00000042,-0.00000007,0.00001089,0.00000461,0.00003066,0.0003
 2116,-0.00011194,0.00006861,-0.13369470,0.29286136,-0.00000576,0.,-0.0
 0001173,-0.00000489,-0.00000416,0.00000634,-0.00000053,-0.00000223,-0.
 00000067,0.00000846,0.00000498,-0.00002532,0.00004914,0.00002371,0.000
 10691,-0.00000205,-0.00002496,-0.00005993,0.00000424,0.00000489,0.0000
 2036,-0.00000355,0.00000029,-0.00000163,0.00000118,-0.00000020,-0.0000
 0494,-0.00000329,-0.00000226,-0.00000759,0.00000264,-0.00000107,0.0000
 0352,-0.00000578,0.00000911,0.00001467,-0.00002056,-0.00006176,-0.0001
 4665,-0.00005353,-0.00000680,-0.00016558,-0.00029301,-0.00063461,-0.00
 196900,0.00063724,-0.00223872,0.00154532,-0.02573959,0.05865327,-0.042
 66468,-0.00457185,0.00380560,-0.00080670,0.00093520,0.00202357,0.00373
 547,-0.00018289,0.00061194,0.00200788,0.00090353,0.00086407,0.00330629
 ,0.00000722,0.00004844,0.00070953,-0.00030532,-0.00083906,-0.00265115,
 0.00008509,-0.00001521,-0.00021632,-0.00003294,0.00006396,0.00028306,0
 .00002635,-0.00002382,-0.00000855,-0.00000478,0.00013510,0.00022478,-0
 .00016952,-0.00011657,-0.00001389,0.00007355,-0.00018919,-0.00002661,-
 0.00033532,0.00011850,-0.00030545,0.00021569,0.00021876,0.00012150,-0.
 00000142,0.00000089,0.00000729,-0.00000858,-0.00000740,0.00002191,0.00
 000014,0.00000067,0.00000162,-0.00000038,0.00000028,0.00000160,0.00000
 066,0.00000030,-0.00000097,0.00000656,0.00003175,0.00011587,-0.0000440
 3,0.00012797,0.00019540,0.02883443,-0.06256191,0.03670344,-0.00000307,
 -0.00000551,0.00000157,-0.00000260,0.00009388,-0.00002528,-0.00003161,
 0.00000308,0.00000229,-0.00002018,-0.00002737,0.00000755,-0.00000188,-
 0.00003488,0.00000930,0.00003786,0.00001600,-0.00000688,-0.00003575,-0
 .00002331,0.00000887,0.00001512,0.00000110,-0.00000149,-0.00001267,-0.
 00000404,0.00000196,0.00000034,0.00001174,-0.00000327,-0.00000862,-0.0
 0000230,0.00000120,0.00002203,0.00000467,-0.00000308,-0.00003290,-0.00
 002341,0.00000898,-0.00005104,0.00001975,-0.00000249,0.00001776,0.0000
 6223,-0.00001678,-0.00005463,-0.00014104,0.00003784,-0.00029003,0.0001
 5182,-0.00003077,0.00039852,-0.00108014,0.00028199,-0.00003318,0.00004
 534,-0.00000808,-0.00002635,-0.00014839,0.00003918,-0.00005819,0.00005
 428,-0.00000876,0.00004901,-0.00005446,0.00001065,-0.00402400,-0.00271
 443,0.00135210,-0.01083050,-0.03519903,0.00980221,-0.05481806,-0.01092
 348,0.00363603,0.00630979,0.02491330,-0.00649052,-0.00428784,0.0023194
 8,0.00018792,0.00051045,0.00119224,-0.00028603,-0.00005169,0.00040264,
 -0.00018994,0.00038306,-0.00012941,-0.00001110,-0.00095348,0.00003208,
 0.00004365,0.00000164,0.00000227,-0.00000047,-0.00002297,-0.00002509,0
 .00000990,-0.00000317,0.00000277,-0.00000044,-0.00000023,0.00000082,-0
 .00000017,0.00000316,0.00000345,-0.00000105,-0.00000661,0.00000181,0.,
 0.00000098,-0.00000268,0.00000075,-0.00000591,0.00000091,0.00000202,0.
 06727607,-0.00002958,-0.00000019,0.00000135,0.00000797,0.00006579,-0.0
 0002164,-0.00001101,-0.00001168,0.00000863,0.00001712,-0.00002593,0.00
 000115,-0.00001510,-0.00000706,0.00000417,0.00002050,0.00001061,-0.000
 00534,-0.00002716,-0.00001814,0.00000789,0.00000325,-0.00001058,0.0000
 0222,-0.00001244,-0.00000072,0.00000033,-0.00002928,0.00001473,-0.0000
 0275,0.00001201,0.00001260,-0.00000310,0.00001139,-0.00000101,-0.00000
 363,-0.00002261,-0.00006102,0.00002023,-0.00008704,0.00006907,-0.00001
 351,0.00009440,0.00006697,-0.00002065,-0.00015127,-0.00004545,0.000010
 50,0.00006623,0.00015051,-0.00008107,-0.00018892,-0.00045994,0.0002331
 7,-0.00008601,-0.00007250,0.00003275,0.00013443,-0.00004132,-0.0000035
 0,-0.00001361,-0.00001536,0.00001284,0.00004758,-0.00005785,0.00001022
 ,-0.00022833,0.00258508,0.00101617,-0.00905015,-0.00800656,0.00236581,
 -0.01229977,-0.31645020,0.07247364,-0.00315989,-0.01272506,0.00526603,
 0.00305246,0.00080087,0.00185849,-0.00016981,-0.00072648,0.00044313,0.
 00023192,-0.00027118,-0.00031706,-0.00013126,-0.00003019,-0.00007377,0
 .00012247,0.00040466,-0.00014231,-0.00000215,0.00000212,0.00000071,0.0
 0000799,-0.00001759,0.00001270,-0.00000205,0.00000629,-0.00000107,-0.0
 0000455,0.00000194,-0.00000004,0.00000608,0.00000257,-0.00000073,-0.00
 000979,-0.00000136,0.00000128,0.00000057,-0.00000850,0.00000265,0.0000
 0514,0.00000376,0.00000622,0.02176232,0.33458205,0.00000802,0.00000021
 ,-0.00000108,-0.00000288,-0.00002681,-0.00000791,0.00000596,0.00000773
 ,0.00001663,-0.00000408,0.00000496,-0.00001444,0.00000386,0.00000385,-
 0.00000154,-0.00000818,-0.00000579,-0.00000494,0.00001020,0.00000899,0
 .00000885,-0.00000213,0.00000142,-0.00000537,0.00000398,0.00000078,0.0
 0000065,0.00000743,-0.00000503,-0.00000119,-0.00000277,-0.00000318,0.0
 0000076,-0.00000436,-0.00000154,-0.00000609,0.00000872,0.00002118,0.00
 000812,0.00002547,-0.00002130,-0.00000423,-0.00002528,-0.00001905,0.00
 001517,0.00004068,0.00001062,-0.00004323,-0.00000820,-0.00008576,-0.00
 011827,0.00004858,0.00028785,0.00030816,0.00002643,0.00002397,0.000021
 53,-0.00003475,0.00001486,-0.00002077,0.00000894,0.00000837,0.00002669
 ,-0.00001625,0.00001587,-0.00001307,0.00070250,0.00116834,0.00606735,0
 .00296660,0.00397564,-0.00230897,0.00399498,0.07238772,-0.06130287,0.0
 0084914,0.00353946,0.00569907,-0.00000434,0.00190314,0.00812712,0.0000
 7073,0.00035993,0.00083141,-0.00014608,-0.00032829,-0.00133608,-0.0000
 1038,-0.00007513,-0.00032763,0.00001996,-0.00013550,-0.00007124,0.0000
 0062,0.00000033,0.00000341,0.00000134,0.00001434,0.00002750,0.00000083
 ,-0.00000144,0.00000191,0.00000137,-0.00000045,0.00000067,-0.00000173,
 -0.00000078,0.00000102,0.00000303,0.00000052,0.00000085,-0.00000011,0.
 00000286,0.00000077,0.00000081,0.00000682,0.00002794,-0.00820527,-0.08
 191112,0.04831144,-0.00001687,0.00001463,-0.00000058,-0.00000203,0.000
 00622,-0.00000187,-0.00000281,-0.00000565,0.00000221,0.00001676,-0.000
 00416,0.00000109,0.00000419,-0.00000195,-0.00000455,-0.00000673,-0.000
 00592,0.00000006,0.00000003,0.00000308,0.00000296,-0.00000226,0.000000
 70,-0.00000504,-0.00000031,-0.00000098,0.00000580,-0.00000399,0.000003
 55,-0.00000009,-0.00000321,-0.00000749,-0.00000334,0.00001138,0.000000
 29,0.00000779,0.00001106,0.00003178,-0.00000556,0.00000208,-0.00003109
 ,0.00000008,-0.00002123,-0.00000135,0.00000331,0.00002842,-0.00007756,
 0.00003126,-0.00010922,-0.00005496,0.00001512,-0.00002294,-0.00000673,
 -0.00009249,-0.00019580,-0.00010251,0.00004212,0.00021305,-0.00000487,
 -0.00000486,0.00018524,0.00005882,-0.00003388,-0.00004240,-0.00000736,
 0.00000568,0.00052628,0.00085530,-0.00025434,-0.00240686,0.00378049,-0
 .00029971,-0.01577187,-0.01305197,0.00443487,-0.30343429,-0.09769815,0
 .04226861,0.00084142,0.00067993,-0.00008997,0.00054285,-0.00020167,-0.
 00011347,0.00021376,-0.00046918,0.00007583,0.00011071,0.00044428,-0.00
 008052,0.00109034,0.00054329,0.00008045,-0.00000124,0.00000007,-0.0000
 0052,0.00000263,-0.00001406,0.00000224,0.00000125,-0.00000011,0.000000
 25,-0.00000249,0.00000218,-0.00000032,0.00000261,0.00000213,-0.0000009
 9,-0.00000114,-0.00000058,-0.00000015,-0.00000160,-0.00000216,0.000000
 13,0.00000603,-0.00000406,-0.00000374,0.00064138,0.00012792,-0.0003333
 9,0.31759780,0.00001255,0.00000314,-0.00000167,-0.00000439,-0.00001365
 ,0.00000259,0.00000331,0.00000450,0.00000059,-0.00000670,0.00000492,-0
 .00000332,0.00000334,-0.00000342,-0.00000228,-0.00000653,-0.00000572,0
 .00000421,0.00000695,0.00000521,-0.00000334,-0.00000017,0.00000474,-0.
 00000233,0.00000298,-0.00000007,0.00000130,0.00000953,-0.00000384,0.00
 000067,-0.00000627,-0.00000756,0.00000090,0.00000443,0.00000130,0.0000
 0321,0.00000445,0.00003224,-0.00001023,0.00003408,-0.00003614,0.000001
 30,-0.00004604,-0.00001774,0.00002018,0.00011685,0.00003096,0.00002880
 ,-0.00005778,-0.00007598,-0.00000546,0.00020648,0.00021252,-0.00047792
 ,-0.00004472,0.00012294,-0.00001646,-0.00013252,0.00000816,0.00003092,
 -0.00002193,0.00005756,-0.00003901,-0.00002094,0.00001676,0.00000606,0
 .00015478,-0.00183145,0.00048191,0.00407537,-0.00062910,0.00220495,0.0
 1705725,0.01195282,-0.00394866,-0.09782866,-0.09532266,0.02267754,-0.0
 2888809,-0.00585305,0.00393829,0.00034242,0.00290596,-0.00135295,-0.00
 062124,-0.00032295,-0.00002062,-0.00121552,-0.00145955,0.00064524,0.00
 218587,-0.00334170,0.00196065,0.00000106,-0.00000013,0.00000010,-0.000
 00524,0.00000684,-0.00000115,0.00000088,-0.00000214,0.00000078,0.00000
 100,0.00000004,0.00000017,-0.00000122,-0.00000009,-0.00000017,0.000003
 02,-0.00000009,-0.00000213,0.00000293,0.00000497,-0.00000279,0.0000375
 9,0.00000481,-0.00002435,-0.00055903,0.00028629,-0.00114859,0.10519988
 ,0.09326035,-0.00000270,-0.00000278,-0.00000314,0.00000095,0.00000175,
 -0.00000507,-0.00000017,0.00000144,0.00000699,0.00000009,-0.00000424,-
 0.00001086,-0.00000080,0.00000005,-0.00000445,0.00000298,0.00000609,0.
 00001126,-0.00000324,-0.00000422,-0.00001168,0.00000031,-0.00000075,0.
 00000392,-0.00000044,-0.00000079,-0.00000257,-0.00000215,0.00000083,-0
 .00000018,0.00000213,0.00000314,0.00000223,-0.00000259,-0.00000054,0.0
 0000199,-0.00000230,-0.00001390,-0.00000841,-0.00001005,0.00000785,-0.
 00001373,0.00001655,0.00001796,0.00004516,-0.00002235,0.00003963,0.000
 15570,0.00001481,-0.00000578,-0.00011174,-0.00014839,-0.00046474,-0.00
 143698,0.00002653,-0.00001331,0.00005031,0.00002741,0.00002277,0.00008
 579,-0.00001147,-0.00004354,-0.00008272,0.00001089,0.00000552,0.000034
 61,-0.00007067,0.00043916,-0.00005950,-0.00037850,0.00222280,0.0082031
 5,-0.00343519,-0.00209655,0.00162493,0.04229585,0.02266786,-0.04013654
 ,0.00765160,0.00212245,0.00140264,-0.00025917,-0.00132099,-0.00183100,
 0.00011690,-0.00002884,-0.00054736,0.00035497,0.00054375,0.00056176,-0
 .00035104,0.00206123,0.00415131,0.00000008,0.00000017,0.00000145,0.000
 00127,0.,0.00000337,-0.00000028,0.00000091,0.00000039,-0.00000024,0.00
 000019,0.00000078,0.00000014,-0.00000011,-0.00000069,-0.00000114,-0.00
 000183,-0.00000718,-0.00000098,-0.00000259,-0.00000386,-0.00001505,-0.
 00002208,-0.00007331,-0.00015409,-0.00119100,-0.00391810,-0.04565050,-
 0.02494694,0.03192133\\0.00000243,0.00000480,0.00002182,0.00000051,-0.
 00001021,-0.00001203,-0.00000213,0.00000036,-0.00000163,0.00000321,0.0
 0001168,0.00000532,-0.00000779,-0.00000577,-0.00000462,-0.00000232,0.0
 0000171,-0.00000600,0.00000243,-0.00000339,-0.00000005,0.00000094,-0.0
 0000432,0.00000212,-0.00000297,-0.00000866,0.00000102,-0.00000328,0.00
 000327,-0.00000083,0.00000082,-0.00000325,0.00000059,-0.00000559,0.000
 00746,-0.00000486,0.00001141,-0.00001619,-0.00000008,-0.00000562,0.000
 00833,0.00000008,0.00001095,-0.00000865,-0.00000072,-0.00000505,-0.000
 00562,-0.00001593,0.00001819,-0.00000218,0.00000184,0.00001908,-0.0000
 0431,-0.00001461,-0.00000429,-0.00000505,0.00000787,-0.00000883,0.0000
 0849,-0.00000207,-0.00000066,0.00001835,0.00001237,-0.00001233,0.00000
 514,0.00000021,-0.00000823,0.00001802,0.00001055,-0.00001141,-0.000010
 23,0.00000058,0.00000158,0.00000397,-0.00000690,-0.00000049,0.00000222
 ,0.00000185,-0.00000981,0.00000263,-0.00000001,0.00000781,-0.00000591,
 -0.00000009,0.00000469,-0.00000029,0.00000151,-0.00000042,-0.00000345,
 -0.00000020,0.00001205,0.00000188,-0.00000617,-0.00000174,-0.00000246,
 -0.00000441,-0.00000049,-0.00000416,0.00000178,-0.00000112,-0.00000100
 ,-0.00000005,0.00000009,-0.00000020,0.00000158,0.00000033,0.00000118,0
 .,0.00000264,0.00000004,0.00000336,0.00000009,0.00000161,0.00000113,-0
 .00000496,0.00000009,0.00000502,0.00000024,0.00000071,0.00000077,0.000
 00002,0.00000337,-0.00000011\\\@


 NATURE REVEALS EVERY SECRET ONCE.
                    - RALPH WALDO EMERSON
 Job cpu time:  0 days 17 hours 21 minutes 37.7 seconds.
 File lengths (MBytes):  RWF=   1626 Int=      0 D2E=      0 Chk=     28 Scr=      1
 Normal termination of Gaussian 09 at Mon Dec 30 07:52:27 2013.
