 Entering Gaussian System, Link 0=g09
 Initial command:
 /opt/gaussian/g09/l1.exe /panfs/panfs.cluster/home/shuo/Gau-22668.inp -scrdir=/panfs/panfs.cluster/home/shuo/
 Default is to use a total of  12 processors:
                               12 via shared-memory
                                1 via Linda
 Entering Link 1 = /opt/gaussian/g09/l1.exe PID=     22669.
  
 Copyright (c) 1988,1990,1992,1993,1995,1998,2003,2009,2011,
            Gaussian, Inc.  All Rights Reserved.
  
 This is part of the Gaussian(R) 09 program.  It is based on
 the Gaussian(R) 03 system (copyright 2003, Gaussian, Inc.),
 the Gaussian(R) 98 system (copyright 1998, Gaussian, Inc.),
 the Gaussian(R) 94 system (copyright 1995, Gaussian, Inc.),
 the Gaussian 92(TM) system (copyright 1992, Gaussian, Inc.),
 the Gaussian 90(TM) system (copyright 1990, Gaussian, Inc.),
 the Gaussian 88(TM) system (copyright 1988, Gaussian, Inc.),
 the Gaussian 86(TM) system (copyright 1986, Carnegie Mellon
 University), and the Gaussian 82(TM) system (copyright 1983,
 Carnegie Mellon University). Gaussian is a federally registered
 trademark of Gaussian, Inc.
  
 This software contains proprietary and confidential information,
 including trade secrets, belonging to Gaussian, Inc.
  
 This software is provided under written license and may be
 used, copied, transmitted, or stored only in accord with that
 written license.
  
 The following legend is applicable only to US Government
 contracts under FAR:
  
                    RESTRICTED RIGHTS LEGEND
  
 Use, reproduction and disclosure by the US Government is
 subject to restrictions as set forth in subparagraphs (a)
 and (c) of the Commercial Computer Software - Restricted
 Rights clause in FAR 52.227-19.
  
 Gaussian, Inc.
 340 Quinnipiac St., Bldg. 40, Wallingford CT 06492
  
  
 ---------------------------------------------------------------
 Warning -- This program may not be used in any manner that
 competes with the business of Gaussian, Inc. or will provide
 assistance to any competitor of Gaussian, Inc.  The licensee
 of this program is prohibited from giving any competitor of
 Gaussian, Inc. access to this program.  By using this program,
 the user acknowledges that Gaussian, Inc. is engaged in the
 business of creating and licensing software in the field of
 computational chemistry and represents and warrants to the
 licensee that it is not a competitor of Gaussian, Inc. and that
 it will not use this program in any manner prohibited above.
 ---------------------------------------------------------------
  

 Cite this work as:
 Gaussian 09, Revision C.01,
 M. J. Frisch, G. W. Trucks, H. B. Schlegel, G. E. Scuseria, 
 M. A. Robb, J. R. Cheeseman, G. Scalmani, V. Barone, B. Mennucci, 
 G. A. Petersson, H. Nakatsuji, M. Caricato, X. Li, H. P. Hratchian, 
 A. F. Izmaylov, J. Bloino, G. Zheng, J. L. Sonnenberg, M. Hada, 
 M. Ehara, K. Toyota, R. Fukuda, J. Hasegawa, M. Ishida, T. Nakajima, 
 Y. Honda, O. Kitao, H. Nakai, T. Vreven, J. A. Montgomery, Jr., 
 J. E. Peralta, F. Ogliaro, M. Bearpark, J. J. Heyd, E. Brothers, 
 K. N. Kudin, V. N. Staroverov, T. Keith, R. Kobayashi, J. Normand, 
 K. Raghavachari, A. Rendell, J. C. Burant, S. S. Iyengar, J. Tomasi, 
 M. Cossi, N. Rega, J. M. Millam, M. Klene, J. E. Knox, J. B. Cross, 
 V. Bakken, C. Adamo, J. Jaramillo, R. Gomperts, R. E. Stratmann, 
 O. Yazyev, A. J. Austin, R. Cammi, C. Pomelli, J. W. Ochterski, 
 R. L. Martin, K. Morokuma, V. G. Zakrzewski, G. A. Voth, 
 P. Salvador, J. J. Dannenberg, S. Dapprich, A. D. Daniels, 
 O. Farkas, J. B. Foresman, J. V. Ortiz, J. Cioslowski, 
 and D. J. Fox, Gaussian, Inc., Wallingford CT, 2010.
 
 ******************************************
 Gaussian 09:  EM64L-G09RevC.01 23-Sep-2011
                29-Dec-2013 
 ******************************************
 %chk=80_C22H10N4OS2SeSi.chk
 %NProcShared=12
 Will use up to   12 processors via shared memory.
 %Mem=8000MB
 Default route:  MaxDisk=100GB
 --------------------------------------------
 #B3LYP/6-31++G(d,p) opt scf=direct freq test
 --------------------------------------------
 1/14=-1,18=20,19=15,26=3,38=1/1,3;
 2/9=110,12=2,17=6,18=5,40=1/2;
 3/5=1,6=6,7=1111,11=2,16=1,25=1,30=1,71=1,74=-5/1,2,3;
 4//1;
 5/5=2,38=5/2;
 6/7=2,8=2,9=2,10=2,28=1/1;
 7//1,2,3,16;
 1/14=-1,18=20,19=15/3(2);
 2/9=110/2;
 99//99;
 2/9=110/2;
 3/5=1,6=6,7=1111,11=2,16=1,25=1,30=1,71=1,74=-5/1,2,3;
 4/5=5,16=3/1;
 5/5=2,38=5/2;
 7//1,2,3,16;
 1/14=-1,18=20,19=15/3(-5);
 2/9=110/2;
 6/7=2,8=2,9=2,10=2,19=2,28=1/1;
 99/9=1/99;
 ----------------------------------------------------------------------
 Geom opt of No.80 candidate from the CEPDB database with SMILE code of
  C1C=Cc2[Se]c3c4[SiH2]C(=Cc4c4nsnc4c3c12)c1cncc2nsnc12, HPC, 20131227,
  Shuo Dai, Gaussian09
 ----------------------------------------------------------------------
 Charge =  0 Multiplicity = 1
 Symbolic Z-Matrix:
 C                    -5.59405  -5.24963   2.5532 
 C                    -5.02698  -4.53869   1.38302 
 C                    -5.20133  -5.02121   0.17328 
 C                    -4.63426  -4.31027  -0.9969 
 Se                   -3.32149  -3.58003  -0.62768 
 C                    -3.80901  -2.18527  -0.28924 
 C                    -3.19665  -1.12184   0.38832 
 Si                   -1.49116  -1.30763   1.03097 
 H                    -0.65041  -0.3333    0.43078 
 H                    -1.49384  -1.12749   2.4395 
 C                    -0.86688  -2.98284   0.63077 
 C                    -3.20876   1.10548   1.26262 
 C                    -3.84839   0.01537   0.56429 
 C                    -5.09799   0.16587   0.10025 
 N                    -5.99121   1.22867   0.14811 
 S                    -7.15285   0.83006  -0.4991 
 N                    -7.0015   -0.40218  -0.92621 
 C                    -5.72487  -0.84963  -0.56857 
 C                    -5.07636  -2.04655  -0.77377 
 C                    -5.50557  -3.19086  -1.4189 
 C                    -1.2735   -4.20471  -0.02257 
 C                    -2.22098  -4.99081   0.53553 
 N                    -2.61893  -6.15223  -0.04737 
 C                    -2.09474  -6.57097  -1.2197 
 C                    -1.10528  -5.79029  -1.85328 
 N                    -0.39669  -5.89815  -2.97621 
 S                     0.40656  -4.84891  -3.0729 
 N                     0.24489  -4.04737  -2.03992 
 C                    -0.68888  -4.5784   -1.2342 
 H                    -5.86843  -4.77939   3.47433 
 H                    -5.69111  -6.16663   3.09596 
 H                    -4.49517  -3.66467   1.51825 
 H                    -5.73314  -5.89524   0.03805 
 H                    -4.5106   -5.06461  -1.74562 
 H                    -3.23841   2.06922   1.63053 
 H                    -6.00069  -2.9722   -2.34191 
 H                    -2.65319  -4.70168   1.42695 
 H                    -2.41508  -7.45366  -1.64781 
 

 GradGradGradGradGradGradGradGradGradGradGradGradGradGradGradGradGradGrad
 Berny optimization.
 Initialization pass.
                           ----------------------------
                           !    Initial Parameters    !
                           ! (Angstroms and Degrees)  !
 --------------------------                            --------------------------
 ! Name  Definition              Value          Derivative Info.                !
 --------------------------------------------------------------------------------
 ! R1    R(1,2)                  1.482          estimate D2E/DX2                !
 ! R2    R(1,30)                 1.07           estimate D2E/DX2                !
 ! R3    R(1,31)                 1.07           estimate D2E/DX2                !
 ! R4    R(2,3)                  1.314          estimate D2E/DX2                !
 ! R5    R(2,32)                 1.032          estimate D2E/DX2                !
 ! R6    R(3,4)                  1.482          estimate D2E/DX2                !
 ! R7    R(3,33)                 1.032          estimate D2E/DX2                !
 ! R8    R(4,5)                  1.5469         estimate D2E/DX2                !
 ! R9    R(4,20)                 1.48           estimate D2E/DX2                !
 ! R10   R(4,34)                 1.07           estimate D2E/DX2                !
 ! R11   R(5,6)                  1.5158         estimate D2E/DX2                !
 ! R12   R(5,21)                 2.225          estimate D2E/DX2                !
 ! R13   R(5,22)                 2.1341         estimate D2E/DX2                !
 ! R14   R(6,7)                  1.4018         estimate D2E/DX2                !
 ! R15   R(6,19)                 1.3639         estimate D2E/DX2                !
 ! R16   R(7,8)                  1.832          estimate D2E/DX2                !
 ! R17   R(7,13)                 1.3225         estimate D2E/DX2                !
 ! R18   R(8,9)                  1.42           estimate D2E/DX2                !
 ! R19   R(8,10)                 1.42           estimate D2E/DX2                !
 ! R20   R(8,11)                 1.832          estimate D2E/DX2                !
 ! R21   R(11,21)                1.444          estimate D2E/DX2                !
 ! R22   R(12,13)                1.444          estimate D2E/DX2                !
 ! R23   R(12,35)                1.032          estimate D2E/DX2                !
 ! R24   R(13,14)                1.3414         estimate D2E/DX2                !
 ! R25   R(14,15)                1.3891         estimate D2E/DX2                !
 ! R26   R(14,18)                1.368          estimate D2E/DX2                !
 ! R27   R(15,16)                1.3882         estimate D2E/DX2                !
 ! R28   R(16,17)                1.3129         estimate D2E/DX2                !
 ! R29   R(17,18)                1.3993         estimate D2E/DX2                !
 ! R30   R(18,19)                1.3767         estimate D2E/DX2                !
 ! R31   R(19,20)                1.382          estimate D2E/DX2                !
 ! R32   R(20,36)                1.07           estimate D2E/DX2                !
 ! R33   R(21,22)                1.3517         estimate D2E/DX2                !
 ! R34   R(21,29)                1.3962         estimate D2E/DX2                !
 ! R35   R(22,23)                1.3591         estimate D2E/DX2                !
 ! R36   R(22,37)                1.032          estimate D2E/DX2                !
 ! R37   R(23,24)                1.3507         estimate D2E/DX2                !
 ! R38   R(24,25)                1.4106         estimate D2E/DX2                !
 ! R39   R(24,38)                1.032          estimate D2E/DX2                !
 ! R40   R(25,26)                1.3322         estimate D2E/DX2                !
 ! R41   R(25,27)                2.1585         estimate D2E/DX2                !
 ! R42   R(25,29)                1.4231         estimate D2E/DX2                !
 ! R43   R(26,27)                1.3249         estimate D2E/DX2                !
 ! R44   R(27,28)                1.3174         estimate D2E/DX2                !
 ! R45   R(27,29)                2.1573         estimate D2E/DX2                !
 ! R46   R(28,29)                1.3428         estimate D2E/DX2                !
 ! A1    A(2,1,30)             124.5438         estimate D2E/DX2                !
 ! A2    A(2,1,31)             147.8174         estimate D2E/DX2                !
 ! A3    A(30,1,31)             85.2215         estimate D2E/DX2                !
 ! A4    A(1,2,3)              120.0            estimate D2E/DX2                !
 ! A5    A(1,2,32)             119.9998         estimate D2E/DX2                !
 ! A6    A(3,2,32)             120.0002         estimate D2E/DX2                !
 ! A7    A(2,3,4)              120.0            estimate D2E/DX2                !
 ! A8    A(2,3,33)             120.0002         estimate D2E/DX2                !
 ! A9    A(4,3,33)             119.9998         estimate D2E/DX2                !
 ! A10   A(3,4,5)              111.2671         estimate D2E/DX2                !
 ! A11   A(3,4,20)             111.2671         estimate D2E/DX2                !
 ! A12   A(3,4,34)             104.9832         estimate D2E/DX2                !
 ! A13   A(5,4,20)             102.1589         estimate D2E/DX2                !
 ! A14   A(5,4,34)             113.6868         estimate D2E/DX2                !
 ! A15   A(20,4,34)            113.6876         estimate D2E/DX2                !
 ! A16   A(4,5,6)              102.399          estimate D2E/DX2                !
 ! A17   A(4,5,21)             135.5205         estimate D2E/DX2                !
 ! A18   A(4,5,22)             104.8123         estimate D2E/DX2                !
 ! A19   A(6,5,21)             119.5814         estimate D2E/DX2                !
 ! A20   A(6,5,22)             130.7258         estimate D2E/DX2                !
 ! A21   A(5,6,7)              131.7197         estimate D2E/DX2                !
 ! A22   A(5,6,19)             108.2482         estimate D2E/DX2                !
 ! A23   A(7,6,19)             120.0321         estimate D2E/DX2                !
 ! A24   A(6,7,8)              119.954          estimate D2E/DX2                !
 ! A25   A(6,7,13)             120.0915         estimate D2E/DX2                !
 ! A26   A(8,7,13)             119.9545         estimate D2E/DX2                !
 ! A27   A(7,8,9)              109.4715         estimate D2E/DX2                !
 ! A28   A(7,8,10)             109.4713         estimate D2E/DX2                !
 ! A29   A(7,8,11)             109.4715         estimate D2E/DX2                !
 ! A30   A(9,8,10)             109.4708         estimate D2E/DX2                !
 ! A31   A(9,8,11)             109.4712         estimate D2E/DX2                !
 ! A32   A(10,8,11)            109.471          estimate D2E/DX2                !
 ! A33   A(8,11,21)            140.953          estimate D2E/DX2                !
 ! A34   A(13,12,35)           149.845          estimate D2E/DX2                !
 ! A35   A(7,13,12)            119.6839         estimate D2E/DX2                !
 ! A36   A(7,13,14)            120.6316         estimate D2E/DX2                !
 ! A37   A(12,13,14)           119.6845         estimate D2E/DX2                !
 ! A38   A(13,14,15)           132.2913         estimate D2E/DX2                !
 ! A39   A(13,14,18)           120.8435         estimate D2E/DX2                !
 ! A40   A(15,14,18)           106.8652         estimate D2E/DX2                !
 ! A41   A(14,15,16)           107.5964         estimate D2E/DX2                !
 ! A42   A(15,16,17)           108.9471         estimate D2E/DX2                !
 ! A43   A(16,17,18)           108.7934         estimate D2E/DX2                !
 ! A44   A(14,18,17)           107.7979         estimate D2E/DX2                !
 ! A45   A(14,18,19)           120.1578         estimate D2E/DX2                !
 ! A46   A(17,18,19)           132.0443         estimate D2E/DX2                !
 ! A47   A(6,19,18)            118.242          estimate D2E/DX2                !
 ! A48   A(6,19,20)            111.7289         estimate D2E/DX2                !
 ! A49   A(18,19,20)           130.0291         estimate D2E/DX2                !
 ! A50   A(4,20,19)            108.0795         estimate D2E/DX2                !
 ! A51   A(4,20,36)            132.2957         estimate D2E/DX2                !
 ! A52   A(19,20,36)           112.1597         estimate D2E/DX2                !
 ! A53   A(5,21,11)             98.3183         estimate D2E/DX2                !
 ! A54   A(5,21,29)            102.9758         estimate D2E/DX2                !
 ! A55   A(11,21,22)           120.1764         estimate D2E/DX2                !
 ! A56   A(11,21,29)           120.0788         estimate D2E/DX2                !
 ! A57   A(22,21,29)           119.7448         estimate D2E/DX2                !
 ! A58   A(5,22,23)            100.3789         estimate D2E/DX2                !
 ! A59   A(5,22,37)             93.9928         estimate D2E/DX2                !
 ! A60   A(21,22,23)           121.678          estimate D2E/DX2                !
 ! A61   A(21,22,37)           119.1611         estimate D2E/DX2                !
 ! A62   A(23,22,37)           119.1609         estimate D2E/DX2                !
 ! A63   A(22,23,24)           121.5704         estimate D2E/DX2                !
 ! A64   A(23,24,25)           119.371          estimate D2E/DX2                !
 ! A65   A(23,24,38)           120.3139         estimate D2E/DX2                !
 ! A66   A(25,24,38)           120.3151         estimate D2E/DX2                !
 ! A67   A(24,25,26)           134.9813         estimate D2E/DX2                !
 ! A68   A(24,25,29)           118.7587         estimate D2E/DX2                !
 ! A69   A(26,25,29)           106.26           estimate D2E/DX2                !
 ! A70   A(25,27,28)            74.7143         estimate D2E/DX2                !
 ! A71   A(26,27,28)           110.499          estimate D2E/DX2                !
 ! A72   A(26,27,29)            74.2915         estimate D2E/DX2                !
 ! A73   A(21,29,25)           118.8747         estimate D2E/DX2                !
 ! A74   A(21,29,28)           134.9123         estimate D2E/DX2                !
 ! A75   A(25,29,28)           106.2131         estimate D2E/DX2                !
 ! A76   L(24,25,27,5,-1)      187.1894         estimate D2E/DX2                !
 ! A77   L(21,29,27,24,-1)     189.6684         estimate D2E/DX2                !
 ! A78   L(24,25,27,5,-2)      186.4983         estimate D2E/DX2                !
 ! A79   L(21,29,27,24,-2)     180.0098         estimate D2E/DX2                !
 ! D1    D(30,1,2,3)          -153.1402         estimate D2E/DX2                !
 ! D2    D(30,1,2,32)           26.8599         estimate D2E/DX2                !
 ! D3    D(31,1,2,3)            52.1671         estimate D2E/DX2                !
 ! D4    D(31,1,2,32)         -127.8329         estimate D2E/DX2                !
 ! D5    D(1,2,3,4)            180.0            estimate D2E/DX2                !
 ! D6    D(1,2,3,33)            -0.0003         estimate D2E/DX2                !
 ! D7    D(32,2,3,4)             0.0            estimate D2E/DX2                !
 ! D8    D(32,2,3,33)          179.9997         estimate D2E/DX2                !
 ! D9    D(2,3,4,5)             31.647          estimate D2E/DX2                !
 ! D10   D(2,3,4,20)           -81.5582         estimate D2E/DX2                !
 ! D11   D(2,3,4,34)           155.0439         estimate D2E/DX2                !
 ! D12   D(33,3,4,5)          -148.3527         estimate D2E/DX2                !
 ! D13   D(33,3,4,20)           98.4421         estimate D2E/DX2                !
 ! D14   D(33,3,4,34)          -24.9558         estimate D2E/DX2                !
 ! D15   D(3,4,5,6)            -94.0428         estimate D2E/DX2                !
 ! D16   D(3,4,5,21)            66.9144         estimate D2E/DX2                !
 ! D17   D(3,4,5,22)            44.4714         estimate D2E/DX2                !
 ! D18   D(20,4,5,6)            24.7742         estimate D2E/DX2                !
 ! D19   D(20,4,5,21)         -174.2686         estimate D2E/DX2                !
 ! D20   D(20,4,5,22)          163.2884         estimate D2E/DX2                !
 ! D21   D(34,4,5,6)           147.6825         estimate D2E/DX2                !
 ! D22   D(34,4,5,21)          -51.3604         estimate D2E/DX2                !
 ! D23   D(34,4,5,22)          -73.8034         estimate D2E/DX2                !
 ! D24   D(3,4,20,19)           92.2575         estimate D2E/DX2                !
 ! D25   D(3,4,20,36)         -121.2901         estimate D2E/DX2                !
 ! D26   D(5,4,20,19)          -26.5596         estimate D2E/DX2                !
 ! D27   D(5,4,20,36)          119.8929         estimate D2E/DX2                !
 ! D28   D(34,4,20,19)        -149.4673         estimate D2E/DX2                !
 ! D29   D(34,4,20,36)          -3.0148         estimate D2E/DX2                !
 ! D30   D(4,5,6,7)            164.1624         estimate D2E/DX2                !
 ! D31   D(4,5,6,19)           -15.7832         estimate D2E/DX2                !
 ! D32   D(21,5,6,7)            -0.5972         estimate D2E/DX2                !
 ! D33   D(21,5,6,19)          179.4572         estimate D2E/DX2                !
 ! D34   D(22,5,6,7)            41.8408         estimate D2E/DX2                !
 ! D35   D(22,5,6,19)         -138.1048         estimate D2E/DX2                !
 ! D36   D(4,5,21,11)         -158.084          estimate D2E/DX2                !
 ! D37   D(4,5,21,29)           78.3097         estimate D2E/DX2                !
 ! D38   D(6,5,21,11)            0.4205         estimate D2E/DX2                !
 ! D39   D(6,5,21,29)         -123.1858         estimate D2E/DX2                !
 ! D40   D(4,5,22,23)           32.6887         estimate D2E/DX2                !
 ! D41   D(4,5,22,37)          -87.9324         estimate D2E/DX2                !
 ! D42   D(6,5,22,23)          154.07           estimate D2E/DX2                !
 ! D43   D(6,5,22,37)           33.4489         estimate D2E/DX2                !
 ! D44   D(5,6,7,8)              0.3639         estimate D2E/DX2                !
 ! D45   D(5,6,7,13)          -179.6355         estimate D2E/DX2                !
 ! D46   D(19,6,7,8)          -179.6958         estimate D2E/DX2                !
 ! D47   D(19,6,7,13)            0.3048         estimate D2E/DX2                !
 ! D48   D(5,6,19,18)          179.4842         estimate D2E/DX2                !
 ! D49   D(5,6,19,20)           -0.5773         estimate D2E/DX2                !
 ! D50   D(7,6,19,18)           -0.4689         estimate D2E/DX2                !
 ! D51   D(7,6,19,20)          179.4696         estimate D2E/DX2                !
 ! D52   D(6,7,8,9)            120.0006         estimate D2E/DX2                !
 ! D53   D(6,7,8,10)          -119.9997         estimate D2E/DX2                !
 ! D54   D(6,7,8,11)             0.0002         estimate D2E/DX2                !
 ! D55   D(13,7,8,9)           -60.0            estimate D2E/DX2                !
 ! D56   D(13,7,8,10)           59.9997         estimate D2E/DX2                !
 ! D57   D(13,7,8,11)          179.9997         estimate D2E/DX2                !
 ! D58   D(6,7,13,12)         -179.9514         estimate D2E/DX2                !
 ! D59   D(6,7,13,14)            0.0486         estimate D2E/DX2                !
 ! D60   D(8,7,13,12)            0.0492         estimate D2E/DX2                !
 ! D61   D(8,7,13,14)         -179.9509         estimate D2E/DX2                !
 ! D62   D(7,8,11,21)           -0.0262         estimate D2E/DX2                !
 ! D63   D(9,8,11,21)         -120.0267         estimate D2E/DX2                !
 ! D64   D(10,8,11,21)         119.9739         estimate D2E/DX2                !
 ! D65   D(8,11,21,5)           -0.1537         estimate D2E/DX2                !
 ! D66   D(8,11,21,22)         -69.8442         estimate D2E/DX2                !
 ! D67   D(8,11,21,29)         110.1457         estimate D2E/DX2                !
 ! D68   D(35,12,13,7)         179.9841         estimate D2E/DX2                !
 ! D69   D(35,12,13,14)         -0.0158         estimate D2E/DX2                !
 ! D70   D(7,13,14,15)         179.8828         estimate D2E/DX2                !
 ! D71   D(7,13,14,18)          -0.2235         estimate D2E/DX2                !
 ! D72   D(12,13,14,15)         -0.1172         estimate D2E/DX2                !
 ! D73   D(12,13,14,18)        179.7764         estimate D2E/DX2                !
 ! D74   D(13,14,15,16)        179.9305         estimate D2E/DX2                !
 ! D75   D(18,14,15,16)          0.0259         estimate D2E/DX2                !
 ! D76   D(13,14,18,17)       -179.965          estimate D2E/DX2                !
 ! D77   D(13,14,18,19)          0.0466         estimate D2E/DX2                !
 ! D78   D(15,14,18,17)         -0.0472         estimate D2E/DX2                !
 ! D79   D(15,14,18,19)        179.9644         estimate D2E/DX2                !
 ! D80   D(14,15,16,17)          0.0068         estimate D2E/DX2                !
 ! D81   D(15,16,17,18)         -0.0363         estimate D2E/DX2                !
 ! D82   D(16,17,18,14)          0.0528         estimate D2E/DX2                !
 ! D83   D(16,17,18,19)       -179.9607         estimate D2E/DX2                !
 ! D84   D(14,18,19,6)           0.2989         estimate D2E/DX2                !
 ! D85   D(14,18,19,20)       -179.6265         estimate D2E/DX2                !
 ! D86   D(17,18,19,6)        -179.6862         estimate D2E/DX2                !
 ! D87   D(17,18,19,20)          0.3884         estimate D2E/DX2                !
 ! D88   D(6,19,20,4)           17.9329         estimate D2E/DX2                !
 ! D89   D(6,19,20,36)        -135.8758         estimate D2E/DX2                !
 ! D90   D(18,19,20,4)        -162.1378         estimate D2E/DX2                !
 ! D91   D(18,19,20,36)         44.0535         estimate D2E/DX2                !
 ! D92   D(11,21,22,23)       -179.4639         estimate D2E/DX2                !
 ! D93   D(11,21,22,37)          0.5369         estimate D2E/DX2                !
 ! D94   D(29,21,22,23)          0.5462         estimate D2E/DX2                !
 ! D95   D(29,21,22,37)       -179.453          estimate D2E/DX2                !
 ! D96   D(5,21,27,26)         -73.8345         estimate D2E/DX2                !
 ! D97   D(11,21,27,26)        179.7993         estimate D2E/DX2                !
 ! D98   D(22,21,27,26)         -0.2324         estimate D2E/DX2                !
 ! D99   D(5,21,29,25)         -72.4738         estimate D2E/DX2                !
 ! D100  D(5,21,29,28)         107.4832         estimate D2E/DX2                !
 ! D101  D(11,21,29,25)        179.7665         estimate D2E/DX2                !
 ! D102  D(11,21,29,28)         -0.2765         estimate D2E/DX2                !
 ! D103  D(22,21,29,25)         -0.2435         estimate D2E/DX2                !
 ! D104  D(22,21,29,28)        179.7134         estimate D2E/DX2                !
 ! D105  D(5,22,23,24)          78.8315         estimate D2E/DX2                !
 ! D106  D(21,22,23,24)         -0.6079         estimate D2E/DX2                !
 ! D107  D(37,22,23,24)        179.3913         estimate D2E/DX2                !
 ! D108  D(22,23,24,25)          0.3473         estimate D2E/DX2                !
 ! D109  D(22,23,24,38)       -179.6528         estimate D2E/DX2                !
 ! D110  D(23,24,25,26)        179.9631         estimate D2E/DX2                !
 ! D111  D(23,24,25,29)         -0.0514         estimate D2E/DX2                !
 ! D112  D(38,24,25,26)         -0.0368         estimate D2E/DX2                !
 ! D113  D(38,24,25,29)        179.9487         estimate D2E/DX2                !
 ! D114  D(23,24,27,28)         -0.1039         estimate D2E/DX2                !
 ! D115  D(38,24,27,28)        179.9076         estimate D2E/DX2                !
 ! D116  D(24,25,29,21)          0.0022         estimate D2E/DX2                !
 ! D117  D(24,25,29,28)       -179.966          estimate D2E/DX2                !
 ! D118  D(26,25,29,21)        179.9915         estimate D2E/DX2                !
 ! D119  D(26,25,29,28)          0.0232         estimate D2E/DX2                !
 --------------------------------------------------------------------------------
 Trust Radius=3.00D-01 FncErr=1.00D-07 GrdErr=1.00D-06
 Number of steps in this run=    228 maximum allowed number of steps=    228.
 GradGradGradGradGradGradGradGradGradGradGradGradGradGradGradGradGradGrad

                          Input orientation:                          
 ---------------------------------------------------------------------
 Center     Atomic      Atomic             Coordinates (Angstroms)
 Number     Number       Type             X           Y           Z
 ---------------------------------------------------------------------
      1          6           0       -5.594050   -5.249630    2.553200
      2          6           0       -5.026980   -4.538690    1.383020
      3          6           0       -5.201330   -5.021210    0.173280
      4          6           0       -4.634260   -4.310270   -0.996900
      5         34           0       -3.321490   -3.580030   -0.627680
      6          6           0       -3.809010   -2.185270   -0.289240
      7          6           0       -3.196650   -1.121840    0.388320
      8         14           0       -1.491160   -1.307630    1.030970
      9          1           0       -0.650410   -0.333300    0.430780
     10          1           0       -1.493840   -1.127490    2.439500
     11          6           0       -0.866880   -2.982840    0.630770
     12          6           0       -3.208760    1.105480    1.262620
     13          6           0       -3.848390    0.015370    0.564290
     14          6           0       -5.097990    0.165870    0.100250
     15          7           0       -5.991210    1.228670    0.148110
     16         16           0       -7.152850    0.830060   -0.499100
     17          7           0       -7.001500   -0.402180   -0.926210
     18          6           0       -5.724870   -0.849630   -0.568570
     19          6           0       -5.076360   -2.046550   -0.773770
     20          6           0       -5.505570   -3.190860   -1.418900
     21          6           0       -1.273500   -4.204710   -0.022570
     22          6           0       -2.220980   -4.990810    0.535530
     23          7           0       -2.618930   -6.152230   -0.047370
     24          6           0       -2.094740   -6.570970   -1.219700
     25          6           0       -1.105280   -5.790290   -1.853280
     26          7           0       -0.396690   -5.898150   -2.976210
     27         16           0        0.406560   -4.848910   -3.072900
     28          7           0        0.244890   -4.047370   -2.039920
     29          6           0       -0.688880   -4.578400   -1.234200
     30          1           0       -5.868430   -4.779390    3.474330
     31          1           0       -5.691110   -6.166630    3.095960
     32          1           0       -4.495170   -3.664670    1.518250
     33          1           0       -5.733140   -5.895240    0.038050
     34          1           0       -4.510600   -5.064610   -1.745620
     35          1           0       -3.238410    2.069220    1.630530
     36          1           0       -6.000690   -2.972200   -2.341910
     37          1           0       -2.653190   -4.701680    1.426950
     38          1           0       -2.415080   -7.453660   -1.647810
 ---------------------------------------------------------------------
                    Distance matrix (angstroms):
                    1          2          3          4          5
     1  C    0.000000
     2  C    1.482000   0.000000
     3  C    2.422896   1.314037   0.000000
     4  C    3.795630   2.422896   1.482000   0.000000
     5  Se   4.250893   2.805466   2.500467   1.546913   0.000000
     6  C    4.544902   3.133447   3.192967   2.386932   1.515775
     7  C    5.241458   4.001800   4.389769   3.761867   2.662807
     8  Si   5.889843   4.802677   5.318991   4.796580   3.356342
     9  H    7.287973   6.143812   6.538630   5.807376   4.335466
    10  H    5.815212   5.023496   5.834577   5.639253   4.331611
    11  C    5.583924   4.504773   4.811622   4.313297   2.822312
    12  C    6.909604   5.931026   6.534013   6.038860   5.053706
    13  C    5.892649   4.774815   5.229768   4.665412   3.824306
    14  C    5.965792   4.876825   5.188623   4.631912   4.209228
    15  N    6.921746   5.976385   6.299646   5.816547   5.554534
    16  S    6.979185   6.073317   6.204666   5.745789   5.843351
    17  N    6.130659   5.132445   5.077886   4.569682   4.871378
    18  C    5.396532   4.231420   4.269252   3.653618   3.637968
    19  C    4.647198   3.296201   3.124280   2.317254   2.335053
    20  C    4.474812   3.145862   2.444950   1.479981   2.355353
    21  C    5.137470   4.021920   4.016575   3.500738   2.225005
    22  C    3.938982   2.965854   3.002438   2.938605   2.134123
    23  N    4.053269   3.232372   2.827841   2.890671   2.728839
    24  C    5.312804   4.416146   3.740729   3.407281   3.286507
    25  C    6.313354   5.236399   4.634226   3.921421   3.361388
    26  N    7.616266   6.503123   5.811444   4.939234   4.409504
    27  S    8.235344   7.033834   6.481960   5.478118   4.635463
    28  N    7.525650   6.304802   5.958853   4.996310   3.864181
    29  C    6.233429   5.066609   4.747556   3.961594   2.880147
    30  H    1.069996   2.267058   3.376452   4.662097   4.975123
    31  H    1.069999   2.454673   3.177095   4.616764   5.115769
    32  H    2.188780   1.031998   2.036617   2.600409   2.447387
    33  H    2.600411   2.036623   1.032007   2.188787   3.408731
    34  H    4.437111   3.214285   2.039894   1.070001   2.206298
    35  H    7.743767   6.850162   7.500055   7.039153   6.084442
    36  H    5.414254   4.156574   3.341197   2.338079   3.238233
    37  H    3.196458   2.379785   2.857762   3.154820   2.434385
    38  H    5.710699   4.950253   4.122666   3.902479   4.106976
                    6          7          8          9         10
     6  C    0.000000
     7  C    1.401769   0.000000
     8  Si   2.808137   1.831997   0.000000
     9  H    3.731618   2.665884   1.420003   0.000000
    10  H    3.731613   2.665883   1.420005   2.318851   0.000000
    11  C    3.184127   2.991644   1.831997   2.665880   2.665878
    12  C    3.687493   2.392802   2.971012   3.050770   3.051582
    13  C    2.360695   1.322489   2.743110   3.219701   3.219697
    14  C    2.709434   2.314363   4.005829   4.487693   4.487178
    15  N    4.075323   3.659531   5.240488   5.571696   5.570305
    16  S    4.507496   4.499883   6.242240   6.670818   6.670215
    17  N    3.711756   4.089350   5.917283   6.494806   6.495260
    18  C    2.352122   2.716916   4.548911   5.197638   5.198779
    19  C    1.363887   2.395590   4.081268   4.896448   4.899411
    20  C    2.272809   3.588593   5.065956   5.929548   5.936221
    21  C    3.252393   3.656696   3.090371   3.947351   3.947103
    22  C    3.327633   3.992810   3.787336   4.916306   4.367960
    23  N    4.148682   5.082166   5.089679   6.161464   5.718248
    24  C    4.799879   5.787310   5.756090   6.612012   6.586524
    25  C    4.769963   5.585072   5.344347   5.933176   6.349854
    26  N    5.713949   6.478655   6.190980   6.529894   7.300195
    27  S    5.710934   6.233315   5.743148   5.812374   6.917156
    28  N    4.792327   5.128282   4.466588   4.549751   5.622640
    29  C    4.044160   4.568292   4.058643   4.560100   5.104196
    30  H    5.013495   5.480834   6.097837   7.500576   5.791743
    31  H    5.554557   6.245282   6.746380   8.157180   6.590975
    32  H    2.434432   3.070648   3.849306   5.202192   4.036578
    33  H    4.192049   5.416809   6.326646   7.544770   6.816896
    34  H    3.302101   4.671788   5.562497   6.482521   6.489760
    35  H    4.702317   3.424572   3.849087   3.729510   3.730538
    36  H    3.104219   4.329045   5.872220   6.578533   6.824700
    37  H    3.257844   3.766876   3.609251   4.907772   3.891553
    38  H    5.616466   6.696911   6.767804   7.624574   7.587833
                   11         12         13         14         15
    11  C    0.000000
    12  C    4.753735   0.000000
    13  C    4.228840   1.443998   0.000000
    14  C    5.300766   2.408975   1.341448   0.000000
    15  N    6.650454   2.999889   2.497395   1.389128   0.000000
    16  S    7.438295   4.328436   3.565666   2.241165   1.388228
    17  N    6.835024   4.631295   3.512555   2.235990   2.198754
    18  C    5.439583   3.675122   2.356432   1.368042   2.214475
    19  C    4.535316   4.191671   2.747695   2.378903   3.523334
    20  C    5.075615   5.560973   4.118155   3.706963   4.714193
    21  C    1.444008   5.796125   4.978307   5.808939   7.197745
    22  C    2.423758   6.218450   5.264136   5.920980   7.283314
    23  N    3.684371   7.398536   6.318622   6.788661   8.117153
    24  C    4.219782   8.144375   7.045409   7.493116   8.825405
    25  C    3.756210   7.853987   6.861121   7.431948   8.783147
    26  N    4.661589   8.655995   7.708378   8.266751   9.583924
    27  S    4.338322   8.205000   7.415859   8.094255   9.393793
    28  N    3.082506   7.027541   6.327931   7.132888   8.456537
    29  C    2.460815   6.700030   5.858310   6.612799   7.984206
    30  H    6.027348   6.826214   5.961428   6.036024   6.868450
    31  H    6.283858   7.899796   6.929798   7.030407   7.966828
    32  H    3.796973   4.947174   3.856301   4.128820   5.297188
    33  H    5.702094   7.542025   6.226116   6.094616   7.129432
    34  H    4.822623   6.986724   5.619644   5.577650   6.736749
    35  H    5.669831   1.032004   2.393166   3.069615   3.237592
    36  H    5.932364   6.116779   4.690839   4.077560   4.883400
    37  H    2.603693   5.835989   4.941988   5.606266   6.924367
    38  H    5.251389   9.075208   7.920491   8.265044   9.560172
                   16         17         18         19         20
    16  S    0.000000
    17  N    1.312915   0.000000
    18  C    2.205745   1.399251   0.000000
    19  C    3.558390   2.536406   1.376695   0.000000
    20  C    4.441549   3.202700   2.500502   1.381977   0.000000
    21  C    7.755175   6.934391   5.600837   4.436632   4.570344
    22  C    7.699112   6.785689   5.535852   4.305360   4.224707
    23  N    8.337438   7.283018   6.167340   4.839755   4.357006
    24  C    8.993274   7.887737   6.807022   5.436845   4.806099
    25  C    9.068403   8.040933   6.884854   5.563309   5.129159
    26  N    9.851425   8.833555   7.724881   6.448634   5.987929
    27  S    9.798971   8.902867   7.736947   6.572795   6.359098
    28  N    8.993887   8.187669   6.930256   5.824270   5.846971
    29  C    8.460184   7.575278   6.301427   5.086476   5.015963
    30  H    6.993126   6.309403   5.639917   5.112939   5.157402
    31  H    8.000926   7.150095   6.457585   5.685753   5.410508
    32  H    5.597818   4.785490   3.713681   2.865214   3.142014
    33  H    6.894474   5.719462   5.081952   3.987835   3.080286
    34  H    6.578938   5.349231   4.541581   3.220755   2.146544
    35  H    4.625330   5.177411   4.420205   5.108648   6.489028
    36  H    4.379566   3.100134   2.779589   2.042126   1.070002
    37  H    7.386255   6.552165   5.315600   4.214812   4.303198
    38  H    9.611764   8.442708   7.465432   6.089597   5.270198
                   21         22         23         24         25
    21  C    0.000000
    22  C    1.351720   0.000000
    23  N    2.367199   1.359056   0.000000
    24  C    2.776102   2.365095   1.350732   0.000000
    25  C    2.427728   2.755062   2.383998   1.410644   0.000000
    26  N    3.515754   4.060002   3.685242   2.534046   1.332181
    27  S    3.541484   4.465968   4.472814   3.557575   2.158548
    28  N    2.529815   3.688297   4.074574   3.537681   2.212592
    29  C    1.396235   2.376838   2.758731   2.438645   1.423140
    30  H    5.802754   4.688831   4.984607   6.283662   7.217544
    31  H    5.752359   4.469917   4.395341   5.632254   6.757695
    32  H    3.611776   2.810040   3.487033   4.658864   5.232287
    33  H    4.769691   3.660703   3.125963   3.908516   5.000523
    34  H    3.766583   3.232870   2.765029   2.895184   3.483447
    35  H    6.779071   7.216524   8.413759   9.169770   8.857713
    36  H    5.407841   5.161459   5.178205   5.428347   5.669694
    37  H    2.061949   1.032004   2.068547   3.287988   3.786952
    38  H    3.807924   3.297011   2.072844   1.032007   2.127109
                   26         27         28         29         30
    26  N    0.000000
    27  S    1.324939   0.000000
    28  N    2.171094   1.317441   0.000000
    29  C    2.204929   2.157309   1.342797   0.000000
    30  H    8.532352   9.068989   8.265318   7.002742   0.000000
    31  H    8.060658   8.773414   8.130475   6.804048   1.448807
    32  H    6.479671   6.819680   5.939293   4.785261   2.637175
    33  H    6.128905   6.961949   6.593135   5.366307   3.615445
    34  H    4.374174   5.097711   4.871968   3.886321   5.401197
    35  H    9.632051   9.125162   7.938404   7.674479   7.564394
    36  H    6.353608   6.716341   6.344640   5.658818   6.091968
    37  H    5.090300   5.443565   4.565761   3.309899   3.812555
    38  H    2.873701   4.096005   4.339585   3.379047   6.731543
                   31         32         33         34         35
    31  H    0.000000
    32  H    3.190493   0.000000
    33  H    3.070217   2.949407   0.000000
    34  H    5.103817   3.551467   2.316469   0.000000
    35  H    8.717365   5.871077   8.496605   7.994272   0.000000
    36  H    6.314321   4.200826   3.778883   2.637065   6.987588
    37  H    3.763061   2.115801   3.583256   3.694170   6.799192
    38  H    5.906960   5.357906   4.034888   3.179360  10.104980
                   36         37         38
    36  H    0.000000
    37  H    5.329274   0.000000
    38  H    5.781164   4.133309   0.000000
 Stoichiometry    C18H11N5S2SeSi
 Framework group  C1[X(C18H11N5S2SeSi)]
 Deg. of freedom   108
 Full point group                 C1      NOp   1
 Largest Abelian subgroup         C1      NOp   1
 Largest concise Abelian subgroup C1      NOp   1
                         Standard orientation:                         
 ---------------------------------------------------------------------
 Center     Atomic      Atomic             Coordinates (Angstroms)
 Number     Number       Type             X           Y           Z
 ---------------------------------------------------------------------
      1          6           0        0.564288    3.653204    2.381787
      2          6           0        0.421647    2.577445    1.372469
      3          6           0       -0.075927    2.850281    0.187279
      4          6           0       -0.218568    1.774523   -0.822038
      5         34           0       -0.499495    0.409292   -0.151095
      6          6           0        0.889380   -0.185540   -0.029541
      7          6           0        1.383283   -1.253898    0.731792
      8         14           0        0.253658   -2.201466    1.819116
      9          1           0        0.242480   -3.563586    1.417975
     10          1           0        0.701274   -2.107605    3.163454
     11          6           0       -1.439035   -1.512820    1.689610
     12          6           0        3.162742   -2.681538    1.453504
     13          6           0        2.663580   -1.578734    0.666236
     14          6           0        3.502946   -0.893540   -0.124623
     15          7           0        4.863636   -1.018900   -0.374591
     16         16           0        5.214642   -0.035434   -1.289341
     17          7           0        4.145971    0.663226   -1.595217
     18          6           0        3.054620    0.152384   -0.883955
     19          6           0        1.727693    0.517048   -0.844274
     20          6           0        1.061162    1.520960   -1.520852
     21          6           0       -2.177368   -0.471056    1.015256
     22          6           0       -1.971150    0.825424    1.337375
     23          7           0       -2.656659    1.829490    0.729952
     24          6           0       -3.569153    1.580360   -0.234291
     25          6           0       -3.824422    0.246948   -0.617393
     26          7           0       -4.629766   -0.341357   -1.500583
     27         16           0       -4.449002   -1.652091   -1.431567
     28          7           0       -3.540679   -1.945365   -0.523496
     29          6           0       -3.107447   -0.799861    0.027171
     30          1           0        1.288834    3.654254    3.169139
     31          1           0        0.104262    4.451949    2.925184
     32          1           0        0.713096    1.614061    1.600435
     33          1           0       -0.367383    3.813672   -0.040686
     34          1           0       -1.003767    2.104980   -1.469467
     35          1           0        3.946716   -3.284011    1.749210
     36          1           0        1.338928    1.565204   -2.553224
     37          1           0       -1.275437    1.058758    2.063026
     38          1           0       -4.074776    2.358144   -0.686435
 ---------------------------------------------------------------------
 Rotational constants (GHZ):      0.3012552      0.1139702      0.1028316
 Standard basis: 6-31++G(d,p) (6D, 7F)
 There are   606 symmetry adapted basis functions of A   symmetry.
 Integral buffers will be    131072 words long.
 Raffenetti 2 integral format.
 Two-electron integral symmetry is turned on.
   606 basis functions,  1079 primitive gaussians,   606 cartesian basis functions
   117 alpha electrons      117 beta electrons
       nuclear repulsion energy      3780.5411471226 Hartrees.
 NAtoms=   38 NActive=   38 NUniq=   38 SFac= 1.00D+00 NAtFMM=   60 NAOKFM=F Big=F
 One-electron integrals computed using PRISM.
 NBasis=   606 RedAO= T  NBF=   606
 NBsUse=   599 1.00D-06 NBFU=   599
 Harris functional with IExCor=  402 diagonalized for initial guess.
 ExpMin= 3.00D-02 ExpMax= 5.61D+05 ExpMxC= 5.42D+03 IAcc=3 IRadAn=         5 AccDes= 0.00D+00
 HarFok:  IExCor=  402 AccDes= 0.00D+00 IRadAn=         5 IDoV= 1
 ScaDFX=  1.000000  1.000000  1.000000  1.000000
 FoFCou: FMM=F IPFlag=           0 FMFlag=      100000 FMFlg1=           0
         NFxFlg=           0 DoJE=T BraDBF=F KetDBF=T FulRan=T
         Omega=  0.000000  0.000000  1.000000  0.000000  0.000000 ICntrl=     500 IOpCl=  0
         NMat0=    1 NMatS0=    1 NMatT0=    0 NMatD0=    1 NMtDS0=    0 NMtDT0=    0
         I1Cent=           4 NGrid=           0.
 Petite list used in FoFCou.
 Initial guess orbital symmetries:
       Occupied  (A) (A) (A) (A) (A) (A) (A) (A) (A) (A) (A) (A)
                 (A) (A) (A) (A) (A) (A) (A) (A) (A) (A) (A) (A)
                 (A) (A) (A) (A) (A) (A) (A) (A) (A) (A) (A) (A)
                 (A) (A) (A) (A) (A) (A) (A) (A) (A) (A) (A) (A)
                 (A) (A) (A) (A) (A) (A) (A) (A) (A) (A) (A) (A)
                 (A) (A) (A) (A) (A) (A) (A) (A) (A) (A) (A) (A)
                 (A) (A) (A) (A) (A) (A) (A) (A) (A) (A) (A) (A)
                 (A) (A) (A) (A) (A) (A) (A) (A) (A) (A) (A) (A)
                 (A) (A) (A) (A) (A) (A) (A) (A) (A) (A) (A) (A)
                 (A) (A) (A) (A) (A) (A) (A) (A) (A)
       Virtual   (A) (A) (A) (A) (A) (A) (A) (A) (A) (A) (A) (A)
                 (A) (A) (A) (A) (A) (A) (A) (A) (A) (A) (A) (A)
                 (A) (A) (A) (A) (A) (A) (A) (A) (A) (A) (A) (A)
                 (A) (A) (A) (A) (A) (A) (A) (A) (A) (A) (A) (A)
                 (A) (A) (A) (A) (A) (A) (A) (A) (A) (A) (A) (A)
                 (A) (A) (A) (A) (A) (A) (A) (A) (A) (A) (A) (A)
                 (A) (A) (A) (A) (A) (A) (A) (A) (A) (A) (A) (A)
                 (A) (A) (A) (A) (A) (A) (A) (A) (A) (A) (A) (A)
                 (A) (A) (A) (A) (A) (A) (A) (A) (A) (A) (A) (A)
                 (A) (A) (A) (A) (A) (A) (A) (A) (A) (A) (A) (A)
                 (A) (A) (A) (A) (A) (A) (A) (A) (A) (A) (A) (A)
                 (A) (A) (A) (A) (A) (A) (A) (A) (A) (A) (A) (A)
                 (A) (A) (A) (A) (A) (A) (A) (A) (A) (A) (A) (A)
                 (A) (A) (A) (A) (A) (A) (A) (A) (A) (A) (A) (A)
                 (A) (A) (A) (A) (A) (A) (A) (A) (A) (A) (A) (A)
                 (A) (A) (A) (A) (A) (A) (A) (A) (A) (A) (A) (A)
                 (A) (A) (A) (A) (A) (A) (A) (A) (A) (A) (A) (A)
                 (A) (A) (A) (A) (A) (A) (A) (A) (A) (A) (A) (A)
                 (A) (A) (A) (A) (A) (A) (A) (A) (A) (A) (A) (A)
                 (A) (A) (A) (A) (A) (A) (A) (A) (A) (A) (A) (A)
                 (A) (A) (A) (A) (A) (A) (A) (A) (A) (A) (A) (A)
                 (A) (A) (A) (A) (A) (A) (A) (A) (A) (A) (A) (A)
                 (A) (A) (A) (A) (A) (A) (A) (A) (A) (A) (A) (A)
                 (A) (A) (A) (A) (A) (A) (A) (A) (A) (A) (A) (A)
                 (A) (A) (A) (A) (A) (A) (A) (A) (A) (A) (A) (A)
                 (A) (A) (A) (A) (A) (A) (A) (A) (A) (A) (A) (A)
                 (A) (A) (A) (A) (A) (A) (A) (A) (A) (A) (A) (A)
                 (A) (A) (A) (A) (A) (A) (A) (A) (A) (A) (A) (A)
                 (A) (A) (A) (A) (A) (A) (A) (A) (A) (A) (A) (A)
                 (A) (A) (A) (A) (A) (A) (A) (A) (A) (A) (A) (A)
                 (A) (A) (A) (A) (A) (A) (A) (A) (A) (A) (A) (A)
                 (A) (A) (A) (A) (A) (A) (A) (A) (A) (A) (A) (A)
                 (A) (A) (A) (A) (A) (A) (A) (A) (A) (A) (A) (A)
                 (A) (A) (A) (A) (A) (A) (A) (A) (A) (A) (A) (A)
                 (A) (A) (A) (A) (A) (A) (A) (A) (A) (A) (A) (A)
                 (A) (A) (A) (A) (A) (A) (A) (A) (A) (A) (A) (A)
                 (A) (A) (A) (A) (A) (A) (A) (A) (A) (A) (A) (A)
                 (A) (A) (A) (A) (A) (A) (A) (A) (A) (A) (A) (A)
                 (A) (A) (A) (A) (A) (A) (A) (A) (A) (A) (A) (A)
                 (A) (A) (A) (A) (A) (A) (A) (A) (A) (A) (A) (A)
                 (A) (A)
 The electronic state of the initial guess is 1-A.
 Requested convergence on RMS density matrix=1.00D-08 within 128 cycles.
 Requested convergence on MAX density matrix=1.00D-06.
 Requested convergence on             energy=1.00D-06.
 No special actions if energy rises.
 EnCoef did     5 forward-backward iterations
 EnCoef did   100 forward-backward iterations
 EnCoef did     8 forward-backward iterations
 EnCoef did     3 forward-backward iterations
 EnCoef did    29 forward-backward iterations
 EnCoef did     7 forward-backward iterations
 EnCoef did     9 forward-backward iterations
 EnCoef did     2 forward-backward iterations
 EnCoef did     4 forward-backward iterations
 EnCoef did   100 forward-backward iterations
 EnCoef did   100 forward-backward iterations
 EnCoef did    18 forward-backward iterations
 EnCoef did    10 forward-backward iterations
 EnCoef did    13 forward-backward iterations
 Rare condition: small coef for last iteration:  0.555D-15
 EnCoef did    18 forward-backward iterations
 Restarting incremental Fock formation.
 EnCoef did    12 forward-backward iterations
 Matrix for removal  3 Erem= -4447.16751992442     Crem= 0.000D+00
 EnCoef did     1 forward-backward iterations
 Matrix for removal  3 Erem= -4447.35525457849     Crem= 0.000D+00
 Restarting incremental Fock formation.
 SCF Done:  E(RB3LYP) =  -4450.34443649     A.U. after   44 cycles
             Convg  =    0.6010D-08             -V/T =  2.0033

 **********************************************************************

            Population analysis using the SCF density.

 **********************************************************************

 Orbital symmetries:
       Occupied  (A) (A) (A) (A) (A) (A) (A) (A) (A) (A) (A) (A)
                 (A) (A) (A) (A) (A) (A) (A) (A) (A) (A) (A) (A)
                 (A) (A) (A) (A) (A) (A) (A) (A) (A) (A) (A) (A)
                 (A) (A) (A) (A) (A) (A) (A) (A) (A) (A) (A) (A)
                 (A) (A) (A) (A) (A) (A) (A) (A) (A) (A) (A) (A)
                 (A) (A) (A) (A) (A) (A) (A) (A) (A) (A) (A) (A)
                 (A) (A) (A) (A) (A) (A) (A) (A) (A) (A) (A) (A)
                 (A) (A) (A) (A) (A) (A) (A) (A) (A) (A) (A) (A)
                 (A) (A) (A) (A) (A) (A) (A) (A) (A) (A) (A) (A)
                 (A) (A) (A) (A) (A) (A) (A) (A) (A)
       Virtual   (A) (A) (A) (A) (A) (A) (A) (A) (A) (A) (A) (A)
                 (A) (A) (A) (A) (A) (A) (A) (A) (A) (A) (A) (A)
                 (A) (A) (A) (A) (A) (A) (A) (A) (A) (A) (A) (A)
                 (A) (A) (A) (A) (A) (A) (A) (A) (A) (A) (A) (A)
                 (A) (A) (A) (A) (A) (A) (A) (A) (A) (A) (A) (A)
                 (A) (A) (A) (A) (A) (A) (A) (A) (A) (A) (A) (A)
                 (A) (A) (A) (A) (A) (A) (A) (A) (A) (A) (A) (A)
                 (A) (A) (A) (A) (A) (A) (A) (A) (A) (A) (A) (A)
                 (A) (A) (A) (A) (A) (A) (A) (A) (A) (A) (A) (A)
                 (A) (A) (A) (A) (A) (A) (A) (A) (A) (A) (A) (A)
                 (A) (A) (A) (A) (A) (A) (A) (A) (A) (A) (A) (A)
                 (A) (A) (A) (A) (A) (A) (A) (A) (A) (A) (A) (A)
                 (A) (A) (A) (A) (A) (A) (A) (A) (A) (A) (A) (A)
                 (A) (A) (A) (A) (A) (A) (A) (A) (A) (A) (A) (A)
                 (A) (A) (A) (A) (A) (A) (A) (A) (A) (A) (A) (A)
                 (A) (A) (A) (A) (A) (A) (A) (A) (A) (A) (A) (A)
                 (A) (A) (A) (A) (A) (A) (A) (A) (A) (A) (A) (A)
                 (A) (A) (A) (A) (A) (A) (A) (A) (A) (A) (A) (A)
                 (A) (A) (A) (A) (A) (A) (A) (A) (A) (A) (A) (A)
                 (A) (A) (A) (A) (A) (A) (A) (A) (A) (A) (A) (A)
                 (A) (A) (A) (A) (A) (A) (A) (A) (A) (A) (A) (A)
                 (A) (A) (A) (A) (A) (A) (A) (A) (A) (A) (A) (A)
                 (A) (A) (A) (A) (A) (A) (A) (A) (A) (A) (A) (A)
                 (A) (A) (A) (A) (A) (A) (A) (A) (A) (A) (A) (A)
                 (A) (A) (A) (A) (A) (A) (A) (A) (A) (A) (A) (A)
                 (A) (A) (A) (A) (A) (A) (A) (A) (A) (A) (A) (A)
                 (A) (A) (A) (A) (A) (A) (A) (A) (A) (A) (A) (A)
                 (A) (A) (A) (A) (A) (A) (A) (A) (A) (A) (A) (A)
                 (A) (A) (A) (A) (A) (A) (A) (A) (A) (A) (A) (A)
                 (A) (A) (A) (A) (A) (A) (A) (A) (A) (A) (A) (A)
                 (A) (A) (A) (A) (A) (A) (A) (A) (A) (A) (A) (A)
                 (A) (A) (A) (A) (A) (A) (A) (A) (A) (A) (A) (A)
                 (A) (A) (A) (A) (A) (A) (A) (A) (A) (A) (A) (A)
                 (A) (A) (A) (A) (A) (A) (A) (A) (A) (A) (A) (A)
                 (A) (A) (A) (A) (A) (A) (A) (A) (A) (A) (A) (A)
                 (A) (A) (A) (A) (A) (A) (A) (A) (A) (A) (A) (A)
                 (A) (A) (A) (A) (A) (A) (A) (A) (A) (A) (A) (A)
                 (A) (A) (A) (A) (A) (A) (A) (A) (A) (A) (A) (A)
                 (A) (A) (A) (A) (A) (A) (A) (A) (A) (A) (A) (A)
                 (A) (A) (A) (A) (A) (A) (A) (A) (A) (A) (A) (A)
                 (A) (A)
 The electronic state is 1-A.
 Alpha  occ. eigenvalues -- -453.94383 -88.97808 -88.96847 -66.12841 -57.54628
 Alpha  occ. eigenvalues --  -52.21252 -52.21173 -52.20921 -14.36785 -14.36022
 Alpha  occ. eigenvalues --  -14.36002 -14.34772 -14.34253 -10.27004 -10.26611
 Alpha  occ. eigenvalues --  -10.26403 -10.26248 -10.25205 -10.24370 -10.24069
 Alpha  occ. eigenvalues --  -10.23965 -10.22972 -10.22922 -10.22871 -10.22478
 Alpha  occ. eigenvalues --  -10.22202 -10.22003 -10.21665 -10.21471 -10.21210
 Alpha  occ. eigenvalues --  -10.19708  -8.05222  -8.03864  -7.79380  -6.01653
 Alpha  occ. eigenvalues --   -6.00999  -6.00815  -6.00289  -5.99703  -5.99511
 Alpha  occ. eigenvalues --   -5.83353  -5.83203  -5.82319  -5.27821  -3.63747
 Alpha  occ. eigenvalues --   -3.63636  -3.63613  -2.19615  -2.19189  -2.18423
 Alpha  occ. eigenvalues --   -2.18355  -2.18180  -1.17873  -1.13742  -1.02629
 Alpha  occ. eigenvalues --   -0.98668  -0.97961  -0.93958  -0.90586  -0.87185
 Alpha  occ. eigenvalues --   -0.84870  -0.84394  -0.81935  -0.79919  -0.76608
 Alpha  occ. eigenvalues --   -0.72701  -0.71872  -0.70205  -0.68618  -0.67202
 Alpha  occ. eigenvalues --   -0.65494  -0.65213  -0.62549  -0.60464  -0.59390
 Alpha  occ. eigenvalues --   -0.58190  -0.57199  -0.56668  -0.56263  -0.55382
 Alpha  occ. eigenvalues --   -0.55001  -0.54421  -0.52183  -0.51807  -0.50882
 Alpha  occ. eigenvalues --   -0.50195  -0.48543  -0.47357  -0.47224  -0.45740
 Alpha  occ. eigenvalues --   -0.44444  -0.43538  -0.42563  -0.41652  -0.41077
 Alpha  occ. eigenvalues --   -0.40329  -0.39110  -0.38581  -0.37985  -0.37197
 Alpha  occ. eigenvalues --   -0.35893  -0.35191  -0.34718  -0.34029  -0.33779
 Alpha  occ. eigenvalues --   -0.33603  -0.33188  -0.32250  -0.31532  -0.30885
 Alpha  occ. eigenvalues --   -0.29952  -0.29004  -0.25573  -0.22186  -0.19992
 Alpha  occ. eigenvalues --   -0.17989  -0.17231
 Alpha virt. eigenvalues --   -0.15384  -0.13931  -0.10505  -0.06970  -0.05458
 Alpha virt. eigenvalues --   -0.04077  -0.02545  -0.01596  -0.00926  -0.00826
 Alpha virt. eigenvalues --   -0.00218   0.00032   0.00441   0.01426   0.01831
 Alpha virt. eigenvalues --    0.02028   0.02280   0.02782   0.02896   0.03278
 Alpha virt. eigenvalues --    0.03733   0.03832   0.03922   0.04423   0.04501
 Alpha virt. eigenvalues --    0.05052   0.05385   0.05769   0.06021   0.06234
 Alpha virt. eigenvalues --    0.06624   0.06835   0.07125   0.07524   0.08097
 Alpha virt. eigenvalues --    0.08378   0.08673   0.08847   0.09191   0.09561
 Alpha virt. eigenvalues --    0.09626   0.09936   0.10257   0.10772   0.11080
 Alpha virt. eigenvalues --    0.11207   0.11353   0.11512   0.11659   0.11923
 Alpha virt. eigenvalues --    0.12079   0.12361   0.12814   0.12944   0.13277
 Alpha virt. eigenvalues --    0.13487   0.13581   0.13662   0.13722   0.13972
 Alpha virt. eigenvalues --    0.14211   0.14761   0.14894   0.15165   0.15413
 Alpha virt. eigenvalues --    0.15612   0.15735   0.16099   0.16302   0.16495
 Alpha virt. eigenvalues --    0.16599   0.16732   0.16875   0.17344   0.17524
 Alpha virt. eigenvalues --    0.17622   0.17906   0.18132   0.18517   0.19058
 Alpha virt. eigenvalues --    0.19381   0.19641   0.19742   0.20492   0.20799
 Alpha virt. eigenvalues --    0.20968   0.21256   0.21424   0.21554   0.21953
 Alpha virt. eigenvalues --    0.22205   0.22334   0.22817   0.22978   0.23217
 Alpha virt. eigenvalues --    0.23378   0.23570   0.23693   0.24143   0.24283
 Alpha virt. eigenvalues --    0.24446   0.24589   0.25194   0.25360   0.25631
 Alpha virt. eigenvalues --    0.25866   0.26186   0.26572   0.26731   0.27041
 Alpha virt. eigenvalues --    0.27364   0.27638   0.27795   0.28078   0.28611
 Alpha virt. eigenvalues --    0.28912   0.29061   0.29149   0.29450   0.29646
 Alpha virt. eigenvalues --    0.29850   0.30195   0.30710   0.30939   0.31406
 Alpha virt. eigenvalues --    0.31541   0.31634   0.31898   0.32345   0.32684
 Alpha virt. eigenvalues --    0.32737   0.33197   0.33425   0.33993   0.34411
 Alpha virt. eigenvalues --    0.34557   0.35164   0.35268   0.36045   0.36395
 Alpha virt. eigenvalues --    0.36485   0.37271   0.37737   0.37913   0.38699
 Alpha virt. eigenvalues --    0.38810   0.39117   0.39440   0.40269   0.40974
 Alpha virt. eigenvalues --    0.41458   0.41945   0.42868   0.43130   0.43779
 Alpha virt. eigenvalues --    0.44277   0.44818   0.45963   0.46420   0.46768
 Alpha virt. eigenvalues --    0.47555   0.48571   0.50450   0.51154   0.51264
 Alpha virt. eigenvalues --    0.52641   0.54205   0.54328   0.55153   0.55818
 Alpha virt. eigenvalues --    0.57495   0.59078   0.59493   0.60204   0.60723
 Alpha virt. eigenvalues --    0.62885   0.63278   0.64364   0.66445   0.67522
 Alpha virt. eigenvalues --    0.68530   0.69260   0.69464   0.69824   0.70897
 Alpha virt. eigenvalues --    0.71284   0.71517   0.72272   0.72954   0.73319
 Alpha virt. eigenvalues --    0.74000   0.74408   0.74504   0.75061   0.75638
 Alpha virt. eigenvalues --    0.76027   0.76363   0.76590   0.77174   0.77752
 Alpha virt. eigenvalues --    0.78181   0.78291   0.79364   0.79900   0.80395
 Alpha virt. eigenvalues --    0.80460   0.80886   0.81287   0.81528   0.81934
 Alpha virt. eigenvalues --    0.82723   0.83183   0.83702   0.84174   0.84500
 Alpha virt. eigenvalues --    0.84675   0.85006   0.85979   0.86648   0.87569
 Alpha virt. eigenvalues --    0.88415   0.89212   0.90385   0.90611   0.90932
 Alpha virt. eigenvalues --    0.92292   0.92928   0.93197   0.93838   0.94589
 Alpha virt. eigenvalues --    0.94747   0.96445   0.96784   0.97655   0.97784
 Alpha virt. eigenvalues --    0.98428   0.99465   0.99837   1.00173   1.00278
 Alpha virt. eigenvalues --    1.01785   1.02332   1.02635   1.03043   1.04649
 Alpha virt. eigenvalues --    1.04877   1.05173   1.05554   1.06169   1.06989
 Alpha virt. eigenvalues --    1.08113   1.08420   1.09802   1.10457   1.10732
 Alpha virt. eigenvalues --    1.11369   1.12065   1.13721   1.14263   1.14375
 Alpha virt. eigenvalues --    1.15606   1.16581   1.17770   1.17863   1.18420
 Alpha virt. eigenvalues --    1.19649   1.20718   1.21114   1.21794   1.22426
 Alpha virt. eigenvalues --    1.22976   1.24124   1.24865   1.25519   1.26959
 Alpha virt. eigenvalues --    1.27594   1.29320   1.29797   1.30702   1.30908
 Alpha virt. eigenvalues --    1.31715   1.33001   1.33848   1.34599   1.35132
 Alpha virt. eigenvalues --    1.35408   1.35988   1.36462   1.36859   1.37410
 Alpha virt. eigenvalues --    1.38549   1.39600   1.40946   1.41177   1.42590
 Alpha virt. eigenvalues --    1.42912   1.44114   1.44845   1.45717   1.47271
 Alpha virt. eigenvalues --    1.49484   1.50456   1.52347   1.54722   1.56127
 Alpha virt. eigenvalues --    1.56871   1.57610   1.58479   1.60313   1.61346
 Alpha virt. eigenvalues --    1.62010   1.63036   1.65228   1.65443   1.65593
 Alpha virt. eigenvalues --    1.66482   1.67033   1.69813   1.72167   1.73501
 Alpha virt. eigenvalues --    1.73596   1.74491   1.75662   1.76979   1.77764
 Alpha virt. eigenvalues --    1.79867   1.81472   1.84084   1.84571   1.85023
 Alpha virt. eigenvalues --    1.86029   1.87194   1.88590   1.90346   1.90796
 Alpha virt. eigenvalues --    1.92432   1.93291   1.93602   1.94005   1.94316
 Alpha virt. eigenvalues --    1.94535   1.95963   1.96922   1.99098   1.99396
 Alpha virt. eigenvalues --    2.00566   2.00857   2.02032   2.02922   2.03916
 Alpha virt. eigenvalues --    2.05627   2.05997   2.06551   2.07400   2.07781
 Alpha virt. eigenvalues --    2.08404   2.09128   2.09946   2.10540   2.13700
 Alpha virt. eigenvalues --    2.14064   2.15325   2.16275   2.18166   2.20496
 Alpha virt. eigenvalues --    2.20964   2.21980   2.24650   2.24979   2.27071
 Alpha virt. eigenvalues --    2.28830   2.29409   2.30030   2.31001   2.31335
 Alpha virt. eigenvalues --    2.32674   2.32948   2.34061   2.34366   2.36320
 Alpha virt. eigenvalues --    2.36590   2.37920   2.39172   2.39540   2.40251
 Alpha virt. eigenvalues --    2.41349   2.42915   2.44164   2.45768   2.47733
 Alpha virt. eigenvalues --    2.47892   2.48419   2.50143   2.50369   2.51527
 Alpha virt. eigenvalues --    2.54783   2.55881   2.56261   2.57035   2.57565
 Alpha virt. eigenvalues --    2.58197   2.59846   2.61435   2.62257   2.64211
 Alpha virt. eigenvalues --    2.64989   2.66620   2.67469   2.67923   2.68204
 Alpha virt. eigenvalues --    2.69308   2.69760   2.71510   2.72289   2.72941
 Alpha virt. eigenvalues --    2.75267   2.75661   2.76775   2.77561   2.78019
 Alpha virt. eigenvalues --    2.79101   2.79943   2.80484   2.81314   2.83150
 Alpha virt. eigenvalues --    2.85098   2.86981   2.89003   2.89964   2.90427
 Alpha virt. eigenvalues --    2.91306   2.93268   2.98880   3.01283   3.02349
 Alpha virt. eigenvalues --    3.04566   3.06539   3.09794   3.10787   3.13805
 Alpha virt. eigenvalues --    3.15253   3.19513   3.31987   3.34736   3.36732
 Alpha virt. eigenvalues --    3.36929   3.43998   3.48589   3.52491   3.54845
 Alpha virt. eigenvalues --    3.58718   3.62150   3.71765   3.76295   3.79556
 Alpha virt. eigenvalues --    3.97040   3.98517   4.17692   4.26384   4.30361
 Alpha virt. eigenvalues --    4.32576   4.37189   4.38479   4.40179   4.41591
 Alpha virt. eigenvalues --    4.42907   4.44401   4.45789   4.47199   4.51084
 Alpha virt. eigenvalues --    4.54966   4.56364   4.61059   4.62221   4.66172
 Alpha virt. eigenvalues --    4.71650   4.79072   4.81712   4.91490   4.96796
 Alpha virt. eigenvalues --    8.76462  90.49185
          Condensed to atoms (all electrons):
              1          2          3          4          5          6
     1  C   12.447742  -1.929839  -3.173221  -0.585881  -0.299647  -1.334651
     2  C   -1.929839  17.328514 -13.020457   5.970292  -1.495689  -1.654171
     3  C   -3.173221 -13.020457  39.114345 -21.855969  -1.250001   1.852328
     4  C   -0.585881   5.970292 -21.855969  36.600796  -3.708039   3.384409
     5  Se  -0.299647  -1.495689  -1.250001  -3.708039  63.114964  -6.847181
     6  C   -1.334651  -1.654171   1.852328   3.384409  -6.847181  19.130523
     7  C    0.413555   0.468066  -1.994506   6.127986  -1.448566  -4.617860
     8  Si  -0.403614   0.101692  -0.252982   0.890159  -3.161291   1.261470
     9  H   -0.008116  -0.052009   0.081393  -0.142554   0.542932  -0.265255
    10  H    0.090123   0.073817  -0.136517   0.106115  -0.309155  -0.084286
    11  C    0.208011  -0.059641  -0.957629   2.136685  -3.764936   1.398844
    12  C    0.072959   0.098273  -0.214782  -0.005564   0.730052  -1.121901
    13  C   -0.057895  -0.274707   0.217922   0.735431  -0.183559   1.618846
    14  C    0.006165  -0.211584   0.778062  -1.023310  -0.194445  -0.265962
    15  N   -0.001598   0.002745  -0.019517  -0.031616   0.013578  -0.153901
    16  S    0.007953   0.025632  -0.052325   0.075411   0.028537  -0.114325
    17  N    0.013842   0.038861  -0.071949   0.020476   0.047510  -0.149060
    18  C   -0.181422  -0.479299   1.996137  -3.568743  -0.607670  -0.874037
    19  C    0.112032  -0.456190   2.352805  -2.984540   0.631981   0.383455
    20  C   -0.167344   0.865714   2.805762 -16.306876  -0.194381  -6.040938
    21  C   -0.742299   0.113102   1.848752  -1.911533   1.499428  -1.575111
    22  C    0.436217   0.048671  -1.976263   4.601339  -9.231766   2.807520
    23  N    0.031050   0.556727  -0.580618  -0.008800   1.071020  -0.703638
    24  C    0.181149  -0.552504   2.193578  -2.380782  -0.834641   0.104485
    25  C   -0.121804  -0.006002  -1.279571   0.947144  -0.559748   1.026921
    26  N    0.001874   0.036340  -0.055218   0.089825   0.047145  -0.063944
    27  S   -0.001970  -0.008123  -0.079159   0.068599   0.368324  -0.055565
    28  N   -0.010281  -0.102547   0.088127  -0.093926   0.165790   0.197530
    29  C   -0.148505  -0.673480   1.987717  -2.502743   4.766836  -1.533844
    30  H    0.242247  -0.079531   0.287863  -0.082302   0.040529   0.009347
    31  H    0.689778  -0.110094  -0.331717   0.107413   0.004566  -0.042660
    32  H    1.037192   1.761969  -3.523028   1.403497  -2.082283  -0.344635
    33  H   -0.252019  -0.300423   1.232834  -0.580538  -0.003042  -0.040843
    34  H   -0.070543   0.075098  -0.648346   1.443622  -0.710837   0.312575
    35  H    0.002501   0.004371  -0.008788   0.010278   0.010702   0.007093
    36  H   -0.005709  -0.024324   0.248453  -0.689858   0.094087  -0.380499
    37  H   -0.210898  -0.240343   0.568961   0.090000  -1.885330   0.722469
    38  H    0.006753  -0.022757   0.038979  -0.050981  -0.013175   0.012216
              7          8          9         10         11         12
     1  C    0.413555  -0.403614  -0.008116   0.090123   0.208011   0.072959
     2  C    0.468066   0.101692  -0.052009   0.073817  -0.059641   0.098273
     3  C   -1.994506  -0.252982   0.081393  -0.136517  -0.957629  -0.214782
     4  C    6.127986   0.890159  -0.142554   0.106115   2.136685  -0.005564
     5  Se  -1.448566  -3.161291   0.542932  -0.309155  -3.764936   0.730052
     6  C   -4.617860   1.261470  -0.265255  -0.084286   1.398844  -1.121901
     7  C   23.057602  -0.749683  -0.066634   0.682869  -0.101855  -2.204623
     8  Si  -0.749683  17.153334   0.009312  -0.430554  -0.012244  -0.867546
     9  H   -0.066634   0.009312   1.006665  -0.218963   0.002006   0.186220
    10  H    0.682869  -0.430554  -0.218963   1.169730   0.066445   0.033747
    11  C   -0.101855  -0.012244   0.002006   0.066445  22.744698   0.125177
    12  C   -2.204623  -0.867546   0.186220   0.033747   0.125177  13.879729
    13  C    1.875919   0.701438  -0.163391  -0.172551   0.396796  -4.555253
    14  C   -1.070960  -0.438512   0.054645   0.052105  -0.100751   0.881215
    15  N   -0.172226  -0.021156   0.002103  -0.001429   0.006742   0.197953
    16  S   -0.036336  -0.003735  -0.001128   0.002058   0.019260  -0.014153
    17  N   -0.102864  -0.027504   0.000788   0.002036   0.003621   0.166410
    18  C   -2.128886   0.040437   0.029683  -0.051097   0.116822  -0.447310
    19  C   -1.548707  -0.405879   0.108759  -0.014950  -1.065635  -0.771318
    20  C   -9.003461  -0.231963   0.080278  -0.055451  -0.566462  -0.313868
    21  C    0.072627   0.860376  -0.052875  -0.087844 -15.827573   0.232939
    22  C    1.001736   0.351731  -0.379705   0.521418   0.591343  -0.040021
    23  N    0.129920   0.007255   0.005210  -0.003570  -0.707272  -0.001070
    24  C    0.161993  -0.192935   0.029825  -0.016380  -0.503753  -0.020983
    25  C   -1.197566  -0.289904  -0.018774   0.010585   0.314745   0.040699
    26  N    0.044231   0.013465  -0.000002  -0.000123   0.157222  -0.000506
    27  S    0.014707  -0.009899   0.002564  -0.000553   0.126523   0.000694
    28  N   -0.095139  -0.065736   0.021830  -0.008319   0.459322  -0.004371
    29  C   -0.312903  -0.860138   0.329048  -0.282750   1.338998   0.004217
    30  H   -0.002748   0.008164   0.000173  -0.002109  -0.012544  -0.007910
    31  H    0.029097  -0.008679  -0.000264   0.002422   0.005444   0.000668
    32  H    0.012257  -0.316007  -0.035298   0.134042   0.269614   0.288022
    33  H   -0.040087  -0.001241   0.000347  -0.000707  -0.015484  -0.007396
    34  H    0.008649  -0.022633   0.002275  -0.002886   0.192045   0.012203
    35  H   -0.017029  -0.007650  -0.011038   0.010382  -0.010680   0.531642
    36  H   -0.152573  -0.008826   0.006037  -0.004778  -0.015872  -0.001890
    37  H   -0.247536   0.105496  -0.025192   0.025649   0.157920  -0.006973
    38  H   -0.000336  -0.001352   0.000714  -0.000811  -0.042057   0.000102
             13         14         15         16         17         18
     1  C   -0.057895   0.006165  -0.001598   0.007953   0.013842  -0.181422
     2  C   -0.274707  -0.211584   0.002745   0.025632   0.038861  -0.479299
     3  C    0.217922   0.778062  -0.019517  -0.052325  -0.071949   1.996137
     4  C    0.735431  -1.023310  -0.031616   0.075411   0.020476  -3.568743
     5  Se  -0.183559  -0.194445   0.013578   0.028537   0.047510  -0.607670
     6  C    1.618846  -0.265962  -0.153901  -0.114325  -0.149060  -0.874037
     7  C    1.875919  -1.070960  -0.172226  -0.036336  -0.102864  -2.128886
     8  Si   0.701438  -0.438512  -0.021156  -0.003735  -0.027504   0.040437
     9  H   -0.163391   0.054645   0.002103  -0.001128   0.000788   0.029683
    10  H   -0.172551   0.052105  -0.001429   0.002058   0.002036  -0.051097
    11  C    0.396796  -0.100751   0.006742   0.019260   0.003621   0.116822
    12  C   -4.555253   0.881215   0.197953  -0.014153   0.166410  -0.447310
    13  C   14.653240  -3.130636  -0.560680   0.077040  -0.084865  -0.109257
    14  C   -3.130636   8.517581   0.523281  -0.433720  -0.163140   0.497526
    15  N   -0.560680   0.523281   7.651637  -0.168638  -0.159471   0.011679
    16  S    0.077040  -0.433720  -0.168638  16.457254  -0.220862  -0.639293
    17  N   -0.084865  -0.163140  -0.159471  -0.220862   7.575201   0.350430
    18  C   -0.109257   0.497526   0.011679  -0.639293   0.350430   9.491876
    19  C   -1.812706   1.336581  -0.021209   0.124461  -0.174429  -1.657311
    20  C   -3.084811   0.393858   0.239285  -0.109839   0.200650   4.380057
    21  C   -0.728206   0.112886  -0.002855  -0.020067  -0.008322   0.131183
    22  C    0.105393  -0.050943  -0.003474   0.006538   0.008603  -0.529711
    23  N   -0.055845   0.003611  -0.000018  -0.000249  -0.000207   0.002685
    24  C   -0.017598   0.023370  -0.000193  -0.001253  -0.001225   0.057520
    25  C    0.193412  -0.003738   0.000297  -0.001063   0.002229  -0.063993
    26  N   -0.004249  -0.000493   0.000001   0.000033  -0.000038   0.001444
    27  S    0.002092  -0.002241   0.000031   0.000231   0.000041  -0.001981
    28  N    0.016143  -0.000229   0.000016   0.000047  -0.000038   0.006792
    29  C    0.079552   0.070113   0.001389  -0.003986  -0.002551   0.260784
    30  H   -0.003336   0.005084  -0.000531  -0.000067  -0.000440   0.006011
    31  H   -0.002040  -0.000232  -0.000007  -0.000032  -0.000130  -0.009472
    32  H   -0.130829  -0.036998   0.017700   0.012217   0.021990  -0.129955
    33  H   -0.017315   0.017883  -0.000282   0.000029  -0.002307   0.049114
    34  H    0.061070  -0.027717   0.002293  -0.000891  -0.000814  -0.013052
    35  H    0.017202  -0.176687   0.002343   0.000032  -0.000022  -0.017115
    36  H   -0.104099   0.022025   0.001051  -0.008639   0.011128   0.162944
    37  H    0.064182   0.025605  -0.000147  -0.000455   0.000576  -0.004367
    38  H    0.000782   0.000691  -0.000007  -0.000029   0.000007   0.002056
             19         20         21         22         23         24
     1  C    0.112032  -0.167344  -0.742299   0.436217   0.031050   0.181149
     2  C   -0.456190   0.865714   0.113102   0.048671   0.556727  -0.552504
     3  C    2.352805   2.805762   1.848752  -1.976263  -0.580618   2.193578
     4  C   -2.984540 -16.306876  -1.911533   4.601339  -0.008800  -2.380782
     5  Se   0.631981  -0.194381   1.499428  -9.231766   1.071020  -0.834641
     6  C    0.383455  -6.040938  -1.575111   2.807520  -0.703638   0.104485
     7  C   -1.548707  -9.003461   0.072627   1.001736   0.129920   0.161993
     8  Si  -0.405879  -0.231963   0.860376   0.351731   0.007255  -0.192935
     9  H    0.108759   0.080278  -0.052875  -0.379705   0.005210   0.029825
    10  H   -0.014950  -0.055451  -0.087844   0.521418  -0.003570  -0.016380
    11  C   -1.065635  -0.566462 -15.827573   0.591343  -0.707272  -0.503753
    12  C   -0.771318  -0.313868   0.232939  -0.040021  -0.001070  -0.020983
    13  C   -1.812706  -3.084811  -0.728206   0.105393  -0.055845  -0.017598
    14  C    1.336581   0.393858   0.112886  -0.050943   0.003611   0.023370
    15  N   -0.021209   0.239285  -0.002855  -0.003474  -0.000018  -0.000193
    16  S    0.124461  -0.109839  -0.020067   0.006538  -0.000249  -0.001253
    17  N   -0.174429   0.200650  -0.008322   0.008603  -0.000207  -0.001225
    18  C   -1.657311   4.380057   0.131183  -0.529711   0.002685   0.057520
    19  C   14.757486  -3.049320   0.741997  -1.800029   0.163839   0.444664
    20  C   -3.049320  34.824498   0.454581  -2.020783   0.194635  -0.133873
    21  C    0.741997   0.454581  39.752640  -4.724335   1.127928  -1.952085
    22  C   -1.800029  -2.020783  -4.724335  36.311350  -1.921742  -2.322420
    23  N    0.163839   0.194635   1.127928  -1.921742   7.596318  -0.479396
    24  C    0.444664  -0.133873  -1.952085  -2.322420  -0.479396  19.673107
    25  C   -0.020845   0.636136 -11.769556   3.265537  -0.331904  -4.426777
    26  N   -0.008444  -0.021078   0.780978  -0.466925   0.064157  -1.053218
    27  S   -0.039955  -0.012589   0.011744  -0.087282   0.027691  -0.777832
    28  N    0.007586   0.025225  -2.578194  -0.155054  -0.069966   0.480382
    29  C    1.225685   0.673143   0.912574 -20.101307   1.339975  -2.028393
    30  H    0.006874   0.017770   0.009107  -0.003678   0.000356  -0.001037
    31  H    0.011366  -0.042107  -0.017239  -0.012200   0.012005   0.005864
    32  H   -0.003051   0.040820  -0.229633   0.676299   0.018356  -0.062541
    33  H    0.017324   0.246329   0.056887  -0.076760   0.008346   0.045562
    34  H   -0.133915  -0.563862  -0.168093   0.293321  -0.106153  -0.288258
    35  H   -0.069931  -0.023567   0.010952   0.001894   0.000216  -0.000281
    36  H   -0.245691   1.341698   0.007910  -0.116301   0.009294   0.038425
    37  H    0.011204  -0.040851  -0.644243   1.952600  -0.355420   0.075298
    38  H    0.011219   0.001265   0.004996  -0.093112  -0.141803   0.880357
             25         26         27         28         29         30
     1  C   -0.121804   0.001874  -0.001970  -0.010281  -0.148505   0.242247
     2  C   -0.006002   0.036340  -0.008123  -0.102547  -0.673480  -0.079531
     3  C   -1.279571  -0.055218  -0.079159   0.088127   1.987717   0.287863
     4  C    0.947144   0.089825   0.068599  -0.093926  -2.502743  -0.082302
     5  Se  -0.559748   0.047145   0.368324   0.165790   4.766836   0.040529
     6  C    1.026921  -0.063944  -0.055565   0.197530  -1.533844   0.009347
     7  C   -1.197566   0.044231   0.014707  -0.095139  -0.312903  -0.002748
     8  Si  -0.289904   0.013465  -0.009899  -0.065736  -0.860138   0.008164
     9  H   -0.018774  -0.000002   0.002564   0.021830   0.329048   0.000173
    10  H    0.010585  -0.000123  -0.000553  -0.008319  -0.282750  -0.002109
    11  C    0.314745   0.157222   0.126523   0.459322   1.338998  -0.012544
    12  C    0.040699  -0.000506   0.000694  -0.004371   0.004217  -0.007910
    13  C    0.193412  -0.004249   0.002092   0.016143   0.079552  -0.003336
    14  C   -0.003738  -0.000493  -0.002241  -0.000229   0.070113   0.005084
    15  N    0.000297   0.000001   0.000031   0.000016   0.001389  -0.000531
    16  S   -0.001063   0.000033   0.000231   0.000047  -0.003986  -0.000067
    17  N    0.002229  -0.000038   0.000041  -0.000038  -0.002551  -0.000440
    18  C   -0.063993   0.001444  -0.001981   0.006792   0.260784   0.006011
    19  C   -0.020845  -0.008444  -0.039955   0.007586   1.225685   0.006874
    20  C    0.636136  -0.021078  -0.012589   0.025225   0.673143   0.017770
    21  C  -11.769556   0.780978   0.011744  -2.578194   0.912574   0.009107
    22  C    3.265537  -0.466925  -0.087282  -0.155054 -20.101307  -0.003678
    23  N   -0.331904   0.064157   0.027691  -0.069966   1.339975   0.000356
    24  C   -4.426777  -1.053218  -0.777832   0.480382  -2.028393  -0.001037
    25  C   35.696421  -2.113576  -0.374386   3.392438 -17.119518  -0.002062
    26  N   -2.113576   7.998354  -0.124608  -0.705123   2.646609  -0.000007
    27  S   -0.374386  -0.124608  16.760985  -0.268690  -0.479387  -0.000058
    28  N    3.392438  -0.705123  -0.268690   8.357182  -1.935574   0.000189
    29  C  -17.119518   2.646609  -0.479387  -1.935574  39.427128   0.000599
    30  H   -0.002062  -0.000007  -0.000058   0.000189   0.000599   0.617975
    31  H   -0.001355   0.000157   0.000090  -0.000432  -0.001422  -0.121618
    32  H   -0.026625   0.006578  -0.011148  -0.030245  -0.310119  -0.110375
    33  H   -0.055845  -0.000403  -0.002346   0.000692   0.035086   0.018397
    34  H    0.339498  -0.008811   0.013641   0.016024  -0.099818  -0.004626
    35  H   -0.000571   0.000004  -0.000067  -0.000317  -0.003556  -0.000142
    36  H   -0.012159  -0.001132  -0.001513   0.002217   0.054945   0.001024
    37  H    0.475263  -0.031448  -0.039810   0.031345  -0.906124   0.014133
    38  H   -0.430571  -0.014232  -0.030541   0.000514   0.081159   0.000007
             31         32         33         34         35         36
     1  C    0.689778   1.037192  -0.252019  -0.070543   0.002501  -0.005709
     2  C   -0.110094   1.761969  -0.300423   0.075098   0.004371  -0.024324
     3  C   -0.331717  -3.523028   1.232834  -0.648346  -0.008788   0.248453
     4  C    0.107413   1.403497  -0.580538   1.443622   0.010278  -0.689858
     5  Se   0.004566  -2.082283  -0.003042  -0.710837   0.010702   0.094087
     6  C   -0.042660  -0.344635  -0.040843   0.312575   0.007093  -0.380499
     7  C    0.029097   0.012257  -0.040087   0.008649  -0.017029  -0.152573
     8  Si  -0.008679  -0.316007  -0.001241  -0.022633  -0.007650  -0.008826
     9  H   -0.000264  -0.035298   0.000347   0.002275  -0.011038   0.006037
    10  H    0.002422   0.134042  -0.000707  -0.002886   0.010382  -0.004778
    11  C    0.005444   0.269614  -0.015484   0.192045  -0.010680  -0.015872
    12  C    0.000668   0.288022  -0.007396   0.012203   0.531642  -0.001890
    13  C   -0.002040  -0.130829  -0.017315   0.061070   0.017202  -0.104099
[...]
    10  H    3.922662   2.852004   1.478291   2.552115   0.000000
    11  C    3.395338   3.043402   1.858886   2.557725   2.588327
    12  C    3.657154   2.333605   2.639259   2.925975   2.963392
    13  C    2.459706   1.414592   2.750380   3.361085   3.385207
    14  C    2.825999   2.449131   4.132813   4.729729   4.741382
    15  N    4.147795   3.715763   5.238237   5.689034   5.714491
    16  S    4.762694   4.780056   6.528878   7.062521   7.069744
    17  N    3.688480   4.151319   6.053141   6.741644   6.725230
    18  C    2.424531   2.816981   4.726114   5.464636   5.447609
    19  C    1.398754   2.447506   4.276506   5.141880   5.112188
    20  C    2.445233   3.753314   5.425292   6.312043   6.257468
    21  C    4.205113   4.190139   3.196721   3.734902   3.771592
    22  C    4.530572   4.842024   4.214199   5.034298   4.565529
    23  N    5.726876   6.143174   5.507282   6.207426   5.835954
    24  C    6.573757   6.903380   6.078447   6.499611   6.508583
    25  C    6.495278   6.607441   5.545633   5.667277   6.090655
    26  N    7.586167   7.620936   6.453071   6.311391   7.036617
    27  S    7.458907   7.247519   5.910173   5.419265   6.576427
    28  N    5.930474   5.625074   4.250863   3.856634   4.965369
    29  C    5.426682   5.347503   4.162004   4.226238   4.791277
    30  H    5.095774   5.784586   6.742162   8.176804   6.544935
    31  H    5.353920   6.341012   7.635761   8.963067   7.740699
    32  H    2.881157   3.719120   4.677051   6.032751   4.852545
    33  H    4.218787   5.532138   6.984102   8.064310   7.566100
    34  H    3.611269   4.977071   6.147290   6.904210   7.105363
    35  H    4.552396   3.323951   3.723617   3.845075   3.901560
    36  H    3.353177   4.572357   6.329374   7.104720   7.211154
    37  H    4.169984   4.549931   4.165180   5.247401   4.327379
    38  H    7.515664   7.929700   7.161288   7.565400   7.579686
                   11         12         13         14         15
    11  C    0.000000
    12  C    4.467119   0.000000
    13  C    4.289053   1.411135   0.000000
    14  C    5.491158   2.604968   1.450012   0.000000
    15  N    6.732911   3.182061   2.490350   1.330019   0.000000
    16  S    7.809211   4.759477   3.828248   2.397418   1.644677
    17  N    7.005538   4.935568   3.672600   2.334998   2.513639
    18  C    5.679941   3.866410   2.503296   1.447240   2.320650
    19  C    4.788807   4.284427   2.890725   2.497902   3.646254
    20  C    5.532919   5.736594   4.350900   3.869282   4.878526
    21  C    1.337835   5.794852   5.519777   6.621013   7.904822
    22  C    2.487708   6.688199   6.224311   7.157361   8.470967
    23  N    3.712692   8.014599   7.538116   8.429689   9.751494
    24  C    4.219811   8.667421   8.289348   9.252466  10.571105
    25  C    3.754003   8.145253   7.927401   9.004532  10.288583
    26  N    4.781200   8.998652   8.881927   9.995178  11.247747
    27  S    4.554660   8.285382   8.357929   9.552392  10.722171
    28  N    2.945019   6.667324   6.731878   7.956652   9.130559
    29  C    2.454164   6.746458   6.610960   7.760098   9.013894
    30  H    6.681957   7.305801   6.358426   6.246020   7.083382
    31  H    7.554631   8.036546   6.868203   6.435480   7.197510
    32  H    4.478204   5.661005   4.633829   4.800270   5.936724
    33  H    6.736715   7.574492   6.237625   5.775655   6.697899
    34  H    5.546196   7.239517   5.980618   5.859889   6.984854
    35  H    5.563768   1.104762   2.114722   2.813035   2.894878
    36  H    6.522038   6.365722   4.957849   4.213353   5.008602
    37  H    2.750166   6.434157   5.887628   6.728504   8.022901
    38  H    5.302703   9.741355   9.326248  10.243302  11.567907
                   16         17         18         19         20
    16  S    0.000000
    17  N    1.643818   0.000000
    18  C    2.393482   1.339032   0.000000
    19  C    3.796826   2.459696   1.427303   0.000000
    20  C    4.632487   3.035749   2.557940   1.463322   0.000000
    21  C    8.858455   7.893355   6.609217   5.527357   5.978177
    22  C    9.247824   8.118968   6.914634   5.690149   5.847571
    23  N   10.457548   9.248324   8.093058   6.800427   6.758805
    24  C   11.336323  10.157232   8.978190   7.699300   7.689267
    25  C   11.188789  10.138649   8.902710   7.726900   7.924636
    26  N   12.192194  11.190674   9.955067   8.821045   9.043777
    27  S   11.797308  10.973283   9.712099   8.743120   9.190942
    28  N   10.242169   9.462628   8.173627   7.258953   7.836110
    29  C   10.012313   9.080564   7.801170   6.738388   7.156179
    30  H    7.071566   5.983235   5.540586   4.914546   4.668960
    31  H    6.793217   5.509569   5.388149   4.761377   4.051494
    32  H    6.213180   4.972598   4.116696   3.094408   3.062534
    33  H    6.237680   4.643619   4.462098   3.490110   2.206378
    34  H    6.846924   5.261387   4.706247   3.398405   2.301656
    35  H    4.539473   5.082438   4.234606   4.947839   6.409395
    36  H    4.432317   2.802515   2.793412   2.162230   1.084454
    37  H    8.737254   7.597468   6.433910   5.231940   5.368946
    38  H   12.269295  11.030347   9.892772   8.572492   8.432037
                   21         22         23         24         25
    21  C    0.000000
    22  C    1.462157   0.000000
    23  N    2.480442   1.339376   0.000000
    24  C    2.882357   2.334718   1.322606   0.000000
    25  C    2.525472   2.766834   2.385066   1.427247   0.000000
    26  N    3.690403   4.099793   3.642124   2.471403   1.335642
    27  S    3.848715   4.766497   4.737337   3.812557   2.404203
    28  N    2.487385   3.711291   4.121747   3.637696   2.325515
    29  C    1.472248   2.445783   2.806499   2.478922   1.443109
    30  H    6.952946   6.182535   6.931147   8.238935   8.940505
    31  H    7.775734   7.002761   7.664997   8.917447   9.650459
    32  H    4.797991   4.248499   5.206888   6.426720   6.918293
    33  H    6.871462   6.263057   6.891370   7.958068   8.559717
    34  H    5.475237   5.085518   5.609730   6.383492   6.797057
    35  H    6.894342   7.787939   9.116421   9.769443   9.224294
    36  H    6.971049   6.865503   7.724521   8.608040   8.830252
    37  H    2.190344   1.082541   2.066972   3.280522   3.839185
    38  H    3.965260   3.301424   2.076145   1.086817   2.194784
                   26         27         28         29         30
    26  N    0.000000
    27  S    1.656621   0.000000
    28  N    2.525315   1.661691   0.000000
    29  C    2.327103   2.399101   1.323302   0.000000
    30  H   10.272647  10.782056   9.402758   8.385478   0.000000
    31  H   10.954504  11.498922  10.168432   9.154044   1.841521
    32  H    8.219795   8.593230   7.178633   6.229827   2.422136
    33  H    9.761034  10.249002   9.016647   8.085635   3.752514
    34  H    7.846560   8.287820   7.228360   6.396741   5.545359
    35  H   10.043823   9.259105   7.666750   7.814705   7.956345
    36  H    9.901100  10.021339   8.708809   8.083761   5.357801
    37  H    5.171488   5.794617   4.625792   3.430205   5.139552
    38  H    2.793521   4.363903   4.516177   3.471149   8.879350
                   31         32         33         34         35
    31  H    0.000000
    32  H    3.088634   0.000000
    33  H    2.539484   3.084922   0.000000
    34  H    4.876313   3.794142   2.539396   0.000000
    35  H    8.639988   6.505767   8.271155   8.085307   0.000000
    36  H    4.430666   4.053278   2.445084   2.711298   6.917677
    37  H    6.070110   3.339055   5.615091   4.863073   7.506875
    38  H    9.482026   7.201834   8.509977   6.923326  10.844267
                   36         37         38
    36  H    0.000000
    37  H    6.422752   0.000000
    38  H    9.308519   4.142074   0.000000
 Stoichiometry    C18H11N5S2SeSi
 Framework group  C1[X(C18H11N5S2SeSi)]
 Deg. of freedom   108
 Full point group                 C1      NOp   1
 Largest Abelian subgroup         C1      NOp   1
 Largest concise Abelian subgroup C1      NOp   1
                         Standard orientation:                         
 ---------------------------------------------------------------------
 Center     Atomic      Atomic             Coordinates (Angstroms)
 Number     Number       Type             X           Y           Z
 ---------------------------------------------------------------------
      1          6           0        2.652779    3.756226    2.045357
      2          6           0        1.991788    2.969898    1.185277
      3          6           0        2.140703    3.030063   -0.285639
      4          6           0        1.165989    2.421155   -1.247060
      5         34           0       -0.137634    1.119263   -0.566790
      6          6           0        1.333724   -0.042662   -0.183197
      7          6           0        1.225662   -1.297984    0.423943
      8         14           0       -0.349659   -2.122277    1.143556
      9          1           0       -0.824210   -3.278854    0.350539
     10          1           0       -0.349773   -2.210523    2.619210
     11          6           0       -1.767596   -0.955499    0.854521
     12          6           0        1.976009   -3.369025    1.194322
     13          6           0        2.338300   -2.160538    0.562177
     14          6           0        3.619899   -1.682789    0.080726
     15          7           0        4.780164   -2.332541    0.104403
     16         16           0        5.903163   -1.331559   -0.560332
     17          7           0        4.951735   -0.034998   -0.900707
     18          6           0        3.716833   -0.359573   -0.497381
     19          6           0        2.560593    0.468339   -0.619298
     20          6           0        2.566146    1.822429   -1.174023
     21          6           0       -2.788076   -0.115766    0.646502
     22          6           0       -2.818802    1.291322    1.042812
     23          7           0       -3.868899    2.105262    0.873327
     24          6           0       -4.983888    1.714828    0.278644
     25          6           0       -5.149121    0.353558   -0.117179
     26          7           0       -6.235393   -0.194286   -0.668379
     27         16           0       -5.879752   -1.793289   -0.915566
     28          7           0       -4.325171   -1.810768   -0.328891
     29          6           0       -4.060868   -0.576106    0.067192
     30          1           0        2.501926    3.659338    3.117926
     31          1           0        3.351014    4.530509    1.735424
     32          1           0        1.288380    2.236936    1.578178
     33          1           0        2.598183    3.958245   -0.621425
     34          1           0        0.801273    2.962302   -2.113988
     35          1           0        2.812280   -4.082033    1.307326
     36          1           0        3.334782    2.017658   -1.913701
     37          1           0       -2.001291    1.668572    1.643855
     38          1           0       -5.749837    2.456427    0.067638
 ---------------------------------------------------------------------
 Rotational constants (GHZ):      0.2770660      0.0816416      0.0686503
 Standard basis: 6-31++G(d,p) (6D, 7F)
 There are   606 symmetry adapted basis functions of A   symmetry.
 Integral buffers will be    131072 words long.
 Raffenetti 2 integral format.
 Two-electron integral symmetry is turned on.
   606 basis functions,  1079 primitive gaussians,   606 cartesian basis functions
   117 alpha electrons      117 beta electrons
       nuclear repulsion energy      3328.9028342209 Hartrees.
 NAtoms=   38 NActive=   38 NUniq=   38 SFac= 1.00D+00 NAtFMM=   60 NAOKFM=F Big=F
 One-electron integrals computed using PRISM.
 NBasis=   606 RedAO= T  NBF=   606
 NBsUse=   600 1.00D-06 NBFU=   600
 Initial guess read from the read-write file.
 B after Tr=     0.000000    0.000000    0.000000
         Rot=    1.000000   -0.000000   -0.000000    0.000000 Ang=   0.00 deg.
 Initial guess orbital symmetries:
       Occupied  (A) (A) (A) (A) (A) (A) (A) (A) (A) (A) (A) (A)
                 (A) (A) (A) (A) (A) (A) (A) (A) (A) (A) (A) (A)
                 (A) (A) (A) (A) (A) (A) (A) (A) (A) (A) (A) (A)
                 (A) (A) (A) (A) (A) (A) (A) (A) (A) (A) (A) (A)
                 (A) (A) (A) (A) (A) (A) (A) (A) (A) (A) (A) (A)
                 (A) (A) (A) (A) (A) (A) (A) (A) (A) (A) (A) (A)
                 (A) (A) (A) (A) (A) (A) (A) (A) (A) (A) (A) (A)
                 (A) (A) (A) (A) (A) (A) (A) (A) (A) (A) (A) (A)
                 (A) (A) (A) (A) (A) (A) (A) (A) (A) (A) (A) (A)
                 (A) (A) (A) (A) (A) (A) (A) (A) (A)
       Virtual   (A) (A) (A) (A) (A) (A) (A) (A) (A) (A) (A) (A)
                 (A) (A) (A) (A) (A) (A) (A) (A) (A) (A) (A) (A)
                 (A) (A) (A) (A) (A) (A) (A) (A) (A) (A) (A) (A)
                 (A) (A) (A) (A) (A) (A) (A) (A) (A) (A) (A) (A)
                 (A) (A) (A) (A) (A) (A) (A) (A) (A) (A) (A) (A)
                 (A) (A) (A) (A) (A) (A) (A) (A) (A) (A) (A) (A)
                 (A) (A) (A) (A) (A) (A) (A) (A) (A) (A) (A) (A)
                 (A) (A) (A) (A) (A) (A) (A) (A) (A) (A) (A) (A)
                 (A) (A) (A) (A) (A) (A) (A) (A) (A) (A) (A) (A)
                 (A) (A) (A) (A) (A) (A) (A) (A) (A) (A) (A) (A)
                 (A) (A) (A) (A) (A) (A) (A) (A) (A) (A) (A) (A)
                 (A) (A) (A) (A) (A) (A) (A) (A) (A) (A) (A) (A)
                 (A) (A) (A) (A) (A) (A) (A) (A) (A) (A) (A) (A)
                 (A) (A) (A) (A) (A) (A) (A) (A) (A) (A) (A) (A)
                 (A) (A) (A) (A) (A) (A) (A) (A) (A) (A) (A) (A)
                 (A) (A) (A) (A) (A) (A) (A) (A) (A) (A) (A) (A)
                 (A) (A) (A) (A) (A) (A) (A) (A) (A) (A) (A) (A)
                 (A) (A) (A) (A) (A) (A) (A) (A) (A) (A) (A) (A)
                 (A) (A) (A) (A) (A) (A) (A) (A) (A) (A) (A) (A)
                 (A) (A) (A) (A) (A) (A) (A) (A) (A) (A) (A) (A)
                 (A) (A) (A) (A) (A) (A) (A) (A) (A) (A) (A) (A)
                 (A) (A) (A) (A) (A) (A) (A) (A) (A) (A) (A) (A)
                 (A) (A) (A) (A) (A) (A) (A) (A) (A) (A) (A) (A)
                 (A) (A) (A) (A) (A) (A) (A) (A) (A) (A) (A) (A)
                 (A) (A) (A) (A) (A) (A) (A) (A) (A) (A) (A) (A)
                 (A) (A) (A) (A) (A) (A) (A) (A) (A) (A) (A) (A)
                 (A) (A) (A) (A) (A) (A) (A) (A) (A) (A) (A) (A)
                 (A) (A) (A) (A) (A) (A) (A) (A) (A) (A) (A) (A)
                 (A) (A) (A) (A) (A) (A) (A) (A) (A) (A) (A) (A)
                 (A) (A) (A) (A) (A) (A) (A) (A) (A) (A) (A) (A)
                 (A) (A) (A) (A) (A) (A) (A) (A) (A) (A) (A) (A)
                 (A) (A) (A) (A) (A) (A) (A) (A) (A) (A) (A) (A)
                 (A) (A) (A) (A) (A) (A) (A) (A) (A) (A) (A) (A)
                 (A) (A) (A) (A) (A) (A) (A) (A) (A) (A) (A) (A)
                 (A) (A) (A) (A) (A) (A) (A) (A) (A) (A) (A) (A)
                 (A) (A) (A) (A) (A) (A) (A) (A) (A) (A) (A) (A)
                 (A) (A) (A) (A) (A) (A) (A) (A) (A) (A) (A) (A)
                 (A) (A) (A) (A) (A) (A) (A) (A) (A) (A) (A) (A)
                 (A) (A) (A) (A) (A) (A) (A) (A) (A) (A) (A) (A)
                 (A) (A) (A) (A) (A) (A) (A) (A) (A) (A) (A) (A)
                 (A) (A) (A)
 Harris functional with IExCor=  402 diagonalized for initial guess.
 ExpMin= 3.00D-02 ExpMax= 5.61D+05 ExpMxC= 5.42D+03 IAcc=3 IRadAn=         5 AccDes= 0.00D+00
 HarFok:  IExCor=  402 AccDes= 0.00D+00 IRadAn=         5 IDoV= 1
 ScaDFX=  1.000000  1.000000  1.000000  1.000000
 FoFCou: FMM=F IPFlag=           0 FMFlag=      100000 FMFlg1=           0
         NFxFlg=           0 DoJE=T BraDBF=F KetDBF=T FulRan=T
         Omega=  0.000000  0.000000  1.000000  0.000000  0.000000 ICntrl=     500 IOpCl=  0
         NMat0=    1 NMatS0=    1 NMatT0=    0 NMatD0=    1 NMtDS0=    0 NMtDT0=    0
         I1Cent=           4 NGrid=           0.
 Petite list used in FoFCou.
 Requested convergence on RMS density matrix=1.00D-08 within 128 cycles.
 Requested convergence on MAX density matrix=1.00D-06.
 Requested convergence on             energy=1.00D-06.
 No special actions if energy rises.
 Restarting incremental Fock formation.
 SCF Done:  E(RB3LYP) =  -4451.29461711     A.U. after   27 cycles
             Convg  =    0.9179D-08             -V/T =  2.0053
 Calling FoFJK, ICntrl=      2127 FMM=F ISym2X=0 I1Cent= 0 IOpClX= 0 NMat=1 NMatS=1 NMatT=0.
 ***** Axes restored to original set *****
 -------------------------------------------------------------------
 Center     Atomic                   Forces (Hartrees/Bohr)
 Number     Number              X              Y              Z
 -------------------------------------------------------------------
      1        6           0.001359768   -0.000224105    0.000825326
      2        6           0.001043944    0.001698220    0.003055761
      3        6          -0.001903846   -0.005259696    0.002234333
      4        6           0.001127223    0.001987617    0.000602960
      5       34           0.004637201    0.000816106   -0.000191275
      6        6          -0.007364561   -0.002606257   -0.000696594
      7        6           0.003240145   -0.000061685    0.000150327
      8       14           0.002343752    0.001010973   -0.000844973
      9        1           0.000010305   -0.000564993    0.000038922
     10        1           0.000081995   -0.000227714   -0.000252236
     11        6          -0.008377722    0.004626214    0.005179242
     12        6           0.000854140    0.000215706   -0.001145113
     13        6           0.002941345    0.002039216    0.002623780
     14        6           0.000387972    0.001154783   -0.001216510
     15        7           0.002545019    0.002140038    0.001393347
     16       16          -0.001571696   -0.001062116   -0.000451125
     17        7          -0.001203503   -0.001116690   -0.000406901
     18        6          -0.002204278    0.000799508    0.000031180
     19        6           0.003345307   -0.000048613    0.000906780
     20        6          -0.000070063    0.001787284   -0.001061654
     21        6           0.007329215   -0.005882082   -0.003418454
     22        6          -0.000834492    0.001606245   -0.003700277
     23        7           0.002254143    0.001072116    0.001085182
     24        6          -0.000545520   -0.000910344   -0.000080436
     25        6          -0.000904935   -0.001022166    0.001815736
     26        7           0.001976582    0.001978602   -0.003198763
     27       16          -0.002846101   -0.001562285    0.003562282
     28        7           0.002453813    0.001045204   -0.003839293
     29        6          -0.001616767   -0.001016991    0.002722877
     30        1           0.000375771   -0.000597543   -0.001405926
     31        1          -0.000238701    0.001311516   -0.002221213
     32        1          -0.001251413    0.000621985    0.000109659
     33        1          -0.001341573    0.001073545   -0.002291787
     34        1          -0.003427415    0.000490962    0.000899630
     35        1          -0.001154227   -0.002445570   -0.000061202
     36        1          -0.001593547   -0.003222969   -0.001308773
     37        1           0.000061325   -0.000441342    0.000013834
     38        1           0.000081396    0.000797323    0.000541348
 -------------------------------------------------------------------
 Cartesian Forces:  Max     0.008377722 RMS     0.002302654

 GradGradGradGradGradGradGradGradGradGradGradGradGradGradGradGradGradGrad
 Berny optimization.
 Using GEDIIS/GDIIS optimizer.
 NTrRot=    -1 NTRed=   244 NAtoms=    38 NSkip=   136 IsLin=F
 Error in internal coordinate system.
 Error termination via Lnk1e in /opt/gaussian/g09/l103.exe at Mon Dec 30 01:02:53 2013.
 Job cpu time:  2 days 13 hours 58 minutes  4.7 seconds.
 File lengths (MBytes):  RWF=    224 Int=      0 D2E=      0 Chk=     28 Scr=      1
