 Entering Gaussian System, Link 0=g09
 Initial command:
 /opt/gaussian/g09/l1.exe /panfs/panfs.cluster/home/shuo/Gau-30404.inp -scrdir=/panfs/panfs.cluster/home/shuo/
 Default is to use a total of  12 processors:
                               12 via shared-memory
                                1 via Linda
 Entering Link 1 = /opt/gaussian/g09/l1.exe PID=     30405.
  
 Copyright (c) 1988,1990,1992,1993,1995,1998,2003,2009,2011,
            Gaussian, Inc.  All Rights Reserved.
  
 This is part of the Gaussian(R) 09 program.  It is based on
 the Gaussian(R) 03 system (copyright 2003, Gaussian, Inc.),
 the Gaussian(R) 98 system (copyright 1998, Gaussian, Inc.),
 the Gaussian(R) 94 system (copyright 1995, Gaussian, Inc.),
 the Gaussian 92(TM) system (copyright 1992, Gaussian, Inc.),
 the Gaussian 90(TM) system (copyright 1990, Gaussian, Inc.),
 the Gaussian 88(TM) system (copyright 1988, Gaussian, Inc.),
 the Gaussian 86(TM) system (copyright 1986, Carnegie Mellon
 University), and the Gaussian 82(TM) system (copyright 1983,
 Carnegie Mellon University). Gaussian is a federally registered
 trademark of Gaussian, Inc.
  
 This software contains proprietary and confidential information,
 including trade secrets, belonging to Gaussian, Inc.
  
 This software is provided under written license and may be
 used, copied, transmitted, or stored only in accord with that
 written license.
  
 The following legend is applicable only to US Government
 contracts under FAR:
  
                    RESTRICTED RIGHTS LEGEND
  
 Use, reproduction and disclosure by the US Government is
 subject to restrictions as set forth in subparagraphs (a)
 and (c) of the Commercial Computer Software - Restricted
 Rights clause in FAR 52.227-19.
  
 Gaussian, Inc.
 340 Quinnipiac St., Bldg. 40, Wallingford CT 06492
  
  
 ---------------------------------------------------------------
 Warning -- This program may not be used in any manner that
 competes with the business of Gaussian, Inc. or will provide
 assistance to any competitor of Gaussian, Inc.  The licensee
 of this program is prohibited from giving any competitor of
 Gaussian, Inc. access to this program.  By using this program,
 the user acknowledges that Gaussian, Inc. is engaged in the
 business of creating and licensing software in the field of
 computational chemistry and represents and warrants to the
 licensee that it is not a competitor of Gaussian, Inc. and that
 it will not use this program in any manner prohibited above.
 ---------------------------------------------------------------
  

 Cite this work as:
 Gaussian 09, Revision C.01,
 M. J. Frisch, G. W. Trucks, H. B. Schlegel, G. E. Scuseria, 
 M. A. Robb, J. R. Cheeseman, G. Scalmani, V. Barone, B. Mennucci, 
 G. A. Petersson, H. Nakatsuji, M. Caricato, X. Li, H. P. Hratchian, 
 A. F. Izmaylov, J. Bloino, G. Zheng, J. L. Sonnenberg, M. Hada, 
 M. Ehara, K. Toyota, R. Fukuda, J. Hasegawa, M. Ishida, T. Nakajima, 
 Y. Honda, O. Kitao, H. Nakai, T. Vreven, J. A. Montgomery, Jr., 
 J. E. Peralta, F. Ogliaro, M. Bearpark, J. J. Heyd, E. Brothers, 
 K. N. Kudin, V. N. Staroverov, T. Keith, R. Kobayashi, J. Normand, 
 K. Raghavachari, A. Rendell, J. C. Burant, S. S. Iyengar, J. Tomasi, 
 M. Cossi, N. Rega, J. M. Millam, M. Klene, J. E. Knox, J. B. Cross, 
 V. Bakken, C. Adamo, J. Jaramillo, R. Gomperts, R. E. Stratmann, 
 O. Yazyev, A. J. Austin, R. Cammi, C. Pomelli, J. W. Ochterski, 
 R. L. Martin, K. Morokuma, V. G. Zakrzewski, G. A. Voth, 
 P. Salvador, J. J. Dannenberg, S. Dapprich, A. D. Daniels, 
 O. Farkas, J. B. Foresman, J. V. Ortiz, J. Cioslowski, 
 and D. J. Fox, Gaussian, Inc., Wallingford CT, 2010.
 
 ******************************************
 Gaussian 09:  EM64L-G09RevC.01 23-Sep-2011
                28-Dec-2013 
 ******************************************
 %chk=17_C24H15N3S2Si2.chk
 %NProcShared=12
 Will use up to   12 processors via shared memory.
 %Mem=8000MB
 Default route:  MaxDisk=100GB
 --------------------------------------------
 #B3LYP/6-31++G(d,p) opt scf=direct freq test
 --------------------------------------------
 1/14=-1,18=20,19=15,26=3,38=1/1,3;
 2/9=110,12=2,17=6,18=5,40=1/2;
 3/5=1,6=6,7=1111,11=2,16=1,25=1,30=1,71=1,74=-5/1,2,3;
 4//1;
 5/5=2,38=5/2;
 6/7=2,8=2,9=2,10=2,28=1/1;
 7//1,2,3,16;
 1/14=-1,18=20,19=15/3(2);
 2/9=110/2;
 99//99;
 2/9=110/2;
 3/5=1,6=6,7=1111,11=2,16=1,25=1,30=1,71=1,74=-5/1,2,3;
 4/5=5,16=3/1;
 5/5=2,38=5/2;
 7//1,2,3,16;
 1/14=-1,18=20,19=15/3(-5);
 2/9=110/2;
 6/7=2,8=2,9=2,10=2,19=2,28=1/1;
 99/9=1/99;
 ----------------------------------------------------------------------
 Geom opt of No.17 candidate from the CEPDB database with SMILE code of
  C1cccc1-c1ncc(-c2sc(-c3scc4cc[SiH2]c34)c3cc[SiH2]c23)c2nsnc12, HPC, 2
 0131227, Shuo Dai, Gaussian09
 ----------------------------------------------------------------------
 Charge =  0 Multiplicity = 3
 Symbolic Z-Matrix:
 C                     0.21835   1.17839  -0.1003 
 C                     1.34306   0.21423  -0.18552 
 C                     0.86226  -1.04063  -0.22683 
 C                    -0.57485  -1.033    -0.15912 
 C                    -0.94967   0.2527    0.03869 
 C                    -2.05485   0.58714   0.88354 
 N                    -2.56165  -0.40437   1.67017 
 C                    -3.1504   -0.10575   2.846 
 C                    -3.28321   1.17325   3.4017 
 C                    -4.01162   1.45483   4.60854 
 S                    -4.83716   0.15695   5.32488 
 C                    -5.36966   1.07502   6.66026 
 C                    -6.06483   0.35638   7.68688 
 S                    -5.87289  -1.37135   7.88548 
 C                    -6.9037   -1.42405   9.23829 
 C                    -7.37565  -0.17754   9.55874 
 C                    -8.24605   0.27987   10.6863 
 C                    -8.39083   1.78508   10.62193 
 Si                   -7.62999   2.40908   9.08768 
 H                    -8.3807    3.0197    7.95646 
 H                    -6.50079   3.29591   9.46207 
 C                    -6.92622   0.7958    8.63731 
 C                    -5.04511   2.4135    6.49864 
 C                    -5.28255   3.68093   7.2934 
 C                    -4.84289   4.8947    6.54661 
 Si                   -3.89431   4.37367   5.1316 
 H                    -4.34036   4.86184   3.80134 
 H                    -2.45599   4.49267   5.47185 
 C                    -4.28492   2.58545   5.3173 
 C                    -2.68987   2.19468   2.63432 
 N                    -2.4536    3.46568   2.97123 
 S                    -1.83368   4.28948   1.71266 
 N                    -1.7121    3.03234   0.67168 
 C                    -2.14706   1.92745   1.31129 
 H                     0.11441   1.81771  -0.98269 
 H                     0.38231   1.79738   0.79143 
 H                     2.36668   0.52063  -0.07319 
 H                     1.44372  -1.93941  -0.11538 
 H                    -1.1863   -1.88606   0.08615 
 H                    -3.50739  -0.99967   3.36153 
 H                    -7.0812   -2.36891   9.72712 
 H                    -7.76661   0.01122   11.62913 
 H                    -9.23002  -0.18285   10.59783 
 H                    -8.14074   2.40319   11.47202 
 H                    -4.70956   3.64075   8.2233 
 H                    -6.34006   3.85698   7.42473 
 H                    -4.70628   5.87775   6.95708 
 

 GradGradGradGradGradGradGradGradGradGradGradGradGradGradGradGradGradGrad
 Berny optimization.
 Initialization pass.
                           ----------------------------
                           !    Initial Parameters    !
                           ! (Angstroms and Degrees)  !
 --------------------------                            --------------------------
 ! Name  Definition              Value          Derivative Info.                !
 --------------------------------------------------------------------------------
 ! R1    R(1,2)                  1.4839         estimate D2E/DX2                !
 ! R2    R(1,5)                  1.4968         estimate D2E/DX2                !
 ! R3    R(1,35)                 1.0946         estimate D2E/DX2                !
 ! R4    R(1,36)                 1.0978         estimate D2E/DX2                !
 ! R5    R(2,3)                  1.3445         estimate D2E/DX2                !
 ! R6    R(2,37)                 1.0744         estimate D2E/DX2                !
 ! R7    R(3,4)                  1.4387         estimate D2E/DX2                !
 ! R8    R(3,38)                 1.0763         estimate D2E/DX2                !
 ! R9    R(4,5)                  1.3538         estimate D2E/DX2                !
 ! R10   R(4,39)                 1.0778         estimate D2E/DX2                !
 ! R11   R(5,6)                  1.4307         estimate D2E/DX2                !
 ! R12   R(6,7)                  1.3634         estimate D2E/DX2                !
 ! R13   R(6,34)                 1.4099         estimate D2E/DX2                !
 ! R14   R(7,8)                  1.3485         estimate D2E/DX2                !
 ! R15   R(8,9)                  1.4008         estimate D2E/DX2                !
 ! R16   R(8,40)                 1.0919         estimate D2E/DX2                !
 ! R17   R(9,10)                 1.4375         estimate D2E/DX2                !
 ! R18   R(9,30)                 1.4086         estimate D2E/DX2                !
 ! R19   R(10,11)                1.6968         estimate D2E/DX2                !
 ! R20   R(10,29)                1.3621         estimate D2E/DX2                !
 ! R21   R(11,12)                1.7058         estimate D2E/DX2                !
 ! R22   R(12,13)                1.4331         estimate D2E/DX2                !
 ! R23   R(12,23)                1.3867         estimate D2E/DX2                !
 ! R24   R(13,14)                1.7497         estimate D2E/DX2                !
 ! R25   R(13,22)                1.3559         estimate D2E/DX2                !
 ! R26   R(14,15)                1.7016         estimate D2E/DX2                !
 ! R27   R(15,16)                1.3708         estimate D2E/DX2                !
 ! R28   R(15,41)                1.0785         estimate D2E/DX2                !
 ! R29   R(16,17)                1.4961         estimate D2E/DX2                !
 ! R30   R(16,22)                1.4137         estimate D2E/DX2                !
 ! R31   R(17,18)                1.5135         estimate D2E/DX2                !
 ! R32   R(17,42)                1.0913         estimate D2E/DX2                !
 ! R33   R(17,43)                1.0909         estimate D2E/DX2                !
 ! R34   R(18,19)                1.8227         estimate D2E/DX2                !
 ! R35   R(18,44)                1.0804         estimate D2E/DX2                !
 ! R36   R(19,20)                1.4887         estimate D2E/DX2                !
 ! R37   R(19,21)                1.4838         estimate D2E/DX2                !
 ! R38   R(19,22)                1.8168         estimate D2E/DX2                !
 ! R39   R(23,24)                1.5147         estimate D2E/DX2                !
 ! R40   R(23,29)                1.4153         estimate D2E/DX2                !
 ! R41   R(24,25)                1.4914         estimate D2E/DX2                !
 ! R42   R(24,45)                1.093          estimate D2E/DX2                !
 ! R43   R(24,46)                1.0801         estimate D2E/DX2                !
 ! R44   R(25,26)                1.7814         estimate D2E/DX2                !
 ! R45   R(25,47)                1.074          estimate D2E/DX2                !
 ! R46   R(26,27)                1.4856         estimate D2E/DX2                !
 ! R47   R(26,28)                1.4828         estimate D2E/DX2                !
 ! R48   R(26,29)                1.8398         estimate D2E/DX2                !
 ! R49   R(30,31)                1.336          estimate D2E/DX2                !
 ! R50   R(30,34)                1.4548         estimate D2E/DX2                !
 ! R51   R(31,32)                1.6269         estimate D2E/DX2                !
 ! R52   R(32,33)                1.6367         estimate D2E/DX2                !
 ! R53   R(33,34)                1.3487         estimate D2E/DX2                !
 ! A1    A(2,1,5)              101.2422         estimate D2E/DX2                !
 ! A2    A(2,1,35)             113.9026         estimate D2E/DX2                !
 ! A3    A(2,1,36)             107.4461         estimate D2E/DX2                !
 ! A4    A(5,1,35)             111.2209         estimate D2E/DX2                !
 ! A5    A(5,1,36)             112.9428         estimate D2E/DX2                !
 ! A6    A(35,1,36)            109.8563         estimate D2E/DX2                !
 ! A7    A(1,2,3)              109.7045         estimate D2E/DX2                !
 ! A8    A(1,2,37)             122.0623         estimate D2E/DX2                !
 ! A9    A(3,2,37)             127.598          estimate D2E/DX2                !
 ! A10   A(2,3,4)              110.5375         estimate D2E/DX2                !
 ! A11   A(2,3,38)             125.6662         estimate D2E/DX2                !
 ! A12   A(4,3,38)             122.63           estimate D2E/DX2                !
 ! A13   A(3,4,5)              106.7668         estimate D2E/DX2                !
 ! A14   A(3,4,39)             124.9714         estimate D2E/DX2                !
 ! A15   A(5,4,39)             124.1491         estimate D2E/DX2                !
 ! A16   A(1,5,4)              110.9605         estimate D2E/DX2                !
 ! A17   A(1,5,6)              120.8663         estimate D2E/DX2                !
 ! A18   A(4,5,6)              121.477          estimate D2E/DX2                !
 ! A19   A(5,6,7)              117.2485         estimate D2E/DX2                !
 ! A20   A(5,6,34)             116.864          estimate D2E/DX2                !
 ! A21   A(7,6,34)             119.4715         estimate D2E/DX2                !
 ! A22   A(6,7,8)              120.2889         estimate D2E/DX2                !
 ! A23   A(7,8,9)              126.1213         estimate D2E/DX2                !
 ! A24   A(7,8,40)             111.9089         estimate D2E/DX2                !
 ! A25   A(9,8,40)             121.9503         estimate D2E/DX2                !
 ! A26   A(8,9,10)             124.0519         estimate D2E/DX2                !
 ! A27   A(8,9,30)             113.9551         estimate D2E/DX2                !
 ! A28   A(10,9,30)            121.9222         estimate D2E/DX2                !
 ! A29   A(9,10,11)            116.8168         estimate D2E/DX2                !
 ! A30   A(9,10,29)            134.5172         estimate D2E/DX2                !
 ! A31   A(11,10,29)           108.5186         estimate D2E/DX2                !
 ! A32   A(10,11,12)            94.0544         estimate D2E/DX2                !
 ! A33   A(11,12,13)           116.2548         estimate D2E/DX2                !
 ! A34   A(11,12,23)           110.805          estimate D2E/DX2                !
 ! A35   A(13,12,23)           132.9262         estimate D2E/DX2                !
 ! A36   A(12,13,14)           121.5529         estimate D2E/DX2                !
 ! A37   A(12,13,22)           130.3779         estimate D2E/DX2                !
 ! A38   A(14,13,22)           108.0683         estimate D2E/DX2                !
 ! A39   A(13,14,15)            93.1166         estimate D2E/DX2                !
 ! A40   A(14,15,16)           111.4841         estimate D2E/DX2                !
 ! A41   A(14,15,41)           119.1545         estimate D2E/DX2                !
 ! A42   A(16,15,41)           129.3457         estimate D2E/DX2                !
 ! A43   A(15,16,17)           130.8811         estimate D2E/DX2                !
 ! A44   A(15,16,22)           111.362          estimate D2E/DX2                !
 ! A45   A(17,16,22)           117.7561         estimate D2E/DX2                !
 ! A46   A(16,17,18)           109.1269         estimate D2E/DX2                !
 ! A47   A(16,17,42)           108.6797         estimate D2E/DX2                !
 ! A48   A(16,17,43)           109.5086         estimate D2E/DX2                !
 ! A49   A(18,17,42)           108.88           estimate D2E/DX2                !
 ! A50   A(18,17,43)           109.3959         estimate D2E/DX2                !
 ! A51   A(42,17,43)           111.2168         estimate D2E/DX2                !
 ! A52   A(17,18,19)           109.6541         estimate D2E/DX2                !
 ! A53   A(17,18,44)           120.8881         estimate D2E/DX2                !
 ! A54   A(19,18,44)           111.7049         estimate D2E/DX2                !
 ! A55   A(18,19,20)           124.7201         estimate D2E/DX2                !
 ! A56   A(18,19,21)           108.0527         estimate D2E/DX2                !
 ! A57   A(18,19,22)            93.805          estimate D2E/DX2                !
 ! A58   A(20,19,21)           109.2899         estimate D2E/DX2                !
 ! A59   A(20,19,22)           111.79           estimate D2E/DX2                !
 ! A60   A(21,19,22)           107.3657         estimate D2E/DX2                !
 ! A61   A(13,22,16)           115.8319         estimate D2E/DX2                !
 ! A62   A(13,22,19)           135.0431         estimate D2E/DX2                !
 ! A63   A(16,22,19)           109.0666         estimate D2E/DX2                !
 ! A64   A(12,23,24)           135.2181         estimate D2E/DX2                !
 ! A65   A(12,23,29)           109.8929         estimate D2E/DX2                !
 ! A66   A(24,23,29)           114.866          estimate D2E/DX2                !
 ! A67   A(23,24,25)           111.8415         estimate D2E/DX2                !
 ! A68   A(23,24,45)           109.4788         estimate D2E/DX2                !
 ! A69   A(23,24,46)           110.7116         estimate D2E/DX2                !
 ! A70   A(25,24,45)           107.541          estimate D2E/DX2                !
 ! A71   A(25,24,46)           102.5252         estimate D2E/DX2                !
 ! A72   A(45,24,46)           114.5713         estimate D2E/DX2                !
 ! A73   A(24,25,26)           108.4622         estimate D2E/DX2                !
 ! A74   A(24,25,47)           126.2309         estimate D2E/DX2                !
 ! A75   A(26,25,47)           120.2345         estimate D2E/DX2                !
 ! A76   A(25,26,27)           117.083          estimate D2E/DX2                !
 ! A77   A(25,26,28)           108.1056         estimate D2E/DX2                !
 ! A78   A(25,26,29)            95.2242         estimate D2E/DX2                !
 ! A79   A(27,26,28)           118.0575         estimate D2E/DX2                !
 ! A80   A(27,26,29)           110.2452         estimate D2E/DX2                !
 ! A81   A(28,26,29)           105.1168         estimate D2E/DX2                !
 ! A82   A(10,29,23)           116.184          estimate D2E/DX2                !
 ! A83   A(10,29,26)           135.3709         estimate D2E/DX2                !
 ! A84   A(23,29,26)           108.4443         estimate D2E/DX2                !
 ! A85   A(9,30,31)            128.8275         estimate D2E/DX2                !
 ! A86   A(9,30,34)            121.2914         estimate D2E/DX2                !
 ! A87   A(31,30,34)           109.762          estimate D2E/DX2                !
 ! A88   A(30,31,32)           110.7341         estimate D2E/DX2                !
 ! A89   A(31,32,33)            97.5502         estimate D2E/DX2                !
 ! A90   A(32,33,34)           107.6769         estimate D2E/DX2                !
 ! A91   A(6,34,30)            118.3543         estimate D2E/DX2                !
 ! A92   A(6,34,33)            127.8641         estimate D2E/DX2                !
 ! A93   A(30,34,33)           113.6485         estimate D2E/DX2                !
 ! D1    D(5,1,2,3)              5.4764         estimate D2E/DX2                !
 ! D2    D(5,1,2,37)          -166.0321         estimate D2E/DX2                !
 ! D3    D(35,1,2,3)          -113.98           estimate D2E/DX2                !
 ! D4    D(35,1,2,37)           74.5115         estimate D2E/DX2                !
 ! D5    D(36,1,2,3)           124.101          estimate D2E/DX2                !
 ! D6    D(36,1,2,37)          -47.4075         estimate D2E/DX2                !
 ! D7    D(2,1,5,4)             -8.8128         estimate D2E/DX2                !
 ! D8    D(2,1,5,6)            142.8752         estimate D2E/DX2                !
 ! D9    D(35,1,5,4)           112.5424         estimate D2E/DX2                !
 ! D10   D(35,1,5,6)           -95.7696         estimate D2E/DX2                !
 ! D11   D(36,1,5,4)          -123.3995         estimate D2E/DX2                !
 ! D12   D(36,1,5,6)            28.2885         estimate D2E/DX2                !
 ! D13   D(1,2,3,4)             -0.6757         estimate D2E/DX2                !
 ! D14   D(1,2,3,38)          -168.5299         estimate D2E/DX2                !
 ! D15   D(37,2,3,4)           170.2368         estimate D2E/DX2                !
 ! D16   D(37,2,3,38)            2.3826         estimate D2E/DX2                !
 ! D17   D(2,3,4,5)             -5.0712         estimate D2E/DX2                !
 ! D18   D(2,3,4,39)          -162.9205         estimate D2E/DX2                !
 ! D19   D(38,3,4,5)           163.2181         estimate D2E/DX2                !
 ! D20   D(38,3,4,39)            5.3688         estimate D2E/DX2                !
 ! D21   D(3,4,5,1)              8.7414         estimate D2E/DX2                !
 ! D22   D(3,4,5,6)           -142.7467         estimate D2E/DX2                !
 ! D23   D(39,4,5,1)           166.82           estimate D2E/DX2                !
 ! D24   D(39,4,5,6)            15.3319         estimate D2E/DX2                !
 ! D25   D(1,5,6,7)           -137.0455         estimate D2E/DX2                !
 ! D26   D(1,5,6,34)            14.7439         estimate D2E/DX2                !
 ! D27   D(4,5,6,7)             11.6689         estimate D2E/DX2                !
 ! D28   D(4,5,6,34)           163.4583         estimate D2E/DX2                !
 ! D29   D(5,6,7,8)            151.2431         estimate D2E/DX2                !
 ! D30   D(34,6,7,8)             0.2147         estimate D2E/DX2                !
 ! D31   D(5,6,34,30)         -146.3553         estimate D2E/DX2                !
 ! D32   D(5,6,34,33)           29.1609         estimate D2E/DX2                !
 ! D33   D(7,6,34,30)            4.7815         estimate D2E/DX2                !
 ! D34   D(7,6,34,33)         -179.7023         estimate D2E/DX2                !
 ! D35   D(6,7,8,9)             -1.6789         estimate D2E/DX2                !
 ! D36   D(6,7,8,40)           179.9147         estimate D2E/DX2                !
 ! D37   D(7,8,9,10)           174.8912         estimate D2E/DX2                !
 ! D38   D(7,8,9,30)            -2.0941         estimate D2E/DX2                !
 ! D39   D(40,8,9,10)           -6.8513         estimate D2E/DX2                !
 ! D40   D(40,8,9,30)          176.1634         estimate D2E/DX2                !
 ! D41   D(8,9,10,11)           -4.2488         estimate D2E/DX2                !
 ! D42   D(8,9,10,29)         -179.232          estimate D2E/DX2                !
 ! D43   D(30,9,10,11)         172.505          estimate D2E/DX2                !
 ! D44   D(30,9,10,29)          -2.4782         estimate D2E/DX2                !
 ! D45   D(8,9,30,31)         -168.3854         estimate D2E/DX2                !
 ! D46   D(8,9,30,34)            7.2204         estimate D2E/DX2                !
 ! D47   D(10,9,30,31)          14.5574         estimate D2E/DX2                !
 ! D48   D(10,9,30,34)        -169.8368         estimate D2E/DX2                !
 ! D49   D(9,10,11,12)         176.9703         estimate D2E/DX2                !
 ! D50   D(29,10,11,12)         -6.8001         estimate D2E/DX2                !
 ! D51   D(9,10,29,23)        -179.0792         estimate D2E/DX2                !
 ! D52   D(9,10,29,26)           0.5402         estimate D2E/DX2                !
 ! D53   D(11,10,29,23)          5.6419         estimate D2E/DX2                !
 ! D54   D(11,10,29,26)       -174.7387         estimate D2E/DX2                !
 ! D55   D(10,11,12,13)       -174.6855         estimate D2E/DX2                !
 ! D56   D(10,11,12,23)          6.4934         estimate D2E/DX2                !
 ! D57   D(11,12,13,14)         22.0521         estimate D2E/DX2                !
 ! D58   D(11,12,13,22)       -158.3361         estimate D2E/DX2                !
 ! D59   D(23,12,13,14)       -159.4529         estimate D2E/DX2                !
 ! D60   D(23,12,13,22)         20.1588         estimate D2E/DX2                !
 ! D61   D(11,12,23,24)        177.6538         estimate D2E/DX2                !
 ! D62   D(11,12,23,29)         -4.2453         estimate D2E/DX2                !
 ! D63   D(13,12,23,24)         -0.9023         estimate D2E/DX2                !
 ! D64   D(13,12,23,29)        177.1986         estimate D2E/DX2                !
 ! D65   D(12,13,14,15)        178.2242         estimate D2E/DX2                !
 ! D66   D(22,13,14,15)         -1.4647         estimate D2E/DX2                !
 ! D67   D(12,13,22,16)       -176.2097         estimate D2E/DX2                !
 ! D68   D(12,13,22,19)          0.635          estimate D2E/DX2                !
 ! D69   D(14,13,22,16)          3.4423         estimate D2E/DX2                !
 ! D70   D(14,13,22,19)       -179.713          estimate D2E/DX2                !
 ! D71   D(13,14,15,16)         -0.8258         estimate D2E/DX2                !
 ! D72   D(13,14,15,41)       -179.514          estimate D2E/DX2                !
 ! D73   D(14,15,16,17)       -176.8395         estimate D2E/DX2                !
 ! D74   D(14,15,16,22)          2.8382         estimate D2E/DX2                !
 ! D75   D(41,15,16,17)          1.679          estimate D2E/DX2                !
 ! D76   D(41,15,16,22)       -178.6432         estimate D2E/DX2                !
 ! D77   D(15,16,17,18)        176.3034         estimate D2E/DX2                !
 ! D78   D(15,16,17,42)         57.6971         estimate D2E/DX2                !
 ! D79   D(15,16,17,43)        -63.9757         estimate D2E/DX2                !
 ! D80   D(22,16,17,18)         -3.3574         estimate D2E/DX2                !
 ! D81   D(22,16,17,42)       -121.9637         estimate D2E/DX2                !
 ! D82   D(22,16,17,43)        116.3634         estimate D2E/DX2                !
 ! D83   D(15,16,22,13)         -4.1969         estimate D2E/DX2                !
 ! D84   D(15,16,22,19)        178.1614         estimate D2E/DX2                !
 ! D85   D(17,16,22,13)        175.5277         estimate D2E/DX2                !
 ! D86   D(17,16,22,19)         -2.1139         estimate D2E/DX2                !
 ! D87   D(16,17,18,19)          7.1637         estimate D2E/DX2                !
 ! D88   D(16,17,18,44)       -125.0004         estimate D2E/DX2                !
 ! D89   D(42,17,18,19)        125.6448         estimate D2E/DX2                !
 ! D90   D(42,17,18,44)         -6.5193         estimate D2E/DX2                !
 ! D91   D(43,17,18,19)       -112.6268         estimate D2E/DX2                !
 ! D92   D(43,17,18,44)        115.2091         estimate D2E/DX2                !
 ! D93   D(17,18,19,20)        112.556          estimate D2E/DX2                !
 ! D94   D(17,18,19,21)       -117.0095         estimate D2E/DX2                !
 ! D95   D(17,18,19,22)         -7.3582         estimate D2E/DX2                !
 ! D96   D(44,18,19,20)       -110.6512         estimate D2E/DX2                !
 ! D97   D(44,18,19,21)         19.7833         estimate D2E/DX2                !
 ! D98   D(44,18,19,22)        129.4346         estimate D2E/DX2                !
 ! D99   D(18,19,22,13)       -171.5294         estimate D2E/DX2                !
 ! D100  D(18,19,22,16)          5.4659         estimate D2E/DX2                !
 ! D101  D(20,19,22,13)         58.5791         estimate D2E/DX2                !
 ! D102  D(20,19,22,16)       -124.4257         estimate D2E/DX2                !
 ! D103  D(21,19,22,13)        -61.2739         estimate D2E/DX2                !
 ! D104  D(21,19,22,16)        115.7214         estimate D2E/DX2                !
 ! D105  D(12,23,24,25)       -172.8973         estimate D2E/DX2                !
 ! D106  D(12,23,24,45)         68.0131         estimate D2E/DX2                !
 ! D107  D(12,23,24,46)        -59.2358         estimate D2E/DX2                !
 ! D108  D(29,23,24,25)          9.071          estimate D2E/DX2                !
 ! D109  D(29,23,24,45)       -110.0186         estimate D2E/DX2                !
 ! D110  D(29,23,24,46)        122.7324         estimate D2E/DX2                !
 ! D111  D(12,23,29,10)         -0.9528         estimate D2E/DX2                !
 ! D112  D(12,23,29,26)        179.3291         estimate D2E/DX2                !
 ! D113  D(24,23,29,10)        177.5729         estimate D2E/DX2                !
 ! D114  D(24,23,29,26)         -2.1452         estimate D2E/DX2                !
 ! D115  D(23,24,25,26)        -11.4976         estimate D2E/DX2                !
 ! D116  D(23,24,25,47)       -166.0184         estimate D2E/DX2                !
 ! D117  D(45,24,25,26)        108.7313         estimate D2E/DX2                !
 ! D118  D(45,24,25,47)        -45.7895         estimate D2E/DX2                !
 ! D119  D(46,24,25,26)       -130.1404         estimate D2E/DX2                !
 ! D120  D(46,24,25,47)         75.3389         estimate D2E/DX2                !
 ! D121  D(24,25,26,27)        124.8957         estimate D2E/DX2                !
 ! D122  D(24,25,26,28)        -98.8019         estimate D2E/DX2                !
 ! D123  D(24,25,26,29)          8.9811         estimate D2E/DX2                !
 ! D124  D(47,25,26,27)        -78.7849         estimate D2E/DX2                !
 ! D125  D(47,25,26,28)         57.5175         estimate D2E/DX2                !
 ! D126  D(47,25,26,29)        165.3005         estimate D2E/DX2                !
 ! D127  D(25,26,29,10)        176.2778         estimate D2E/DX2                !
 ! D128  D(25,26,29,23)         -4.0823         estimate D2E/DX2                !
 ! D129  D(27,26,29,10)         54.8779         estimate D2E/DX2                !
 ! D130  D(27,26,29,23)       -125.4821         estimate D2E/DX2                !
 ! D131  D(28,26,29,10)        -73.3602         estimate D2E/DX2                !
 ! D132  D(28,26,29,23)        106.2797         estimate D2E/DX2                !
 ! D133  D(9,30,31,32)        -176.3638         estimate D2E/DX2                !
 ! D134  D(34,30,31,32)          7.6255         estimate D2E/DX2                !
 ! D135  D(9,30,34,6)           -8.7994         estimate D2E/DX2                !
 ! D136  D(9,30,34,33)         175.0639         estimate D2E/DX2                !
 ! D137  D(31,30,34,6)         167.5643         estimate D2E/DX2                !
 ! D138  D(31,30,34,33)         -8.5724         estimate D2E/DX2                !
 ! D139  D(30,31,32,33)         -4.2953         estimate D2E/DX2                !
 ! D140  D(31,32,33,34)         -0.7647         estimate D2E/DX2                !
 ! D141  D(32,33,34,6)        -170.3736         estimate D2E/DX2                !
 ! D142  D(32,33,34,30)          5.3192         estimate D2E/DX2                !
 --------------------------------------------------------------------------------
 Trust Radius=3.00D-01 FncErr=1.00D-07 GrdErr=1.00D-06
 Number of steps in this run=    282 maximum allowed number of steps=    282.
 GradGradGradGradGradGradGradGradGradGradGradGradGradGradGradGradGradGrad

                          Input orientation:                          
 ---------------------------------------------------------------------
 Center     Atomic      Atomic             Coordinates (Angstroms)
 Number     Number       Type             X           Y           Z
 ---------------------------------------------------------------------
      1          6           0        0.218350    1.178390   -0.100300
      2          6           0        1.343060    0.214230   -0.185520
      3          6           0        0.862260   -1.040630   -0.226830
      4          6           0       -0.574850   -1.033000   -0.159120
      5          6           0       -0.949670    0.252700    0.038690
      6          6           0       -2.054850    0.587140    0.883540
      7          7           0       -2.561650   -0.404370    1.670170
      8          6           0       -3.150400   -0.105750    2.846000
      9          6           0       -3.283210    1.173250    3.401700
     10          6           0       -4.011620    1.454830    4.608540
     11         16           0       -4.837160    0.156950    5.324880
     12          6           0       -5.369660    1.075020    6.660260
     13          6           0       -6.064830    0.356380    7.686880
     14         16           0       -5.872890   -1.371350    7.885480
     15          6           0       -6.903700   -1.424050    9.238290
     16          6           0       -7.375650   -0.177540    9.558740
     17          6           0       -8.246050    0.279870   10.686300
     18          6           0       -8.390830    1.785080   10.621930
     19         14           0       -7.629990    2.409080    9.087680
     20          1           0       -8.380700    3.019700    7.956460
     21          1           0       -6.500790    3.295910    9.462070
     22          6           0       -6.926220    0.795800    8.637310
     23          6           0       -5.045110    2.413500    6.498640
     24          6           0       -5.282550    3.680930    7.293400
     25          6           0       -4.842890    4.894700    6.546610
     26         14           0       -3.894310    4.373670    5.131600
     27          1           0       -4.340360    4.861840    3.801340
     28          1           0       -2.455990    4.492670    5.471850
     29          6           0       -4.284920    2.585450    5.317300
     30          6           0       -2.689870    2.194680    2.634320
     31          7           0       -2.453600    3.465680    2.971230
     32         16           0       -1.833680    4.289480    1.712660
     33          7           0       -1.712100    3.032340    0.671680
     34          6           0       -2.147060    1.927450    1.311290
     35          1           0        0.114410    1.817710   -0.982690
     36          1           0        0.382310    1.797380    0.791430
     37          1           0        2.366680    0.520630   -0.073190
     38          1           0        1.443720   -1.939410   -0.115380
     39          1           0       -1.186300   -1.886060    0.086150
     40          1           0       -3.507390   -0.999670    3.361530
     41          1           0       -7.081200   -2.368910    9.727120
     42          1           0       -7.766610    0.011220   11.629130
     43          1           0       -9.230020   -0.182850   10.597830
     44          1           0       -8.140740    2.403190   11.472020
     45          1           0       -4.709560    3.640750    8.223300
     46          1           0       -6.340060    3.856980    7.424730
     47          1           0       -4.706280    5.877750    6.957080
 ---------------------------------------------------------------------
                    Distance matrix (angstroms):
                    1          2          3          4          5
     1  C    0.000000
     2  C    1.483860   0.000000
     3  C    2.314018   1.344451   0.000000
     4  C    2.350079   2.287938   1.438724   0.000000
     5  C    1.496827   2.303988   2.241940   1.353752   0.000000
     6  C    2.546558   3.581584   3.520240   2.429484   1.430750
     7  N    3.656240   4.367266   3.965677   2.772878   2.385780
     8  C    4.655983   5.429888   5.139818   4.064972   3.585065
     9  C    4.952267   5.932136   5.937375   4.988205   4.195552
    10  C    6.335790   7.293470   7.304987   6.382105   5.630647
    11  S    7.485593   8.280272   8.046059   7.046809   6.562435
    12  C    8.771643   9.626332   9.526007   8.598715   8.003606
    13  C   10.039633  10.810723  10.609572   9.676258   9.201653
    14  S   10.362290  10.941894  10.548990   9.638428   9.404666
    15  C   12.029362  12.629379  12.249312  11.336603  11.085784
    16  C   12.361409  13.081284  12.820510  11.891993  11.493897
    17  C   13.740602  14.496614  14.275904  13.348935  12.907730
    18  C   13.764166  14.629325  14.536159  13.611104  13.027817
    19  Si  12.146193  13.089126  13.068240  12.129560  11.452549
    20  H   11.926670  12.988996  12.995569  11.967385  11.205694
    21  H   11.877275  12.810103  12.918780  12.100559  11.352363
    22  C   11.293232  12.106261  11.941770  11.002799  10.485722
    23  C    8.530857   9.503868   9.594789   8.728537   7.948122
    24  C    9.549314  10.575961  10.798411   9.996181   9.119069
    25  C    9.143770  10.271044  10.660974   9.915675   8.891476
    26  Si   7.382179   8.544165   8.980667   8.260909   7.182690
    27  H    7.040770   8.354436   8.839262   8.038249   6.848247
    28  H    7.013230   8.046345   8.608318   8.110459   7.054472
    29  C    7.183986   8.220576   8.389237   7.539826   6.665534
    30  C    4.119313   5.304546   5.592051   4.763878   3.679250
    31  N    4.669615   5.911990   6.444327   5.793696   4.602699
    32  S    4.144458   5.504764   6.280110   5.780744   4.458614
    33  N    2.785628   4.243882   4.901401   4.302390   2.950995
    34  C    2.854618   4.166113   4.497924   3.660357   2.420339
    35  H    1.094598   2.171683   3.049707   3.046292   2.150521
    36  H    1.097822   2.093761   3.053114   3.135403   2.174126
    37  H    2.246932   1.074382   2.173573   3.327724   3.329036
    38  H    3.349990   2.157132   1.076254   2.213169   3.249215
    39  H    3.376190   3.298891   2.238148   1.077840   2.152334
    40  H    5.532572   6.130415   5.654365   4.582126   4.376257
    41  H   12.745389  13.262775  12.804062  11.910289  11.761555
    42  H   14.237324  14.920230  14.701278  13.848272  13.448691
    43  H   14.337875  15.107228  14.824411  13.832812  13.425697
    44  H   14.328053  15.186581  15.158397  14.294527  13.676883
    45  H    9.981474  10.912539  11.151914  10.450107   9.623071
    46  H   10.335070  11.411217  11.593376  10.708143   9.828567
    47  H    9.805232  10.940142  11.422836  10.745580   9.675610
                    6          7          8          9         10
     6  C    0.000000
     7  N    1.363351   0.000000
     8  C    2.351930   1.348472   0.000000
     9  C    2.862433   2.451067   1.400815   0.000000
    10  C    4.296215   3.767367   2.506722   1.437474   0.000000
    11  S    5.258499   4.341651   3.009820   2.673247   1.696806
    12  C    6.678060   5.913925   4.568141   3.870547   2.489595
    13  C    7.900546   7.003700   5.669355   5.173727   3.859850
    14  S    8.212203   7.108406   5.866008   5.769377   4.710622
    15  C    9.867020   8.784622   7.529047   7.343003   6.171439
    16  C   10.205623   9.244219   7.932135   7.515440   6.203693
    17  C   11.598253  10.680411   9.358667   8.859645   7.500006
    18  C   11.679724  10.904450   9.565690   8.865317   7.446301
    19  Si  10.085116   9.413980   8.083914   7.263067   5.836599
    20  H    9.795914   9.225131   7.952438   7.080934   5.722434
    21  H   10.034690   9.482753   8.158970   7.182381   5.756935
    22  C    9.159407   8.308485   6.972007   6.389492   5.015995
    23  C    6.618655   6.117360   4.824762   3.772738   2.357886
    24  C    7.815106   7.464160   6.218068   5.042931   3.712042
    25  C    7.641898   7.554063   6.446979   5.115882   4.034827
    26  Si   5.980588   6.048731   5.083559   3.688995   2.967656
    27  H    5.657753   5.953038   5.196694   3.857846   3.516726
    28  H    6.038764   6.200398   5.340670   3.998545   3.520477
    29  C    5.350204   5.020980   3.825835   2.582103   1.362107
    30  C    2.460217   2.775083   2.355605   1.408632   2.488362
    31  N    3.578190   4.084326   3.640924   2.475640   3.025182
    32  S    3.800484   4.750155   4.726125   3.829476   4.600520
    33  N    2.478178   3.678273   4.079704   3.657542   4.824437
    34  C    1.409930   2.395426   2.737869   2.495890   3.817304
    35  H    3.114933   4.374540   5.386794   5.584087   6.958280
    36  H    2.722667   3.779787   4.508126   4.543026   5.830462
    37  H    4.524343   5.308801   6.273133   6.664985   7.967059
    38  H    4.429592   4.646238   5.765242   6.663510   7.974774
    39  H    2.739877   2.568290   3.826743   4.974865   6.292534
    40  H    3.281505   2.027191   1.091928   2.184823   2.798902
    41  H   10.592985   9.444585   8.241535   8.184288   7.088242
    42  H   12.182922  11.244786   9.923026   9.441493   8.091517
    43  H   12.101379  11.145373   9.851832   9.433337   8.110813
    44  H   12.347146  11.622603  10.276502   9.499390   8.065753
    45  H    8.381175   7.995000   6.736661   5.600969   4.281572
    46  H    8.475969   8.096323   6.844116   5.721146   4.372972
    47  H    8.479889   8.486217   7.424555   6.066150   5.055731
                   11         12         13         14         15
    11  S    0.000000
    12  C    1.705769   0.000000
    13  C    2.669455   1.433057   0.000000
    14  S    3.156756   2.781929   1.749667   0.000000
    15  C    4.699460   3.904468   2.506094   1.701600   0.000000
    16  C    4.947867   3.740867   2.346738   2.546226   1.370844
    17  C    6.354563   5.011475   3.709460   4.025296   2.608061
    18  C    6.583169   5.032542   4.008239   4.877626   3.797964
    19  Si   5.199101   3.575077   2.936928   4.338702   3.904237
    20  H    5.260915   3.811598   3.539661   5.057220   4.855052
    21  H    5.453171   3.749926   3.461531   4.966207   4.742408
    22  C    3.967933   2.531713   1.355876   2.524142   2.299874
    23  C    2.552053   1.386716   2.585244   4.115050   5.068218
    24  C    4.061019   2.683136   3.437939   5.120995   5.698381
    25  C    4.892743   3.857507   4.836290   6.489750   7.170682
    26  Si   4.325165   3.923589   5.232517   6.671123   7.715885
    27  H    4.970309   4.855192   6.194384   7.607990   8.697330
    28  H    4.948741   4.645656   5.919373   7.203301   8.305165
    29  C    2.490510   2.293818   3.708334   4.977295   6.189367
    30  C    4.000289   4.964182   6.348076   7.100906   8.629252
    31  N    4.708367   5.275188   6.704184   7.696639   9.109824
    32  S    6.256743   6.878565   8.310428   9.298598  10.723089
    33  N    6.299693   7.285049   8.678713   9.420381  10.963527
    34  C    5.145893   6.302640   7.646263   8.245233   9.833387
    35  H    8.189115   9.436170  10.746159  11.165227  12.815276
    36  H    7.105353   8.249250   9.549310   9.974664  11.610900
    37  H    9.009258  10.271205  11.460193  11.610794  13.282522
    38  H    8.569750  10.070662  11.069067  10.856760  12.547357
    39  H    6.704249   8.335911   9.305895   9.113649  10.801101
    40  H    2.638333   4.319029   5.204616   5.118580   6.800833
    41  H    5.549360   4.918908   3.552857   2.418011   1.078527
    42  H    6.953163   5.618426   4.307729   4.417306   2.919029
    43  H    6.871440   5.655888   4.333916   4.476572   2.966596
    44  H    7.331205   5.709287   4.777669   5.679222   4.600824
    45  H    4.533650   3.076003   3.593270   5.156414   5.612188
    46  H    4.512017   3.043911   3.521175   5.269343   5.612127
    47  H    5.950526   4.857406   5.732695   7.400835   7.959200
                   16         17         18         19         20
    16  C    0.000000
    17  C    1.496065   0.000000
    18  C    2.452109   1.513526   0.000000
    19  Si   2.641437   2.732883   1.822684   0.000000
    20  H    3.714804   3.869990   2.937536   1.488651   0.000000
    21  H    3.583236   3.693395   2.683306   1.483822   2.424297
    22  C    1.413652   2.491284   2.657532   1.816810   2.743137
    23  C    4.637792   5.686378   5.346987   3.658518   3.690376
    24  C    4.939699   5.644583   4.933028   3.216756   3.236573
    25  C    6.419924   7.072142   6.234248   4.516998   4.244927
    26  Si   7.241050   8.157912   7.554020   5.784936   5.471815
    27  H    8.231403   9.146121   8.508420   6.692017   6.081353
    28  H    7.919380   8.857932   8.311239   6.647244   6.591291
    29  C    5.930981   7.059208   6.755604   5.043448   4.891743
    30  C    8.690889   9.968551   9.821946   8.129982   7.835265
    31  N    8.994160  10.159930   9.828954   8.082226   7.757701
    32  S   10.593803  11.735488  11.342104   9.566819   9.135691
    33  N   11.016304  12.270339  12.048592  10.307227   9.876153
    34  C    9.989473  11.304999  11.211287   9.527158   9.176577
    35  H   13.084486  14.437021  14.387751  12.717618  12.390322
    36  H   11.872320  13.215895  13.175996  11.549844  11.385169
    37  H   13.717671  15.114716  15.221973  13.690186  13.646494
    38  H   13.208863  14.679685  15.029306  13.635905  13.647952
    39  H   11.443647  12.918766  13.281008  11.874212  11.737447
    40  H    7.351513   8.817277   9.182387   7.836083   7.811393
    41  H    2.217466   3.048432   4.446510   4.851726   5.819025
    42  H    2.115418   1.091313   2.133233   3.496765   4.787125
    43  H    2.125659   1.090932   2.139525   3.399816   4.237276
    44  H    3.302449   2.266481   1.080397   2.438438   3.577265
    45  H    4.844665   5.465221   4.769558   3.285282   3.732851
    46  H    4.680149   5.202533   4.326721   2.554552   2.268917
    47  H    7.110605   7.600876   6.614906   5.011907   4.761152
                   21         22         23         24         25
    21  H    0.000000
    22  C    2.666790   0.000000
    23  C    3.417538   3.275582   0.000000
    24  C    2.517038   3.582139   1.514728   0.000000
    25  C    3.715463   5.050967   2.489889   1.491387   0.000000
    26  Si   5.168005   5.855223   2.652434   2.660917   1.781440
    27  H    6.258071   6.826856   3.710319   3.804833   2.791079
    28  H    5.806419   6.608324   3.475743   3.459250   2.648401
    29  C    4.753310   4.604539   1.415281   2.469881   2.674915
    30  C    7.896454   7.479266   4.530784   5.535156   5.218392
    31  N    7.651116   7.696561   4.501736   5.170149   4.531462
    32  S    9.100684   9.278499   6.061204   6.588604   5.726143
    33  N   10.013590   9.779592   6.741319   7.550891   6.912672
    34  C    9.341459   8.819953   5.961840   6.977939   6.593986
    35  H   12.451464  11.964914   9.107465  10.054473   9.525390
    36  H   11.171511  10.769197   7.899920   8.826891   8.367688
    37  H   13.313729  12.739958  10.084966  11.079931  10.720641
    38  H   13.500050  12.415589  10.237089  11.476975  11.428414
    39  H   11.958449  10.642434   8.631145   9.985745  10.054198
    40  H    8.039219   6.538040   4.884237   6.365439   6.831683
    41  H    5.700641   3.350686   6.118839   6.764518   8.239278
    42  H    4.133720   3.205122   6.284858   6.199668   7.630762
    43  H    4.565131   3.179448   6.407641   6.436659   7.838419
    44  H    2.743407   3.477692   5.858117   5.221373   6.429860
    45  H    2.204988   3.630252   2.143173   1.092999   2.097965
    46  H    2.119289   3.344362   2.148993   1.080078   2.022245
    47  H    4.020092   5.794611   3.510841   2.295913   1.074028
                   26         27         28         29         30
    26  Si   0.000000
    27  H    1.485551   0.000000
    28  H    1.482800   2.545141   0.000000
    29  C    1.839780   2.735536   2.646953   0.000000
    30  C    3.526341   3.346610   3.658830   3.145674   0.000000
    31  N    2.750871   2.489620   2.703297   3.103640   1.335954
    32  S    3.992798   3.312646   3.815765   4.680355   2.443503
    33  N    5.143160   4.477677   5.072235   5.329249   2.347267
    34  C    4.861239   4.429623   4.897556   4.588194   1.454807
    35  H    7.745147   7.211009   7.444693   7.722267   4.592260
    36  H    6.615423   6.383893   6.101382   6.548862   3.604495
    37  H    9.007539   8.879328   8.353605   8.807079   5.975094
    38  H    9.791851   9.749527   9.369980   9.099763   6.460504
    39  H    8.483755   8.323754   8.444292   7.547236   5.040469
    40  H    5.670594   5.936714   5.977014   4.157244   3.376543
    41  H    8.759992   9.742218   9.304900   7.198012   9.508835
    42  H    8.731757   9.825579   9.284297   7.654281  10.556865
    43  H    8.894456   9.774965   9.696579   7.746063  10.575618
    44  H    7.881363   8.906581   8.525512   7.265063  10.385586
    45  H    3.280307   4.602293   3.657160   3.120707   6.116123
    46  H    3.392213   4.258814   4.393614   3.206501   6.247812
    47  H    2.500786   3.335366   3.031198   3.702116   6.026373
                   31         32         33         34         35
    31  N    0.000000
    32  S    1.626944   0.000000
    33  N    2.454697   1.636711   0.000000
    34  C    2.283751   2.416297   1.348730   0.000000
    35  H    4.994393   4.143623   2.747436   3.223140   0.000000
    36  H    3.946788   3.459745   2.434342   2.585514   1.794348
    37  H    6.416924   5.919165   4.847676   4.926436   2.753603
    38  H    7.343791   7.272012   5.941125   5.466415   4.078632
    39  H    6.210544   6.418873   4.980961   4.119088   4.068437
    40  H    4.604580   5.787502   5.168700   3.823874   6.318806
    41  H   10.054808  11.666284  11.832233  10.659767  13.564830
    42  H   10.729427  12.322319  12.878275  11.904163  14.981051
    43  H   10.834974  12.395718  12.860211  11.868509  15.014295
    44  H   10.282795  11.772094  12.584538  11.806395  14.953598
    45  H    5.718762   7.147025   8.147508   7.568202  10.551986
    46  H    5.923795   7.288502   8.228106   7.660188  10.793679
    47  H    5.174906   6.186952   7.521152   7.350471  10.137205
                   36         37         38         39         40
    36  H    0.000000
    37  H    2.513042   0.000000
    38  H    3.989047   2.627819   0.000000
    39  H    4.065180   4.294323   2.638269   0.000000
    40  H    5.436788   6.972325   6.122541   4.111114   0.000000
    41  H   12.365618  13.916104  13.028182  11.310672   7.427494
    42  H   13.676659  15.488297  15.052198  13.421644   9.355002
    43  H   13.873849  15.774949  15.224556  13.345328   9.261735
    44  H   13.677880  15.723924  15.652089  14.014276   9.941199
    45  H    9.195534  11.341960  11.770073  10.448550   6.827556
    46  H    9.666068  11.964838  12.289777  10.648874   6.936906
    47  H    8.975434  11.320344  12.204515  10.948821   7.852657
                   41         42         43         44         45
    41  H    0.000000
    42  H    3.122891   0.000000
    43  H    3.186600   1.800781   0.000000
    44  H    5.190399   2.426145   2.939106   0.000000
    45  H    6.633413   5.841123   6.379096   4.884540   0.000000
    46  H    6.679221   5.873831   5.894121   4.662243   1.828387
    47  H    9.017803   8.099990   8.393459   6.652275   2.570504
                   46         47
    46  H    0.000000
    47  H    2.640349   0.000000
 Stoichiometry    C22H17N3S3Si2(3)
 Framework group  C1[X(C22H17N3S3Si2)]
 Deg. of freedom   135
 Full point group                 C1      NOp   1
 Largest Abelian subgroup         C1      NOp   1
 Largest concise Abelian subgroup C1      NOp   1
                         Standard orientation:                         
 ---------------------------------------------------------------------
 Center     Atomic      Atomic             Coordinates (Angstroms)
 Number     Number       Type             X           Y           Z
 ---------------------------------------------------------------------
      1          6           0        6.499218   -0.405360    0.442724
      2          6           0        7.217788   -1.390033    1.288842
      3          6           0        6.935837   -2.636843    0.872289
      4          6           0        6.023445   -2.603295   -0.239621
      5          6           0        5.669611   -1.308496   -0.415523
      6          6           0        4.339643   -0.942447   -0.795311
      7          7           0        3.384210   -1.913241   -0.736731
      8          6           0        2.096500   -1.587046   -0.504835
      9          6           0        1.600106   -0.297831   -0.272884
     10          6           0        0.203746    0.014210   -0.134539
     11         16           0       -0.892508   -1.258391   -0.375092
     12          6           0       -2.260760   -0.311515    0.000356
     13          6           0       -3.515035   -1.002683    0.052642
     14         16           0       -3.598087   -2.730344    0.316504
     15          6           0       -5.299521   -2.745087    0.297883
     16          6           0       -5.810564   -1.485965    0.117167
     17          6           0       -7.224247   -0.996854    0.095172
     18          6           0       -7.225603    0.509519   -0.051798
     19         14           0       -5.527214    1.097402   -0.355186
     20          1           0       -5.054990    1.704094   -1.629944
     21          1           0       -5.133267    1.969978    0.778456
     22          6           0       -4.781720   -0.534342   -0.068045
     23          6           0       -1.907561    1.018592    0.170794
     24          6           0       -2.658370    2.301600    0.461612
     25          6           0       -1.770030    3.496352    0.374115
     26         14           0       -0.080605    2.938017    0.286744
     27          1           0        0.730428    3.414056   -0.863246
     28          1           0        0.508239    3.037097    1.643999
     29          6           0       -0.502572    1.159790    0.075453
     30          6           0        2.592455    0.701660   -0.250417
     31          7           0        2.491725    1.973231    0.146738
     32         16           0        3.889369    2.767396   -0.103940
     33          7           0        4.768624    1.493030   -0.634718
     34          6           0        3.971448    0.405459   -0.606938
     35          1           0        7.158843    0.222503   -0.164589
     36          1           0        5.895955    0.223857    1.110087
     37          1           0        7.745873   -1.099793    2.178327
     38          1           0        7.173737   -3.543817    1.400612
     39          1           0        5.442638   -3.441893   -0.587697
     40          1           0        1.450068   -2.466895   -0.487602
     41          1           0       -5.818485   -3.679371    0.442839
     42          1           0       -7.699824   -1.259757    1.041572
     43          1           0       -7.751261   -1.443707   -0.749050
     44          1           0       -7.744061    1.135745    0.659750
     45          1           0       -3.062625    2.265294    1.476455
     46          1           0       -3.391316    2.497887   -0.307043
     47          1           0       -1.995666    4.482867    0.733852
 ---------------------------------------------------------------------
 Rotational constants (GHZ):      0.2794355      0.0578815      0.0489244
 Standard basis: 6-31++G(d,p) (6D, 7F)
 There are   692 symmetry adapted basis functions of A   symmetry.
 Integral buffers will be    131072 words long.
 Raffenetti 2 integral format.
 Two-electron integral symmetry is turned on.
   692 basis functions,  1216 primitive gaussians,   692 cartesian basis functions
   124 alpha electrons      122 beta electrons
       nuclear repulsion energy      3525.3502933428 Hartrees.
 NAtoms=   47 NActive=   47 NUniq=   47 SFac= 1.00D+00 NAtFMM=   60 NAOKFM=F Big=F
 One-electron integrals computed using PRISM.
 NBasis=   692 RedAO= T  NBF=   692
 NBsUse=   684 1.00D-06 NBFU=   684
 Harris functional with IExCor=  402 diagonalized for initial guess.
 ExpMin= 3.31D-02 ExpMax= 2.19D+04 ExpMxC= 3.30D+03 IAcc=3 IRadAn=         5 AccDes= 0.00D+00
 HarFok:  IExCor=  402 AccDes= 0.00D+00 IRadAn=         5 IDoV= 1
 ScaDFX=  1.000000  1.000000  1.000000  1.000000
 FoFCou: FMM=F IPFlag=           0 FMFlag=      100000 FMFlg1=           0
         NFxFlg=           0 DoJE=T BraDBF=F KetDBF=T FulRan=T
         Omega=  0.000000  0.000000  1.000000  0.000000  0.000000 ICntrl=     500 IOpCl=  0
         NMat0=    1 NMatS0=    1 NMatT0=    0 NMatD0=    1 NMtDS0=    0 NMtDT0=    0
         I1Cent=           4 NGrid=           0.
 Petite list used in FoFCou.
 Initial guess orbital symmetries:
 Alpha Orbitals:
       Occupied  (A) (A) (A) (A) (A) (A) (A) (A) (A) (A) (A) (A)
                 (A) (A) (A) (A) (A) (A) (A) (A) (A) (A) (A) (A)
                 (A) (A) (A) (A) (A) (A) (A) (A) (A) (A) (A) (A)
                 (A) (A) (A) (A) (A) (A) (A) (A) (A) (A) (A) (A)
                 (A) (A) (A) (A) (A) (A) (A) (A) (A) (A) (A) (A)
                 (A) (A) (A) (A) (A) (A) (A) (A) (A) (A) (A) (A)
                 (A) (A) (A) (A) (A) (A) (A) (A) (A) (A) (A) (A)
                 (A) (A) (A) (A) (A) (A) (A) (A) (A) (A) (A) (A)
                 (A) (A) (A) (A) (A) (A) (A) (A) (A) (A) (A) (A)
                 (A) (A) (A) (A) (A) (A) (A) (A) (A) (A) (A) (A)
                 (A) (A) (A) (A)
       Virtual   (A) (A) (A) (A) (A) (A) (A) (A) (A) (A) (A) (A)
                 (A) (A) (A) (A) (A) (A) (A) (A) (A) (A) (A) (A)
                 (A) (A) (A) (A) (A) (A) (A) (A) (A) (A) (A) (A)
                 (A) (A) (A) (A) (A) (A) (A) (A) (A) (A) (A) (A)
                 (A) (A) (A) (A) (A) (A) (A) (A) (A) (A) (A) (A)
                 (A) (A) (A) (A) (A) (A) (A) (A) (A) (A) (A) (A)
                 (A) (A) (A) (A) (A) (A) (A) (A) (A) (A) (A) (A)
                 (A) (A) (A) (A) (A) (A) (A) (A) (A) (A) (A) (A)
                 (A) (A) (A) (A) (A) (A) (A) (A) (A) (A) (A) (A)
                 (A) (A) (A) (A) (A) (A) (A) (A) (A) (A) (A) (A)
                 (A) (A) (A) (A) (A) (A) (A) (A) (A) (A) (A) (A)
                 (A) (A) (A) (A) (A) (A) (A) (A) (A) (A) (A) (A)
                 (A) (A) (A) (A) (A) (A) (A) (A) (A) (A) (A) (A)
                 (A) (A) (A) (A) (A) (A) (A) (A) (A) (A) (A) (A)
                 (A) (A) (A) (A) (A) (A) (A) (A) (A) (A) (A) (A)
                 (A) (A) (A) (A) (A) (A) (A) (A) (A) (A) (A) (A)
                 (A) (A) (A) (A) (A) (A) (A) (A) (A) (A) (A) (A)
                 (A) (A) (A) (A) (A) (A) (A) (A) (A) (A) (A) (A)
                 (A) (A) (A) (A) (A) (A) (A) (A) (A) (A) (A) (A)
                 (A) (A) (A) (A) (A) (A) (A) (A) (A) (A) (A) (A)
                 (A) (A) (A) (A) (A) (A) (A) (A) (A) (A) (A) (A)
                 (A) (A) (A) (A) (A) (A) (A) (A) (A) (A) (A) (A)
                 (A) (A) (A) (A) (A) (A) (A) (A) (A) (A) (A) (A)
                 (A) (A) (A) (A) (A) (A) (A) (A) (A) (A) (A) (A)
                 (A) (A) (A) (A) (A) (A) (A) (A) (A) (A) (A) (A)
                 (A) (A) (A) (A) (A) (A) (A) (A) (A) (A) (A) (A)
                 (A) (A) (A) (A) (A) (A) (A) (A) (A) (A) (A) (A)
                 (A) (A) (A) (A) (A) (A) (A) (A) (A) (A) (A) (A)
                 (A) (A) (A) (A) (A) (A) (A) (A) (A) (A) (A) (A)
                 (A) (A) (A) (A) (A) (A) (A) (A) (A) (A) (A) (A)
                 (A) (A) (A) (A) (A) (A) (A) (A) (A) (A) (A) (A)
                 (A) (A) (A) (A) (A) (A) (A) (A) (A) (A) (A) (A)
                 (A) (A) (A) (A) (A) (A) (A) (A) (A) (A) (A) (A)
                 (A) (A) (A) (A) (A) (A) (A) (A) (A) (A) (A) (A)
                 (A) (A) (A) (A) (A) (A) (A) (A) (A) (A) (A) (A)
                 (A) (A) (A) (A) (A) (A) (A) (A) (A) (A) (A) (A)
                 (A) (A) (A) (A) (A) (A) (A) (A) (A) (A) (A) (A)
                 (A) (A) (A) (A) (A) (A) (A) (A) (A) (A) (A) (A)
                 (A) (A) (A) (A) (A) (A) (A) (A) (A) (A) (A) (A)
                 (A) (A) (A) (A) (A) (A) (A) (A) (A) (A) (A) (A)
                 (A) (A) (A) (A) (A) (A) (A) (A) (A) (A) (A) (A)
                 (A) (A) (A) (A) (A) (A) (A) (A) (A) (A) (A) (A)
                 (A) (A) (A) (A) (A) (A) (A) (A) (A) (A) (A) (A)
                 (A) (A) (A) (A) (A) (A) (A) (A) (A) (A) (A) (A)
                 (A) (A) (A) (A) (A) (A) (A) (A) (A) (A) (A) (A)
                 (A) (A) (A) (A) (A) (A) (A) (A) (A) (A) (A) (A)
                 (A) (A) (A) (A) (A) (A) (A) (A)
 Beta  Orbitals:
       Occupied  (A) (A) (A) (A) (A) (A) (A) (A) (A) (A) (A) (A)
                 (A) (A) (A) (A) (A) (A) (A) (A) (A) (A) (A) (A)
                 (A) (A) (A) (A) (A) (A) (A) (A) (A) (A) (A) (A)
                 (A) (A) (A) (A) (A) (A) (A) (A) (A) (A) (A) (A)
                 (A) (A) (A) (A) (A) (A) (A) (A) (A) (A) (A) (A)
                 (A) (A) (A) (A) (A) (A) (A) (A) (A) (A) (A) (A)
                 (A) (A) (A) (A) (A) (A) (A) (A) (A) (A) (A) (A)
                 (A) (A) (A) (A) (A) (A) (A) (A) (A) (A) (A) (A)
                 (A) (A) (A) (A) (A) (A) (A) (A) (A) (A) (A) (A)
                 (A) (A) (A) (A) (A) (A) (A) (A) (A) (A) (A) (A)
                 (A) (A)
       Virtual   (A) (A) (A) (A) (A) (A) (A) (A) (A) (A) (A) (A)
                 (A) (A) (A) (A) (A) (A) (A) (A) (A) (A) (A) (A)
                 (A) (A) (A) (A) (A) (A) (A) (A) (A) (A) (A) (A)
                 (A) (A) (A) (A) (A) (A) (A) (A) (A) (A) (A) (A)
                 (A) (A) (A) (A) (A) (A) (A) (A) (A) (A) (A) (A)
                 (A) (A) (A) (A) (A) (A) (A) (A) (A) (A) (A) (A)
                 (A) (A) (A) (A) (A) (A) (A) (A) (A) (A) (A) (A)
                 (A) (A) (A) (A) (A) (A) (A) (A) (A) (A) (A) (A)
                 (A) (A) (A) (A) (A) (A) (A) (A) (A) (A) (A) (A)
                 (A) (A) (A) (A) (A) (A) (A) (A) (A) (A) (A) (A)
                 (A) (A) (A) (A) (A) (A) (A) (A) (A) (A) (A) (A)
                 (A) (A) (A) (A) (A) (A) (A) (A) (A) (A) (A) (A)
                 (A) (A) (A) (A) (A) (A) (A) (A) (A) (A) (A) (A)
                 (A) (A) (A) (A) (A) (A) (A) (A) (A) (A) (A) (A)
                 (A) (A) (A) (A) (A) (A) (A) (A) (A) (A) (A) (A)
                 (A) (A) (A) (A) (A) (A) (A) (A) (A) (A) (A) (A)
                 (A) (A) (A) (A) (A) (A) (A) (A) (A) (A) (A) (A)
                 (A) (A) (A) (A) (A) (A) (A) (A) (A) (A) (A) (A)
                 (A) (A) (A) (A) (A) (A) (A) (A) (A) (A) (A) (A)
                 (A) (A) (A) (A) (A) (A) (A) (A) (A) (A) (A) (A)
                 (A) (A) (A) (A) (A) (A) (A) (A) (A) (A) (A) (A)
                 (A) (A) (A) (A) (A) (A) (A) (A) (A) (A) (A) (A)
                 (A) (A) (A) (A) (A) (A) (A) (A) (A) (A) (A) (A)
                 (A) (A) (A) (A) (A) (A) (A) (A) (A) (A) (A) (A)
                 (A) (A) (A) (A) (A) (A) (A) (A) (A) (A) (A) (A)
                 (A) (A) (A) (A) (A) (A) (A) (A) (A) (A) (A) (A)
                 (A) (A) (A) (A) (A) (A) (A) (A) (A) (A) (A) (A)
                 (A) (A) (A) (A) (A) (A) (A) (A) (A) (A) (A) (A)
                 (A) (A) (A) (A) (A) (A) (A) (A) (A) (A) (A) (A)
                 (A) (A) (A) (A) (A) (A) (A) (A) (A) (A) (A) (A)
                 (A) (A) (A) (A) (A) (A) (A) (A) (A) (A) (A) (A)
                 (A) (A) (A) (A) (A) (A) (A) (A) (A) (A) (A) (A)
                 (A) (A) (A) (A) (A) (A) (A) (A) (A) (A) (A) (A)
                 (A) (A) (A) (A) (A) (A) (A) (A) (A) (A) (A) (A)
                 (A) (A) (A) (A) (A) (A) (A) (A) (A) (A) (A) (A)
                 (A) (A) (A) (A) (A) (A) (A) (A) (A) (A) (A) (A)
                 (A) (A) (A) (A) (A) (A) (A) (A) (A) (A) (A) (A)
                 (A) (A) (A) (A) (A) (A) (A) (A) (A) (A) (A) (A)
                 (A) (A) (A) (A) (A) (A) (A) (A) (A) (A) (A) (A)
                 (A) (A) (A) (A) (A) (A) (A) (A) (A) (A) (A) (A)
                 (A) (A) (A) (A) (A) (A) (A) (A) (A) (A) (A) (A)
                 (A) (A) (A) (A) (A) (A) (A) (A) (A) (A) (A) (A)
                 (A) (A) (A) (A) (A) (A) (A) (A) (A) (A) (A) (A)
                 (A) (A) (A) (A) (A) (A) (A) (A) (A) (A) (A) (A)
                 (A) (A) (A) (A) (A) (A) (A) (A) (A) (A) (A) (A)
                 (A) (A) (A) (A) (A) (A) (A) (A) (A) (A) (A) (A)
                 (A) (A) (A) (A) (A) (A) (A) (A) (A) (A)
 The electronic state of the initial guess is 3-A.
 Initial guess <Sx>= 0.0000 <Sy>= 0.0000 <Sz>= 1.0000 <S**2>= 2.0000 S= 1.0000
 Requested convergence on RMS density matrix=1.00D-08 within 128 cycles.
 Requested convergence on MAX density matrix=1.00D-06.
 Requested convergence on             energy=1.00D-06.
 No special actions if energy rises.
 EnCoef did     1 forward-backward iterations
 EnCoef did     3 forward-backward iterations
 EnCoef did     9 forward-backward iterations
 EnCoef did     5 forward-backward iterations
 EnCoef did    14 forward-backward iterations
 Restarting incremental Fock formation.
 SCF Done:  E(UB3LYP) =  -2786.17825397     A.U. after   33 cycles
             Convg  =    0.4352D-08             -V/T =  2.0051
 <Sx>= 0.0000 <Sy>= 0.0000 <Sz>= 1.0000 <S**2>= 2.0077 S= 1.0026
 <L.S>=  0.00000000000    
 Annihilation of the first spin contaminant:
 S**2 before annihilation     2.0077,   after     2.0000

 **********************************************************************

            Population analysis using the SCF density.

 **********************************************************************

 Orbital symmetries:
 Alpha Orbitals:
       Occupied  (A) (A) (A) (A) (A) (A) (A) (A) (A) (A) (A) (A)
                 (A) (A) (A) (A) (A) (A) (A) (A) (A) (A) (A) (A)
                 (A) (A) (A) (A) (A) (A) (A) (A) (A) (A) (A) (A)
                 (A) (A) (A) (A) (A) (A) (A) (A) (A) (A) (A) (A)
                 (A) (A) (A) (A) (A) (A) (A) (A) (A) (A) (A) (A)
                 (A) (A) (A) (A) (A) (A) (A) (A) (A) (A) (A) (A)
                 (A) (A) (A) (A) (A) (A) (A) (A) (A) (A) (A) (A)
                 (A) (A) (A) (A) (A) (A) (A) (A) (A) (A) (A) (A)
                 (A) (A) (A) (A) (A) (A) (A) (A) (A) (A) (A) (A)
                 (A) (A) (A) (A) (A) (A) (A) (A) (A) (A) (A) (A)
                 (A) (A) (A) (A)
       Virtual   (A) (A) (A) (A) (A) (A) (A) (A) (A) (A) (A) (A)
                 (A) (A) (A) (A) (A) (A) (A) (A) (A) (A) (A) (A)
                 (A) (A) (A) (A) (A) (A) (A) (A) (A) (A) (A) (A)
                 (A) (A) (A) (A) (A) (A) (A) (A) (A) (A) (A) (A)
                 (A) (A) (A) (A) (A) (A) (A) (A) (A) (A) (A) (A)
                 (A) (A) (A) (A) (A) (A) (A) (A) (A) (A) (A) (A)
                 (A) (A) (A) (A) (A) (A) (A) (A) (A) (A) (A) (A)
                 (A) (A) (A) (A) (A) (A) (A) (A) (A) (A) (A) (A)
                 (A) (A) (A) (A) (A) (A) (A) (A) (A) (A) (A) (A)
                 (A) (A) (A) (A) (A) (A) (A) (A) (A) (A) (A) (A)
                 (A) (A) (A) (A) (A) (A) (A) (A) (A) (A) (A) (A)
                 (A) (A) (A) (A) (A) (A) (A) (A) (A) (A) (A) (A)
                 (A) (A) (A) (A) (A) (A) (A) (A) (A) (A) (A) (A)
                 (A) (A) (A) (A) (A) (A) (A) (A) (A) (A) (A) (A)
                 (A) (A) (A) (A) (A) (A) (A) (A) (A) (A) (A) (A)
                 (A) (A) (A) (A) (A) (A) (A) (A) (A) (A) (A) (A)
                 (A) (A) (A) (A) (A) (A) (A) (A) (A) (A) (A) (A)
                 (A) (A) (A) (A) (A) (A) (A) (A) (A) (A) (A) (A)
                 (A) (A) (A) (A) (A) (A) (A) (A) (A) (A) (A) (A)
                 (A) (A) (A) (A) (A) (A) (A) (A) (A) (A) (A) (A)
                 (A) (A) (A) (A) (A) (A) (A) (A) (A) (A) (A) (A)
                 (A) (A) (A) (A) (A) (A) (A) (A) (A) (A) (A) (A)
                 (A) (A) (A) (A) (A) (A) (A) (A) (A) (A) (A) (A)
                 (A) (A) (A) (A) (A) (A) (A) (A) (A) (A) (A) (A)
                 (A) (A) (A) (A) (A) (A) (A) (A) (A) (A) (A) (A)
                 (A) (A) (A) (A) (A) (A) (A) (A) (A) (A) (A) (A)
                 (A) (A) (A) (A) (A) (A) (A) (A) (A) (A) (A) (A)
                 (A) (A) (A) (A) (A) (A) (A) (A) (A) (A) (A) (A)
                 (A) (A) (A) (A) (A) (A) (A) (A) (A) (A) (A) (A)
                 (A) (A) (A) (A) (A) (A) (A) (A) (A) (A) (A) (A)
                 (A) (A) (A) (A) (A) (A) (A) (A) (A) (A) (A) (A)
                 (A) (A) (A) (A) (A) (A) (A) (A) (A) (A) (A) (A)
                 (A) (A) (A) (A) (A) (A) (A) (A) (A) (A) (A) (A)
                 (A) (A) (A) (A) (A) (A) (A) (A) (A) (A) (A) (A)
                 (A) (A) (A) (A) (A) (A) (A) (A) (A) (A) (A) (A)
                 (A) (A) (A) (A) (A) (A) (A) (A) (A) (A) (A) (A)
                 (A) (A) (A) (A) (A) (A) (A) (A) (A) (A) (A) (A)
                 (A) (A) (A) (A) (A) (A) (A) (A) (A) (A) (A) (A)
                 (A) (A) (A) (A) (A) (A) (A) (A) (A) (A) (A) (A)
                 (A) (A) (A) (A) (A) (A) (A) (A) (A) (A) (A) (A)
                 (A) (A) (A) (A) (A) (A) (A) (A) (A) (A) (A) (A)
                 (A) (A) (A) (A) (A) (A) (A) (A) (A) (A) (A) (A)
                 (A) (A) (A) (A) (A) (A) (A) (A) (A) (A) (A) (A)
                 (A) (A) (A) (A) (A) (A) (A) (A) (A) (A) (A) (A)
                 (A) (A) (A) (A) (A) (A) (A) (A) (A) (A) (A) (A)
                 (A) (A) (A) (A) (A) (A) (A) (A) (A) (A) (A) (A)
                 (A) (A) (A) (A) (A) (A) (A) (A)
 Beta  Orbitals:
       Occupied  (A) (A) (A) (A) (A) (A) (A) (A) (A) (A) (A) (A)
                 (A) (A) (A) (A) (A) (A) (A) (A) (A) (A) (A) (A)
                 (A) (A) (A) (A) (A) (A) (A) (A) (A) (A) (A) (A)
                 (A) (A) (A) (A) (A) (A) (A) (A) (A) (A) (A) (A)
                 (A) (A) (A) (A) (A) (A) (A) (A) (A) (A) (A) (A)
                 (A) (A) (A) (A) (A) (A) (A) (A) (A) (A) (A) (A)
                 (A) (A) (A) (A) (A) (A) (A) (A) (A) (A) (A) (A)
                 (A) (A) (A) (A) (A) (A) (A) (A) (A) (A) (A) (A)
                 (A) (A) (A) (A) (A) (A) (A) (A) (A) (A) (A) (A)
                 (A) (A) (A) (A) (A) (A) (A) (A) (A) (A) (A) (A)
                 (A) (A)
       Virtual   (A) (A) (A) (A) (A) (A) (A) (A) (A) (A) (A) (A)
                 (A) (A) (A) (A) (A) (A) (A) (A) (A) (A) (A) (A)
                 (A) (A) (A) (A) (A) (A) (A) (A) (A) (A) (A) (A)
                 (A) (A) (A) (A) (A) (A) (A) (A) (A) (A) (A) (A)
                 (A) (A) (A) (A) (A) (A) (A) (A) (A) (A) (A) (A)
                 (A) (A) (A) (A) (A) (A) (A) (A) (A) (A) (A) (A)
                 (A) (A) (A) (A) (A) (A) (A) (A) (A) (A) (A) (A)
                 (A) (A) (A) (A) (A) (A) (A) (A) (A) (A) (A) (A)
                 (A) (A) (A) (A) (A) (A) (A) (A) (A) (A) (A) (A)
                 (A) (A) (A) (A) (A) (A) (A) (A) (A) (A) (A) (A)
                 (A) (A) (A) (A) (A) (A) (A) (A) (A) (A) (A) (A)
                 (A) (A) (A) (A) (A) (A) (A) (A) (A) (A) (A) (A)
                 (A) (A) (A) (A) (A) (A) (A) (A) (A) (A) (A) (A)
                 (A) (A) (A) (A) (A) (A) (A) (A) (A) (A) (A) (A)
                 (A) (A) (A) (A) (A) (A) (A) (A) (A) (A) (A) (A)
                 (A) (A) (A) (A) (A) (A) (A) (A) (A) (A) (A) (A)
                 (A) (A) (A) (A) (A) (A) (A) (A) (A) (A) (A) (A)
                 (A) (A) (A) (A) (A) (A) (A) (A) (A) (A) (A) (A)
                 (A) (A) (A) (A) (A) (A) (A) (A) (A) (A) (A) (A)
                 (A) (A) (A) (A) (A) (A) (A) (A) (A) (A) (A) (A)
                 (A) (A) (A) (A) (A) (A) (A) (A) (A) (A) (A) (A)
                 (A) (A) (A) (A) (A) (A) (A) (A) (A) (A) (A) (A)
                 (A) (A) (A) (A) (A) (A) (A) (A) (A) (A) (A) (A)
                 (A) (A) (A) (A) (A) (A) (A) (A) (A) (A) (A) (A)
                 (A) (A) (A) (A) (A) (A) (A) (A) (A) (A) (A) (A)
                 (A) (A) (A) (A) (A) (A) (A) (A) (A) (A) (A) (A)
                 (A) (A) (A) (A) (A) (A) (A) (A) (A) (A) (A) (A)
                 (A) (A) (A) (A) (A) (A) (A) (A) (A) (A) (A) (A)
                 (A) (A) (A) (A) (A) (A) (A) (A) (A) (A) (A) (A)
                 (A) (A) (A) (A) (A) (A) (A) (A) (A) (A) (A) (A)
                 (A) (A) (A) (A) (A) (A) (A) (A) (A) (A) (A) (A)
                 (A) (A) (A) (A) (A) (A) (A) (A) (A) (A) (A) (A)
                 (A) (A) (A) (A) (A) (A) (A) (A) (A) (A) (A) (A)
                 (A) (A) (A) (A) (A) (A) (A) (A) (A) (A) (A) (A)
                 (A) (A) (A) (A) (A) (A) (A) (A) (A) (A) (A) (A)
                 (A) (A) (A) (A) (A) (A) (A) (A) (A) (A) (A) (A)
                 (A) (A) (A) (A) (A) (A) (A) (A) (A) (A) (A) (A)
                 (A) (A) (A) (A) (A) (A) (A) (A) (A) (A) (A) (A)
                 (A) (A) (A) (A) (A) (A) (A) (A) (A) (A) (A) (A)
                 (A) (A) (A) (A) (A) (A) (A) (A) (A) (A) (A) (A)
                 (A) (A) (A) (A) (A) (A) (A) (A) (A) (A) (A) (A)
                 (A) (A) (A) (A) (A) (A) (A) (A) (A) (A) (A) (A)
                 (A) (A) (A) (A) (A) (A) (A) (A) (A) (A) (A) (A)
                 (A) (A) (A) (A) (A) (A) (A) (A) (A) (A) (A) (A)
                 (A) (A) (A) (A) (A) (A) (A) (A) (A) (A) (A) (A)
                 (A) (A) (A) (A) (A) (A) (A) (A) (A) (A) (A) (A)
                 (A) (A) (A) (A) (A) (A) (A) (A) (A) (A)
 The electronic state is 3-A.
 Alpha  occ. eigenvalues --  -88.99664 -88.91692 -88.91169 -66.12307 -66.11092
 Alpha  occ. eigenvalues --  -14.38750 -14.38136 -14.34931 -10.25966 -10.25431
 Alpha  occ. eigenvalues --  -10.25147 -10.24033 -10.23456 -10.23388 -10.22930
 Alpha  occ. eigenvalues --  -10.22789 -10.21855 -10.20975 -10.20934 -10.20654
 Alpha  occ. eigenvalues --  -10.20535 -10.20318 -10.20278 -10.20006 -10.19855
 Alpha  occ. eigenvalues --  -10.19843 -10.19681 -10.18523 -10.17616 -10.17595
 Alpha  occ. eigenvalues --   -8.04914  -7.97697  -7.97361  -6.01483  -6.00895
 Alpha  occ. eigenvalues --   -6.00675  -5.94114  -5.93783  -5.93724  -5.93420
 Alpha  occ. eigenvalues --   -5.93374  -5.93056  -5.27361  -5.26057  -3.63231
 Alpha  occ. eigenvalues --   -3.63189  -3.63165  -3.61975  -3.61885  -3.61829
 Alpha  occ. eigenvalues --   -1.03809  -0.95474  -0.91955  -0.90729  -0.89411
 Alpha  occ. eigenvalues --   -0.88212  -0.83101  -0.81790  -0.81077  -0.79723
 Alpha  occ. eigenvalues --   -0.77025  -0.73685  -0.72822  -0.72602  -0.71232
 Alpha  occ. eigenvalues --   -0.70064  -0.67892  -0.65062  -0.64178  -0.63451
 Alpha  occ. eigenvalues --   -0.61743  -0.59281  -0.56764  -0.56394  -0.55747
 Alpha  occ. eigenvalues --   -0.55312  -0.54328  -0.53445  -0.52758  -0.51364
 Alpha  occ. eigenvalues --   -0.50027  -0.48389  -0.48019  -0.47743  -0.47058
 Alpha  occ. eigenvalues --   -0.46679  -0.45735  -0.45304  -0.44117  -0.42398
 Alpha  occ. eigenvalues --   -0.42153  -0.41632  -0.41382  -0.41014  -0.40647
 Alpha  occ. eigenvalues --   -0.39794  -0.39401  -0.39299  -0.38360  -0.38305
 Alpha  occ. eigenvalues --   -0.37837  -0.37289  -0.36990  -0.35692  -0.35477
 Alpha  occ. eigenvalues --   -0.35370  -0.34440  -0.34271  -0.33407  -0.32143
 Alpha  occ. eigenvalues --   -0.31737  -0.31016  -0.30432  -0.29697  -0.29267
 Alpha  occ. eigenvalues --   -0.28534  -0.27716  -0.26159  -0.25870  -0.25254
 Alpha  occ. eigenvalues --   -0.23635  -0.22533  -0.21493  -0.19088
 Alpha virt. eigenvalues --   -0.11888  -0.06610  -0.05052  -0.02142  -0.02098
 Alpha virt. eigenvalues --   -0.01452  -0.01186  -0.00786  -0.00589   0.00118
 Alpha virt. eigenvalues --    0.00213   0.00791   0.01078   0.01231   0.01544
 Alpha virt. eigenvalues --    0.01778   0.02091   0.02270   0.02377   0.02634
 Alpha virt. eigenvalues --    0.02851   0.03119   0.03459   0.03665   0.03961
 Alpha virt. eigenvalues --    0.04426   0.04671   0.04794   0.04965   0.05297
 Alpha virt. eigenvalues --    0.05443   0.05737   0.06208   0.06378   0.06870
 Alpha virt. eigenvalues --    0.06973   0.07188   0.07397   0.07930   0.08257
 Alpha virt. eigenvalues --    0.08426   0.08686   0.08861   0.09195   0.09465
 Alpha virt. eigenvalues --    0.09738   0.09912   0.10139   0.10306   0.10499
 Alpha virt. eigenvalues --    0.10562   0.10824   0.10885   0.11287   0.11520
 Alpha virt. eigenvalues --    0.11625   0.12000   0.12226   0.12364   0.12499
 Alpha virt. eigenvalues --    0.12658   0.12900   0.13192   0.13383   0.13435
 Alpha virt. eigenvalues --    0.13627   0.13774   0.13909   0.14047   0.14282
 Alpha virt. eigenvalues --    0.14403   0.14636   0.14688   0.14785   0.15184
 Alpha virt. eigenvalues --    0.15257   0.15339   0.15640   0.15915   0.16105
 Alpha virt. eigenvalues --    0.16137   0.16279   0.16493   0.16654   0.16878
 Alpha virt. eigenvalues --    0.17106   0.17193   0.17477   0.17804   0.17908
 Alpha virt. eigenvalues --    0.18086   0.18266   0.18489   0.18814   0.19018
 Alpha virt. eigenvalues --    0.19227   0.19601   0.19863   0.19946   0.20256
 Alpha virt. eigenvalues --    0.20409   0.20783   0.20814   0.21034   0.21388
 Alpha virt. eigenvalues --    0.21585   0.21905   0.22044   0.22322   0.22479
 Alpha virt. eigenvalues --    0.22821   0.22945   0.23075   0.23365   0.23476
 Alpha virt. eigenvalues --    0.24136   0.24258   0.24387   0.24500   0.24955
 Alpha virt. eigenvalues --    0.25161   0.25232   0.25539   0.26042   0.26180
 Alpha virt. eigenvalues --    0.26284   0.26575   0.26641   0.26856   0.27267
 Alpha virt. eigenvalues --    0.27484   0.27795   0.27991   0.28314   0.28554
 Alpha virt. eigenvalues --    0.28873   0.28942   0.29063   0.29194   0.29567
 Alpha virt. eigenvalues --    0.29999   0.30289   0.30562   0.31102   0.31331
 Alpha virt. eigenvalues --    0.31511   0.31753   0.32007   0.32237   0.32374
 Alpha virt. eigenvalues --    0.32402   0.32870   0.32956   0.33179   0.33537
 Alpha virt. eigenvalues --    0.34124   0.34394   0.34552   0.34978   0.35190
 Alpha virt. eigenvalues --    0.35627   0.35790   0.35922   0.36792   0.36879
 Alpha virt. eigenvalues --    0.37349   0.37623   0.37834   0.38253   0.39186
 Alpha virt. eigenvalues --    0.39437   0.39940   0.40469   0.40697   0.40976
 Alpha virt. eigenvalues --    0.41534   0.41641   0.41722   0.41980   0.42657
 Alpha virt. eigenvalues --    0.43390   0.43749   0.44080   0.44971   0.46307
 Alpha virt. eigenvalues --    0.46830   0.47102   0.47965   0.48487   0.50231
 Alpha virt. eigenvalues --    0.50399   0.51241   0.52109   0.52326   0.53030
 Alpha virt. eigenvalues --    0.54040   0.54590   0.54768   0.55218   0.56353
 Alpha virt. eigenvalues --    0.57712   0.58710   0.59546   0.60007   0.60778
 Alpha virt. eigenvalues --    0.61586   0.62220   0.62659   0.64306   0.64375
 Alpha virt. eigenvalues --    0.64631   0.65218   0.66751   0.67371   0.67687
 Alpha virt. eigenvalues --    0.68466   0.68639   0.69462   0.69694   0.69767
 Alpha virt. eigenvalues --    0.70281   0.70559   0.71134   0.71591   0.72013
 Alpha virt. eigenvalues --    0.72113   0.72864   0.73310   0.73461   0.73778
 Alpha virt. eigenvalues --    0.74777   0.74924   0.75638   0.75945   0.76137
 Alpha virt. eigenvalues --    0.76658   0.76854   0.77335   0.77484   0.77876
 Alpha virt. eigenvalues --    0.78162   0.78526   0.79250   0.79866   0.80113
 Alpha virt. eigenvalues --    0.80426   0.81052   0.81308   0.81579   0.81769
 Alpha virt. eigenvalues --    0.82403   0.82671   0.82891   0.83257   0.84206
 Alpha virt. eigenvalues --    0.84971   0.85302   0.85424   0.86062   0.87052
 Alpha virt. eigenvalues --    0.87386   0.87709   0.88544   0.89280   0.89640
 Alpha virt. eigenvalues --    0.90921   0.91325   0.93082   0.93465   0.93871
 Alpha virt. eigenvalues --    0.94403   0.95122   0.96063   0.96432   0.96800
 Alpha virt. eigenvalues --    0.96984   0.97629   0.97860   0.98804   0.99274
 Alpha virt. eigenvalues --    1.00351   1.00895   1.01207   1.01930   1.02975
 Alpha virt. eigenvalues --    1.03651   1.04174   1.04390   1.05161   1.05245
 Alpha virt. eigenvalues --    1.05803   1.07250   1.07399   1.08182   1.08960
 Alpha virt. eigenvalues --    1.09290   1.09654   1.09930   1.10927   1.11812
 Alpha virt. eigenvalues --    1.12055   1.12288   1.12734   1.13801   1.13953
 Alpha virt. eigenvalues --    1.14671   1.15776   1.15857   1.16315   1.16613
 Alpha virt. eigenvalues --    1.17257   1.18189   1.18358   1.18928   1.19739
 Alpha virt. eigenvalues --    1.20189   1.21146   1.21620   1.22103   1.22392
 Alpha virt. eigenvalues --    1.23012   1.23612   1.23927   1.25141   1.25572
[...]
 0186,-0.00000052,-0.00000335,0.00000218,-0.00000050,-0.00000331,-0.000
 00106,-0.00000045,0.00000186,-0.00000228,0.00000273,0.00000272,0.00000
 095,-0.00000260,-0.00000079,0.00000353,-0.00000992,0.00000107,-0.00001
 825,0.00002817,-0.00000288,0.00031543,-0.00023512,-0.00005024,0.000464
 03,0.00055048,-0.00003914,0.31383566,0.00000038,0.00000035,0.00000020,
 -0.00000204,0.00000144,0.00000162,-0.00000051,-0.00000230,0.00000110,0
 .00000113,-0.00000151,-0.00000184,-0.00000310,0.00000326,0.00000121,0.
 00000383,0.00000048,-0.00000261,-0.00000328,-0.00000346,0.00000336,-0.
 00000191,0.00000014,-0.00000123,0.00000293,-0.00000008,-0.00000426,-0.
 00000553,0.00000124,0.00000274,0.00001212,-0.00001149,-0.00000643,-0.0
 0001702,0.00000610,-0.00002414,0.00015229,0.00037344,-0.00035506,0.000
 08563,-0.00004553,-0.00039944,0.00071545,0.00047828,-0.00064701,0.0014
 7463,-0.00234814,0.00398640,0.01824769,-0.00235148,-0.00799455,0.06964
 677,-0.04632866,-0.00287617,-0.00519434,0.00403454,0.00231891,-0.00026
 417,-0.00019657,0.00033073,0.00041304,-0.00053181,-0.00027338,-0.00188
 978,-0.00017052,0.00198445,0.00001383,0.00002075,-0.00002703,-0.000004
 64,-0.00001055,0.00000594,-0.00000765,-0.00000357,0.00000220,0.0000084
 5,0.00002068,0.00000666,-0.00000159,-0.00000531,-0.00000037,-0.0000029
 8,-0.00000366,0.00000009,-0.00000021,-0.00000035,-0.00000820,0.0000020
 4,0.00000205,-0.00000045,-0.00000001,-0.00000238,-0.00000149,0.0000016
 3,0.00000068,-0.00000062,-0.00000258,0.00000067,0.00000237,-0.00000079
 ,0.00000141,0.00000128,0.00000036,0.00000026,-0.00000035,0.00000018,-0
 .00000018,-0.00000025,0.00000011,0.00000004,0.00000033,0.00000017,0.00
 000027,0.00000035,0.00000059,-0.00000010,0.00000026,0.00000122,-0.0000
 0085,0.00000100,0.00000389,0.00005929,0.00003871,0.00006718,0.00064825
 ,0.00058568,-0.00050280,0.00085022,-0.00061412,-0.08294208,0.04548500,
 0.00000231,-0.00000459,-0.00000049,0.00000943,-0.00001020,-0.00001620,
 0.00000294,0.00001770,-0.00000941,-0.00000957,0.00001134,0.00001201,0.
 00001436,-0.00003429,-0.00001238,-0.00002064,0.00002004,0.00002731,0.0
 0000933,0.00001565,-0.00002544,-0.00000108,-0.00001596,0.00000434,-0.0
 0002643,0.00001270,0.00005330,0.00001844,-0.00000347,-0.00005519,-0.00
 000197,0.00001385,0.00000635,0.00000499,0.00000193,0.00007092,-0.00020
 610,-0.00036483,0.00076460,0.00001309,-0.00038003,0.00011424,-0.000718
 32,-0.00009585,0.00077612,-0.00045106,0.00361753,-0.00225803,-0.017249
 59,0.00333269,0.00631252,0.08860432,-0.00776250,-0.05716469,0.00911236
 ,-0.00320184,0.00165872,-0.00056302,0.00010240,-0.00051013,0.00021557,
 0.00043887,-0.00044800,0.00307472,0.00088589,-0.00214610,-0.00001053,0
 .00000635,0.00003371,-0.00000256,0.00003944,-0.00002395,0.00001884,-0.
 00001849,-0.00001089,-0.00004236,-0.00001652,0.00007217,0.00000559,0.0
 0000862,-0.00002075,0.00001431,0.00000606,-0.00001606,0.00000691,-0.00
 001413,-0.00000914,0.00000659,0.00000087,-0.00000671,-0.00000067,0.000
 00386,-0.00001164,-0.00000763,0.00000025,0.00001750,0.00001207,-0.0000
 0080,-0.00002107,0.00000906,-0.00002426,-0.00000868,-0.00000118,0.0000
 0081,0.00000298,-0.00000217,0.00000028,0.00000276,0.00000123,0.0000004
 5,-0.00000137,0.00000220,-0.00000198,-0.00000222,-0.00000033,0.0000021
 2,0.00000096,-0.00000301,0.00000816,-0.00000012,0.00005368,-0.00000977
 ,0.00002715,0.00047894,-0.00073290,0.00070857,0.00047840,0.00024170,0.
 00051758,-0.08286750,0.00395891,0.05160329,-0.00000037,0.00000166,0.00
 000121,0.00000105,-0.00000056,-0.00000234,-0.00000112,0.00000176,0.000
 00089,-0.00000030,-0.00000300,0.,-0.00000645,0.00000613,0.00000370,0.0
 0001080,0.00000045,-0.00000951,-0.00001347,0.00001478,0.00001070,0.000
 00412,-0.00002588,0.00002113,-0.00001896,0.00009827,0.00002379,-0.0004
 4457,0.00002194,0.00019862,-0.00001293,-0.00021792,-0.00028195,0.00060
 890,-0.00041416,-0.00017236,0.00059547,0.00012828,-0.00022290,0.000025
 32,-0.00007420,0.00006166,-0.00001874,0.00000453,-0.00008522,-0.000058
 42,-0.00007976,0.00019760,-0.00003940,-0.00000294,-0.00000303,0.000051
 86,-0.00003177,0.00004468,-0.00024658,0.00016315,-0.00030682,0.0000357
 3,0.00000491,0.00005436,0.00006447,-0.00003346,0.00013885,-0.00013138,
 0.00028753,0.00021798,0.00119938,-0.00069167,0.00672589,-0.06096643,0.
 01669827,-0.07089452,0.00234769,-0.00530383,0.01677687,-0.00114309,-0.
 00109890,-0.00013993,0.00002047,-0.00000743,0.00040146,-0.00011693,0.0
 0018483,0.00034572,-0.00024353,0.00062397,0.00065134,-0.00000976,-0.00
 004428,0.00002864,0.00002669,0.00005069,0.00008570,0.00002361,0.000018
 93,-0.00003997,-0.00001973,0.00001183,0.00001310,0.00000073,0.00000179
 ,-0.00000251,-0.00000067,-0.00000056,-0.00000070,0.00000114,-0.0000011
 2,0.00000004,0.00000026,0.00000011,0.,0.00000022,0.00000026,0.00000027
 ,0.00000017,0.00000030,0.00000070,-0.00000231,0.00001448,0.00000318,-0
 .00002940,-0.00001556,-0.00000980,-0.00001361,-0.00001614,0.00001749,0
 .00001561,-0.00000211,0.00000796,-0.00000416,-0.00000160,-0.00000326,0
 .07060216,-0.00000093,0.00000262,-0.00000035,0.00001239,-0.00000668,-0
 .00001799,-0.00000067,0.00001408,0.00000073,-0.00000123,-0.00000928,0.
 00000542,-0.00000083,0.00000663,0.00001254,0.00001676,-0.00001508,-0.0
 0003086,-0.00003484,0.00002139,-0.00001424,0.00007792,-0.00013611,-0.0
 0015263,0.00002028,-0.00015765,0.00026835,0.00097258,-0.00069792,-0.00
 050005,0.00102009,-0.00014383,-0.00041129,-0.00001464,0.00038467,-0.00
 010904,0.00007448,0.00052106,-0.00080612,0.00008488,-0.00018177,0.0002
 2884,0.00008556,-0.00005680,-0.00005560,-0.00012597,0.00007044,-0.0000
 0407,0.00000049,-0.00000623,0.00002298,0.00002571,0.00001054,-0.000011
 70,-0.00001498,0.00000153,-0.00005288,-0.00000881,-0.00000458,0.000025
 44,0.00004539,0.00001478,-0.00002021,-0.00013721,-0.00003603,0.0004692
 9,-0.00774835,0.00543161,-0.02426650,0.02088100,-0.05920466,0.05481990
 ,0.00202334,-0.00657928,0.02295589,-0.00063540,-0.00326473,-0.00211488
 ,0.00000590,0.00035631,0.00087370,-0.00010593,0.00039719,0.00053540,-0
 .00034848,-0.00168215,-0.00067457,-0.00003577,-0.00013349,0.00009915,0
 .00000297,0.00015111,0.00017825,0.00006762,0.00008332,-0.00013551,-0.0
 0002850,0.00002824,0.00002365,-0.00000033,0.00000907,-0.00002641,-0.00
 000208,-0.00000171,-0.00000228,0.00000338,-0.00000121,0.00000092,-0.00
 000081,0.,-0.00000094,0.00000055,-0.00000032,-0.00000112,-0.00000138,0
 .00000224,-0.00000039,0.00000563,0.00004676,0.00001100,-0.00001251,0.0
 0000098,0.00001294,0.00000169,0.00000327,-0.00000455,0.00000015,0.0000
 0284,-0.00000131,0.00000603,0.00000296,0.00000026,-0.01986078,0.064247
 07,0.00000311,-0.00000930,-0.00000233,0.00001381,-0.00001160,-0.000020
 98,0.00000657,0.00002288,-0.00001195,-0.00001233,0.00001471,0.00001536
 ,0.00002519,-0.00004642,-0.00001506,-0.00003693,0.00004053,0.00004127,
 0.00000436,-0.00000965,-0.00005375,0.00003900,-0.00004783,-0.00007511,
 0.00002398,-0.00019333,0.00020548,0.00060845,-0.00055025,-0.00042091,0
 .00058246,-0.00029664,-0.00033093,0.00131871,0.00165062,0.00029382,-0.
 00065040,-0.00005599,0.00026658,0.00003334,-0.00003097,0.00001368,-0.0
 0015071,0.00001277,0.00016770,0.00009158,-0.00002236,0.00023416,-0.000
 01884,-0.00000895,0.00000393,0.00000970,0.00001664,0.00002442,-0.00009
 091,-0.00003624,-0.00013611,0.00000056,-0.00000112,0.00001845,-0.00004
 285,-0.00004938,0.00003296,-0.00013166,-0.00008956,-0.00008785,-0.0039
 8579,0.00077317,-0.01800170,-0.07523078,0.04871558,-0.25089529,0.00274
 791,0.00756671,-0.00906112,-0.00060971,0.00088135,-0.00002759,0.000122
 16,0.00006234,-0.00045381,0.00006327,0.00003506,-0.00001179,-0.0011096
 6,-0.00137010,-0.00029843,0.00000976,0.00005390,-0.00001792,0.00002374
 ,-0.00001852,-0.00007840,-0.00003709,-0.00002229,0.00006196,0.00003874
 ,-0.00001038,-0.00005248,0.00000794,-0.00003384,-0.00001713,-0.0000013
 0,0.00000161,0.00000585,-0.00000492,0.00000147,0.00000395,0.00000054,0
 .00000015,-0.00000311,0.00000211,-0.00000330,-0.00000409,-0.00000255,0
 .00000318,0.00000086,0.00000608,0.00002469,0.00000730,-0.00003559,-0.0
 0003318,-0.00003471,-0.00001062,-0.00000953,0.00000583,0.00000929,-0.0
 0000002,0.00000121,-0.00000262,-0.00000502,-0.00000197,0.07669970,-0.0
 5719697,0.27784876,-0.00000274,0.00000690,0.00000003,-0.00000574,0.000
 00790,0.00000922,-0.00000268,-0.00001360,0.00001126,0.00001005,-0.0000
 1753,-0.00001187,-0.00001822,0.00003805,0.00002193,0.00002914,-0.00001
 743,-0.00005414,-0.00003814,-0.00000899,0.00005393,0.00002995,-0.00002
 947,-0.00002047,0.00003090,0.00003041,0.00002234,0.00000113,0.00028885
 ,0.00009744,-0.00011179,0.00013671,0.00019393,0.00036595,-0.00089250,0
 .00059016,-0.00004646,0.00004236,-0.00012670,0.00004785,-0.00002003,-0
 .00003613,-0.00006056,0.00000087,0.00004842,0.00001017,-0.00004648,-0.
 00011302,-0.00000088,0.00005964,-0.00002150,-0.00016169,-0.00012750,0.
 00000810,-0.00081994,-0.00115180,0.00050900,0.00006927,0.00009621,-0.0
 0007167,-0.00076846,-0.00017114,0.00007693,-0.00041653,0.00011909,-0.0
 0009342,-0.00029557,0.00258999,0.00199462,-0.27419136,0.05686473,0.015
 68017,-0.01430118,-0.00519182,0.00579427,-0.00067289,-0.00097040,-0.00
 114118,-0.00001787,0.00000654,0.00011190,-0.00027671,0.00008431,0.0005
 3784,-0.00013086,0.00026390,-0.00084982,-0.00001076,-0.00001747,0.0000
 2619,0.00002690,0.00000848,0.00008316,0.00002255,0.00004220,-0.0000693
 0,-0.00002601,0.00001127,0.00003900,-0.00001141,0.00001252,-0.00000672
 ,0.00000036,-0.00000137,-0.00000375,0.00000367,-0.00000061,-0.00000271
 ,-0.00000129,-0.00000017,0.00000121,-0.00000234,0.00000231,0.00000212,
 0.00000033,-0.00000200,-0.00000131,0.00000403,-0.00000511,0.00000218,0
 .00001713,0.00001457,-0.00000110,0.00002368,0.00000268,-0.00001208,0.0
 0001112,-0.00000663,-0.00001554,-0.00000581,-0.00000330,0.00001778,-0.
 01270575,0.00361151,-0.00097019,0.30369965,-0.00000164,0.00000246,-0.0
 0000149,0.00002151,-0.00001097,-0.00002981,-0.00000279,0.00002212,-0.0
 0000221,-0.00000182,-0.00001311,0.00000762,-0.00001536,-0.00000545,0.0
 0001865,0.00002026,0.00004864,-0.00006795,-0.00004629,0.00002899,0.000
 12514,0.00016007,-0.00017333,-0.00014684,-0.00039268,0.00002235,0.0001
 2643,-0.00003219,-0.00092949,-0.00097666,-0.00022568,-0.00018939,-0.00
 145510,-0.00035540,0.00114064,-0.00096038,0.00082628,-0.00029128,-0.00
 006848,-0.00008215,0.00024407,0.00013888,-0.00011903,-0.00005977,0.000
 04738,-0.00008678,-0.00001214,0.00028834,0.00009791,-0.00000534,-0.000
 07639,0.00001969,0.00012775,0.00010166,-0.00098879,-0.00120655,0.00013
 678,0.00004633,0.00019140,0.00003601,0.00038373,0.00015160,-0.00010540
 ,-0.00009601,0.00010344,0.00003111,0.02376751,-0.00681687,-0.00291774,
 0.04636216,-0.05308220,-0.00725424,-0.02380105,0.00308538,0.00620682,0
 .00070133,-0.00292412,-0.00123561,-0.00020049,0.00033968,0.00052663,-0
 .00038826,0.00033451,0.00064645,-0.00014853,-0.00123072,0.00057622,0.0
 0000845,-0.00010085,0.00008375,-0.00004615,0.00012159,0.00016384,0.000
 04785,0.00009606,-0.00012481,-0.00001738,0.00003905,0.00002240,0.00002
 721,-0.00003515,-0.00002805,-0.00000334,-0.00000189,0.00000050,0.00000
 200,-0.00000019,0.00000228,0.00000068,0.00000058,-0.00000133,0.0000014
 4,-0.00000168,-0.00000244,-0.00000026,0.00000275,0.00000054,-0.0000171
 8,0.00002977,0.00000320,-0.00008699,-0.00002508,-0.00004881,-0.0000262
 7,0.00002385,-0.00001240,-0.00001801,0.00003369,-0.00001611,0.00001459
 ,0.00003380,-0.00006335,0.00900676,-0.00016797,0.00021608,-0.05512319,
 0.06064229,0.00000079,-0.00000117,-0.00000128,0.00000776,-0.00000459,-
 0.00000932,-0.00000196,0.00000794,-0.00000346,-0.00000016,-0.00000091,
 0.00000507,-0.00000807,-0.00001114,-0.00000221,0.00000602,0.00002228,-
 0.00000366,0.00001038,-0.00001097,0.00002528,0.00007639,-0.00001212,-0
 .00003444,-0.00013401,-0.00011427,0.00000726,-0.00030612,-0.00020587,-
 0.00095759,-0.00025274,-0.00015147,-0.00073341,-0.00001268,0.00129638,
 0.00045805,0.00007674,-0.00017374,0.00029872,-0.00000225,-0.00000910,0
 .00002482,-0.00008509,0.00000754,0.00009140,0.00000673,-0.00007550,-0.
 00001245,0.00005876,0.00002588,-0.00000671,-0.00007500,0.00000325,-0.0
 0003750,0.00024462,0.00002032,0.00057335,-0.00003644,-0.00004712,-0.00
 010459,0.00009710,0.00002909,-0.00027948,0.00006247,-0.00010641,-0.000
 18358,0.01977704,-0.00575980,-0.00341359,0.02015818,-0.00877018,-0.039
 79000,0.01213957,0.00213548,-0.00310292,0.00042452,0.00016381,-0.00048
 690,-0.00003899,-0.00000281,-0.00012663,0.00015697,0.00016782,-0.00022
 184,0.00038214,-0.00142594,-0.00072272,0.00000545,0.00000058,-0.000009
 75,0.00000723,0.00000153,-0.00005139,0.00000025,-0.00000161,0.00001015
 ,0.00001367,-0.00000742,-0.00002642,0.00001912,-0.00000595,-0.00000840
 ,-0.00000101,0.00000010,0.00000159,-0.00000076,-0.00000013,0.00000078,
 0.00000114,0.00000011,-0.00000058,0.00000097,-0.00000082,-0.00000094,-
 0.00000075,0.00000119,0.00000076,-0.00001487,0.00000157,-0.00000234,-0
 .00002027,-0.00000561,-0.00000531,-0.00000281,0.00002354,-0.00001138,-
 0.00001282,0.00000316,-0.00001160,0.00000509,0.00001062,-0.00000675,-0
 .02998379,0.00672660,0.00009254,-0.02253656,0.00638563,0.04840440,-0.0
 0000152,0.00000930,0.00000324,-0.00000788,0.00000657,0.00000795,-0.000
 00578,-0.00001184,0.00000916,0.00000642,-0.00001551,-0.00001119,-0.000
 01432,0.00004038,0.00002041,0.00003118,-0.00002553,-0.00004519,-0.0000
 3510,0.00001244,0.00003872,0.00002516,-0.00005690,-0.00002491,0.000033
 92,0.00002104,0.00000983,0.00035886,-0.00001123,-0.00034089,-0.0001154
 6,0.00015510,-0.00029437,0.00047313,-0.00052265,-0.00062128,0.00008197
 ,0.00003453,-0.00005351,-0.00001579,0.00002300,-0.00000080,-0.00001425
 ,-0.00000866,0.00000682,0.00000356,-0.00000878,0.00000369,0.00001291,0
 .00000164,-0.00000208,-0.00001474,0.00001720,-0.00000070,0.00007226,-0
 .00012473,0.00002918,-0.00000700,0.00002726,-0.00000857,-0.00001159,0.
 00004265,-0.00000158,-0.00002109,0.00003250,-0.00000769,-0.00084322,-0
 .00223097,0.00281295,0.00161589,-0.01221277,-0.01056347,-0.02345776,-0
 .00158292,0.01685274,0.00375559,0.00412606,0.00214620,-0.00035097,0.00
 022672,0.00059795,-0.00046477,-0.00049818,-0.00039044,-0.00018269,0.00
 102645,0.00232042,-0.00002002,-0.00008804,0.00003828,-0.00010565,0.000
 00416,0.00019852,0.00005850,0.00008830,-0.00007399,-0.00007719,0.00004
 013,0.00008547,-0.00000083,0.00001597,0.00001187,0.00000069,-0.0000019
 2,-0.00000542,0.00000480,-0.00000165,-0.00000204,-0.00000022,0.0000001
 9,0.00000225,-0.00000056,0.00000230,0.00000273,0.00000217,-0.00000157,
 0.00000049,0.00000755,0.00001242,-0.00000627,-0.00000085,0.00000172,0.
 00000018,-0.00000370,0.00000022,0.00000062,-0.00000435,0.00000382,-0.0
 0000014,-0.00000450,-0.00000362,0.00000149,0.00061220,0.00007415,0.000
 64339,0.00069981,0.00080799,-0.00021193,0.01792523,0.00000069,-0.00000
 700,-0.00000124,0.00001769,-0.00001509,-0.00002529,0.00000617,0.000027
 13,-0.00001244,-0.00001348,0.00001423,0.00001707,0.00001743,-0.0000461
 0,-0.00001587,-0.00002585,0.00002623,0.00002739,0.00001674,0.00003157,
 -0.00003903,0.00001724,-0.00006238,0.00001042,-0.00005045,0.00000499,0
 .00007960,-0.00002220,0.00007080,-0.00020793,0.00022747,-0.00041896,-0
 .00013766,0.00027055,-0.00021759,-0.00106424,0.00004189,0.00011014,-0.
 00020485,-0.00001299,0.00000527,-0.00000609,-0.00004534,-0.00002740,0.
 00007463,0.00001950,-0.00002519,0.00002385,0.00000959,-0.00000907,-0.0
 0001270,-0.00002691,0.00002274,0.00001654,0.00016834,-0.00011443,-0.00
 004317,-0.00002537,0.00002475,0.00000322,-0.00003995,0.00003851,0.0000
 1395,-0.00002861,0.00002133,0.00003850,-0.00310232,-0.00254566,0.00262
 899,0.00335528,-0.01373451,-0.01437788,-0.00931871,-0.25050238,-0.1355
 7950,-0.00183688,0.00137042,0.00249868,0.00019649,-0.00034318,-0.00021
 905,0.00005404,-0.00001785,-0.00006196,-0.00047232,0.00032507,0.000788
 89,0.00001322,-0.00001776,-0.00002394,0.00001475,-0.00001313,0.0000026
 6,-0.00002144,0.00000679,0.00002425,0.00001629,-0.00000172,-0.00002693
 ,0.00002368,-0.00004116,-0.00002082,-0.00000249,0.00000028,0.00000386,
 -0.00000229,0.00000090,0.00000356,0.00000085,0.00000040,-0.00000277,0.
 00000191,-0.00000294,-0.00000375,-0.00000199,0.00000277,0.00000091,-0.
 00000788,0.00002751,-0.00000434,-0.00001389,-0.00000488,0.00000174,-0.
 00000889,-0.00000033,0.00001160,-0.00000808,-0.00000096,0.00000362,-0.
 00001332,-0.00000710,0.00000705,0.00058202,0.00067674,0.00006931,-0.00
 052346,0.00041708,-0.00012978,0.01055328,0.26495112,0.00000562,-0.0000
 1538,-0.00000321,0.00002151,-0.00002218,-0.00003112,0.00000884,0.00003
 800,-0.00002432,-0.00002416,0.00003408,0.00002752,0.00003842,-0.000088
 68,-0.00003940,-0.00005616,0.00003861,0.00010248,0.00005110,0.00001176
 ,-0.00009828,-0.00003863,0.00005014,0.00003709,-0.00005472,-0.00002202
 ,0.00007344,-0.00053192,-0.00015075,0.00075322,-0.00025844,-0.00034739
 ,0.00016285,-0.00015202,0.00028975,0.00044850,0.00005253,-0.00002204,0
 .00001587,-0.00001380,0.00001678,-0.00002111,-0.00002031,0.00000369,0.
 00001414,-0.00000076,-0.00000174,0.00002823,0.00001395,-0.00000273,-0.
 00000973,-0.00001325,0.00002573,0.00000718,0.00005178,-0.00016803,0.00
 001937,-0.00000923,0.00003178,0.00000007,0.00000716,0.00005478,-0.0000
 1054,-0.00004051,0.00001690,0.00000810,0.00247313,0.00185327,-0.001134
 30,0.00043142,0.01251213,0.00759757,0.01118899,-0.14730871,-0.13052172
 ,-0.00142693,-0.01088903,0.00033572,-0.00013312,0.00087634,-0.00048844
 ,0.00050592,0.00027690,-0.00050180,0.00138697,-0.00198308,-0.00316900,
 -0.00000900,0.00011224,0.00001719,0.00000052,0.00007723,-0.00040660,-0
 .00005492,-0.00014001,0.00009076,0.00013590,-0.00006457,-0.00015815,0.
 00002631,-0.00001353,-0.00002539,-0.00000262,0.00000249,0.00000961,-0.
 00000812,0.00000169,0.00000717,0.00000241,0.00000009,-0.00000436,0.000
 00421,-0.00000505,-0.00000539,-0.00000174,0.00000437,0.00000186,-0.000
 00507,-0.00000187,0.00000854,-0.00000879,-0.00000320,-0.00000216,-0.00
 000447,0.00000378,0.00000184,-0.00000605,0.00000316,-0.00000205,-0.000
 00535,-0.00000113,0.00000026,-0.00057461,-0.00065879,0.00076845,0.0002
 2606,-0.00029674,0.00037494,-0.01317807,0.14587095,0.12574510\\0.00000
 968,-0.00000695,0.00000337,-0.00000669,0.00001027,-0.00000492,-0.00000
 050,-0.00000230,0.00000713,-0.00001007,-0.00000819,-0.00001367,0.00001
 455,0.00000951,0.00000406,-0.00000924,-0.00000113,0.00000270,-0.000005
 86,0.00000208,-0.00000082,0.00000929,-0.00000051,0.00000520,-0.0000054
 1,-0.00000509,-0.00000427,0.00002144,-0.00000416,-0.00000029,0.0000023
 6,0.00000909,-0.00000235,-0.00000859,-0.00001534,-0.00000212,0.0000296
 3,0.00000706,0.00001002,-0.00000545,0.00000471,0.00000470,0.00000236,-
 0.00000350,0.00000239,0.00000119,-0.00000183,-0.00000871,-0.00000058,0
 .00000305,-0.00000222,-0.00000839,-0.00002046,-0.00001291,0.00000216,-
 0.00000698,0.00002364,-0.00000028,-0.00000518,0.00000026,0.00000116,0.
 00000118,-0.00000729,-0.00001088,0.00000027,-0.00001717,-0.00000033,-0
 .00000475,0.00000420,0.00000581,-0.00000322,-0.00001292,0.00001441,0.0
 0000247,0.00000516,-0.00001984,-0.00001416,-0.00000657,0.00001014,0.00
 000969,-0.00000105,0.00000279,-0.00000952,-0.00000695,-0.00002702,0.00
 002496,0.00001402,-0.00000561,0.00000190,-0.00000288,-0.00000242,-0.00
 000377,0.00000263,0.00000236,0.00000655,-0.00000806,-0.00001251,0.0000
 0078,0.00000475,0.00000839,0.00000340,-0.00000304,-0.00000140,0.000001
 56,-0.00000062,-0.00000179,0.00000634,-0.00000182,-0.00000200,0.000000
 78,-0.00000202,0.00000589,0.00000280,0.00000281,0.00000732,0.00000254,
 0.00000459,0.00000037,0.00000008,-0.00000080,0.00000576,0.00000068,0.0
 0000297,0.00000032,-0.00000116,0.00000153,0.00000379,-0.00000737,0.000
 00178,0.00000939,0.00001065,0.00001053,-0.00000135,-0.00000194,0.00000
 346,-0.00000582,0.00000195,0.00000626,-0.00001854,0.00000318,-0.000004
 69\\\@


 THE CAUTIOUS SELDOM ERR...CONFUCIUS                   
 Job cpu time:  2 days 13 hours 55 minutes 40.9 seconds.
 File lengths (MBytes):  RWF=   4675 Int=      0 D2E=      0 Chk=     45 Scr=      1
 Normal termination of Gaussian 09 at Sun Dec 29 12:32:33 2013.
