 Entering Gaussian System, Link 0=g09
 Initial command:
 /opt/gaussian/g09/l1.exe /panfs/panfs.cluster/home/shuo/Gau-1145.inp -scrdir=/panfs/panfs.cluster/home/shuo/
 Default is to use a total of  12 processors:
                               12 via shared-memory
                                1 via Linda
 Entering Link 1 = /opt/gaussian/g09/l1.exe PID=      1146.
  
 Copyright (c) 1988,1990,1992,1993,1995,1998,2003,2009,2011,
            Gaussian, Inc.  All Rights Reserved.
  
 This is part of the Gaussian(R) 09 program.  It is based on
 the Gaussian(R) 03 system (copyright 2003, Gaussian, Inc.),
 the Gaussian(R) 98 system (copyright 1998, Gaussian, Inc.),
 the Gaussian(R) 94 system (copyright 1995, Gaussian, Inc.),
 the Gaussian 92(TM) system (copyright 1992, Gaussian, Inc.),
 the Gaussian 90(TM) system (copyright 1990, Gaussian, Inc.),
 the Gaussian 88(TM) system (copyright 1988, Gaussian, Inc.),
 the Gaussian 86(TM) system (copyright 1986, Carnegie Mellon
 University), and the Gaussian 82(TM) system (copyright 1983,
 Carnegie Mellon University). Gaussian is a federally registered
 trademark of Gaussian, Inc.
  
 This software contains proprietary and confidential information,
 including trade secrets, belonging to Gaussian, Inc.
  
 This software is provided under written license and may be
 used, copied, transmitted, or stored only in accord with that
 written license.
  
 The following legend is applicable only to US Government
 contracts under FAR:
  
                    RESTRICTED RIGHTS LEGEND
  
 Use, reproduction and disclosure by the US Government is
 subject to restrictions as set forth in subparagraphs (a)
 and (c) of the Commercial Computer Software - Restricted
 Rights clause in FAR 52.227-19.
  
 Gaussian, Inc.
 340 Quinnipiac St., Bldg. 40, Wallingford CT 06492
  
  
 ---------------------------------------------------------------
 Warning -- This program may not be used in any manner that
 competes with the business of Gaussian, Inc. or will provide
 assistance to any competitor of Gaussian, Inc.  The licensee
 of this program is prohibited from giving any competitor of
 Gaussian, Inc. access to this program.  By using this program,
 the user acknowledges that Gaussian, Inc. is engaged in the
 business of creating and licensing software in the field of
 computational chemistry and represents and warrants to the
 licensee that it is not a competitor of Gaussian, Inc. and that
 it will not use this program in any manner prohibited above.
 ---------------------------------------------------------------
  

 Cite this work as:
 Gaussian 09, Revision C.01,
 M. J. Frisch, G. W. Trucks, H. B. Schlegel, G. E. Scuseria, 
 M. A. Robb, J. R. Cheeseman, G. Scalmani, V. Barone, B. Mennucci, 
 G. A. Petersson, H. Nakatsuji, M. Caricato, X. Li, H. P. Hratchian, 
 A. F. Izmaylov, J. Bloino, G. Zheng, J. L. Sonnenberg, M. Hada, 
 M. Ehara, K. Toyota, R. Fukuda, J. Hasegawa, M. Ishida, T. Nakajima, 
 Y. Honda, O. Kitao, H. Nakai, T. Vreven, J. A. Montgomery, Jr., 
 J. E. Peralta, F. Ogliaro, M. Bearpark, J. J. Heyd, E. Brothers, 
 K. N. Kudin, V. N. Staroverov, T. Keith, R. Kobayashi, J. Normand, 
 K. Raghavachari, A. Rendell, J. C. Burant, S. S. Iyengar, J. Tomasi, 
 M. Cossi, N. Rega, J. M. Millam, M. Klene, J. E. Knox, J. B. Cross, 
 V. Bakken, C. Adamo, J. Jaramillo, R. Gomperts, R. E. Stratmann, 
 O. Yazyev, A. J. Austin, R. Cammi, C. Pomelli, J. W. Ochterski, 
 R. L. Martin, K. Morokuma, V. G. Zakrzewski, G. A. Voth, 
 P. Salvador, J. J. Dannenberg, S. Dapprich, A. D. Daniels, 
 O. Farkas, J. B. Foresman, J. V. Ortiz, J. Cioslowski, 
 and D. J. Fox, Gaussian, Inc., Wallingford CT, 2010.
 
 ******************************************
 Gaussian 09:  EM64L-G09RevC.01 23-Sep-2011
                29-Dec-2013 
 ******************************************
 %chk=8_C25H11N3S3Se.chk
 %NProcShared=12
 Will use up to   12 processors via shared memory.
 %Mem=8000MB
 Default route:  MaxDisk=100GB
 --------------------------------------------
 #B3LYP/6-31++G(d,p) opt scf=direct freq test
 --------------------------------------------
 1/14=-1,18=20,19=15,26=3,38=1/1,3;
 2/9=110,12=2,17=6,18=5,40=1/2;
 3/5=1,6=6,7=1111,11=2,16=1,25=1,30=1,71=1,74=-5/1,2,3;
 4//1;
 5/5=2,38=5/2;
 6/7=2,8=2,9=2,10=2,28=1/1;
 7//1,2,3,16;
 1/14=-1,18=20,19=15/3(2);
 2/9=110/2;
 99//99;
 2/9=110/2;
 3/5=1,6=6,7=1111,11=2,16=1,25=1,30=1,71=1,74=-5/1,2,3;
 4/5=5,16=3/1;
 5/5=2,38=5/2;
 7//1,2,3,16;
 1/14=-1,18=20,19=15/3(-5);
 2/9=110/2;
 6/7=2,8=2,9=2,10=2,19=2,28=1/1;
 99/9=1/99;
 ----------------------------------------------------------------------
 Geom opt of No.8 candidate from the CEPDB database with SMILE code of 
 [SiH2]1cccc1-c1ccc(cn1)-c1sc(-c2cncc3nsnc23)c2[Se]ccc12, HPC, 20131227
 , Shuo Dai, Gaussian09
 ----------------------------------------------------------------------
 Charge =  0 Multiplicity = 1
 Symbolic Z-Matrix:
 Si                    0.        1.119    -0.002 
 H                     0.00053   1.92662   1.16597 
 H                    -0.00053   1.93351  -1.16517 
 C                     1.105     0.356     0.001 
 C                     0.743    -0.916     0.001 
 C                    -0.743    -0.916    -0.002 
 C                    -1.105     0.356     0.002 
 C                    -1.90446   0.64291   1.21644 
 C                    -2.48186  -0.41254   1.97591 
 C                    -3.44158  -0.11102   2.956 
 C                    -3.60011   1.11647   3.35562 
 C                    -2.8069    2.13841   2.81722 
 N                    -2.066     1.89957   1.63423 
 C                    -4.5948    1.42655   4.35541 
 S                    -4.86903   2.61248   4.76871 
 C                    -5.80274   2.56224   5.70635 
 C                    -6.37408   3.68578   6.41088 
 C                    -5.92086   4.90706   6.05 
 N                    -6.27974   6.02999   6.72622 
 C                    -7.11698   5.9807    7.78502 
 C                    -7.62725   4.73481   8.20615 
 N                    -8.44581   4.33197   9.1769 
 S                    -8.57705   3.0157    9.10161 
 N                    -7.865     2.53752   8.10162 
 C                    -7.2424    3.56233   7.49728 
 C                    -6.1242    1.24013   5.88129 
 Se                   -6.88945   0.35371   6.54364 
 C                    -6.51416  -0.96797   6.02287 
 C                    -5.59519  -0.77421   5.11506 
 C                    -5.33357   0.53719   5.00068 
 H                     2.07632   0.70464   0.00298 
 H                     1.36489  -1.73957   0.00273 
 H                    -1.36489  -1.73956  -0.00632 
 H                    -2.19816  -1.39051   1.80822 
 H                    -4.02118  -0.8637    3.35921 
 H                    -2.76288   3.05974   3.28008 
 H                    -5.28617   4.98885   5.24037 
 H                    -7.38086   6.84627   8.28118 
 H                    -6.90296  -1.87711   6.31836 
 H                    -5.13788  -1.51938   4.56678 
 

 GradGradGradGradGradGradGradGradGradGradGradGradGradGradGradGradGradGrad
 Berny optimization.
 Initialization pass.
                           ----------------------------
                           !    Initial Parameters    !
                           ! (Angstroms and Degrees)  !
 --------------------------                            --------------------------
 ! Name  Definition              Value          Derivative Info.                !
 --------------------------------------------------------------------------------
 ! R1    R(1,2)                  1.42           estimate D2E/DX2                !
 ! R2    R(1,3)                  1.42           estimate D2E/DX2                !
 ! R3    R(1,4)                  1.3428         estimate D2E/DX2                !
 ! R4    R(1,5)                  2.1664         estimate D2E/DX2                !
 ! R5    R(1,6)                  2.1664         estimate D2E/DX2                !
 ! R6    R(1,7)                  1.3428         estimate D2E/DX2                !
 ! R7    R(4,5)                  1.3225         estimate D2E/DX2                !
 ! R8    R(4,31)                 1.032          estimate D2E/DX2                !
 ! R9    R(5,6)                  1.486          estimate D2E/DX2                !
 ! R10   R(5,32)                 1.032          estimate D2E/DX2                !
 ! R11   R(6,7)                  1.3225         estimate D2E/DX2                !
 ! R12   R(6,33)                 1.032          estimate D2E/DX2                !
 ! R13   R(7,8)                  1.482          estimate D2E/DX2                !
 ! R14   R(8,9)                  1.4227         estimate D2E/DX2                !
 ! R15   R(8,13)                 1.3341         estimate D2E/DX2                !
 ! R16   R(9,10)                 1.4045         estimate D2E/DX2                !
 ! R17   R(9,34)                 1.032          estimate D2E/DX2                !
 ! R18   R(10,11)                1.3006         estimate D2E/DX2                !
 ! R19   R(10,35)                1.032          estimate D2E/DX2                !
 ! R20   R(11,12)                1.4012         estimate D2E/DX2                !
 ! R21   R(11,14)                1.444          estimate D2E/DX2                !
 ! R22   R(12,13)                1.4161         estimate D2E/DX2                !
 ! R23   R(12,36)                1.032          estimate D2E/DX2                !
 ! R24   R(14,15)                1.2855         estimate D2E/DX2                !
 ! R25   R(14,30)                1.3241         estimate D2E/DX2                !
 ! R26   R(15,16)                1.3242         estimate D2E/DX2                !
 ! R27   R(15,26)                2.1672         estimate D2E/DX2                !
 ! R28   R(15,30)                2.1393         estimate D2E/DX2                !
 ! R29   R(16,17)                1.444          estimate D2E/DX2                !
 ! R30   R(16,26)                1.3718         estimate D2E/DX2                !
 ! R31   R(17,18)                1.3517         estimate D2E/DX2                !
 ! R32   R(17,25)                1.3962         estimate D2E/DX2                !
 ! R33   R(18,19)                1.3591         estimate D2E/DX2                !
 ! R34   R(18,37)                1.032          estimate D2E/DX2                !
 ! R35   R(19,20)                1.3507         estimate D2E/DX2                !
 ! R36   R(20,21)                1.4107         estimate D2E/DX2                !
 ! R37   R(20,38)                1.032          estimate D2E/DX2                !
 ! R38   R(21,22)                1.3322         estimate D2E/DX2                !
 ! R39   R(21,23)                2.1585         estimate D2E/DX2                !
 ! R40   R(21,25)                1.4231         estimate D2E/DX2                !
 ! R41   R(22,23)                1.3249         estimate D2E/DX2                !
 ! R42   R(23,24)                1.3174         estimate D2E/DX2                !
 ! R43   R(23,25)                2.1573         estimate D2E/DX2                !
 ! R44   R(24,25)                1.3428         estimate D2E/DX2                !
 ! R45   R(26,27)                1.3454         estimate D2E/DX2                !
 ! R46   R(26,30)                1.3765         estimate D2E/DX2                !
 ! R47   R(27,28)                1.4693         estimate D2E/DX2                !
 ! R48   R(27,29)                2.2334         estimate D2E/DX2                !
 ! R49   R(27,30)                2.1989         estimate D2E/DX2                !
 ! R50   R(28,29)                1.3062         estimate D2E/DX2                !
 ! R51   R(28,39)                1.032          estimate D2E/DX2                !
 ! R52   R(29,30)                1.3421         estimate D2E/DX2                !
 ! R53   R(29,40)                1.032          estimate D2E/DX2                !
 ! A1    A(2,1,3)              110.3355         estimate D2E/DX2                !
 ! A2    A(2,1,4)              108.7245         estimate D2E/DX2                !
 ! A3    A(2,1,5)              122.2072         estimate D2E/DX2                !
 ! A4    A(2,1,6)              122.3018         estimate D2E/DX2                !
 ! A5    A(2,1,7)              108.7245         estimate D2E/DX2                !
 ! A6    A(3,1,4)              109.1509         estimate D2E/DX2                !
 ! A7    A(3,1,5)              122.6885         estimate D2E/DX2                !
 ! A8    A(3,1,6)              122.5939         estimate D2E/DX2                !
 ! A9    A(3,1,7)              109.1506         estimate D2E/DX2                !
 ! A10   A(4,1,6)               75.4327         estimate D2E/DX2                !
 ! A11   A(4,1,7)              110.7495         estimate D2E/DX2                !
 ! A12   A(5,1,7)               75.4325         estimate D2E/DX2                !
 ! A13   A(1,4,31)             125.6303         estimate D2E/DX2                !
 ! A14   A(5,4,31)             125.6306         estimate D2E/DX2                !
 ! A15   A(1,5,32)             163.0007         estimate D2E/DX2                !
 ! A16   A(4,5,6)              105.8859         estimate D2E/DX2                !
 ! A17   A(4,5,32)             127.0571         estimate D2E/DX2                !
 ! A18   A(6,5,32)             127.0571         estimate D2E/DX2                !
 ! A19   A(1,6,33)             162.9987         estimate D2E/DX2                !
 ! A20   A(5,6,7)              105.8854         estimate D2E/DX2                !
 ! A21   A(5,6,33)             127.0575         estimate D2E/DX2                !
 ! A22   A(7,6,33)             127.0571         estimate D2E/DX2                !
 ! A23   A(1,7,8)              109.6542         estimate D2E/DX2                !
 ! A24   A(6,7,8)              109.654          estimate D2E/DX2                !
 ! A25   A(7,8,9)              120.847          estimate D2E/DX2                !
 ! A26   A(7,8,13)             120.2849         estimate D2E/DX2                !
 ! A27   A(9,8,13)             118.8471         estimate D2E/DX2                !
 ! A28   A(8,9,10)             119.378          estimate D2E/DX2                !
 ! A29   A(8,9,34)             120.3116         estimate D2E/DX2                !
 ! A30   A(10,9,34)            120.3104         estimate D2E/DX2                !
 ! A31   A(9,10,11)            120.0214         estimate D2E/DX2                !
 ! A32   A(9,10,35)            119.9896         estimate D2E/DX2                !
 ! A33   A(11,10,35)           119.989          estimate D2E/DX2                !
 ! A34   A(10,11,12)           120.0837         estimate D2E/DX2                !
 ! A35   A(10,11,14)           119.9581         estimate D2E/DX2                !
 ! A36   A(12,11,14)           119.9582         estimate D2E/DX2                !
 ! A37   A(11,12,13)           119.613          estimate D2E/DX2                !
 ! A38   A(11,12,36)           120.1936         estimate D2E/DX2                !
 ! A39   A(13,12,36)           120.1934         estimate D2E/DX2                !
 ! A40   A(8,13,12)            118.9351         estimate D2E/DX2                !
 ! A41   A(11,14,15)           124.5877         estimate D2E/DX2                !
 ! A42   A(11,14,30)           125.2774         estimate D2E/DX2                !
 ! A43   A(14,15,16)           110.0645         estimate D2E/DX2                !
 ! A44   A(14,15,26)            72.8069         estimate D2E/DX2                !
 ! A45   A(16,15,30)            74.532          estimate D2E/DX2                !
 ! A46   A(15,16,17)           126.5085         estimate D2E/DX2                !
 ! A47   A(17,16,26)           126.5084         estimate D2E/DX2                !
 ! A48   A(16,17,18)           116.1081         estimate D2E/DX2                !
 ! A49   A(16,17,25)           123.8417         estimate D2E/DX2                !
 ! A50   A(18,17,25)           119.7444         estimate D2E/DX2                !
 ! A51   A(17,18,19)           121.6778         estimate D2E/DX2                !
 ! A52   A(17,18,37)           119.1608         estimate D2E/DX2                !
 ! A53   A(19,18,37)           119.1614         estimate D2E/DX2                !
 ! A54   A(18,19,20)           121.5712         estimate D2E/DX2                !
 ! A55   A(19,20,21)           119.3705         estimate D2E/DX2                !
 ! A56   A(19,20,38)           120.3151         estimate D2E/DX2                !
 ! A57   A(21,20,38)           120.3144         estimate D2E/DX2                !
 ! A58   A(20,21,22)           134.9814         estimate D2E/DX2                !
 ! A59   A(20,21,25)           118.7585         estimate D2E/DX2                !
 ! A60   A(22,21,25)           106.2601         estimate D2E/DX2                !
 ! A61   A(21,23,24)            74.7142         estimate D2E/DX2                !
 ! A62   A(22,23,24)           110.4985         estimate D2E/DX2                !
 ! A63   A(22,23,25)            74.2911         estimate D2E/DX2                !
 ! A64   A(17,25,21)           118.8752         estimate D2E/DX2                !
 ! A65   A(17,25,24)           134.9118         estimate D2E/DX2                !
 ! A66   A(21,25,24)           106.213          estimate D2E/DX2                !
 ! A67   A(16,26,27)           146.2066         estimate D2E/DX2                !
 ! A68   A(16,26,30)           106.0211         estimate D2E/DX2                !
 ! A69   A(26,27,28)           105.8362         estimate D2E/DX2                !
 ! A70   A(26,27,29)            71.8334         estimate D2E/DX2                !
 ! A71   A(28,27,30)            69.245          estimate D2E/DX2                !
 ! A72   A(27,28,39)           126.4931         estimate D2E/DX2                !
 ! A73   A(29,28,39)           126.4937         estimate D2E/DX2                !
 ! A74   A(27,29,40)           164.0032         estimate D2E/DX2                !
 ! A75   A(28,29,30)           109.9569         estimate D2E/DX2                !
 ! A76   A(28,29,40)           125.0219         estimate D2E/DX2                !
 ! A77   A(30,29,40)           125.0211         estimate D2E/DX2                !
 ! A78   A(14,30,26)           106.8128         estimate D2E/DX2                !
 ! A79   A(14,30,27)           142.4492         estimate D2E/DX2                !
 ! A80   A(14,30,29)           143.7665         estimate D2E/DX2                !
 ! A81   A(15,30,27)           108.1005         estimate D2E/DX2                !
 ! A82   A(26,30,29)           109.4207         estimate D2E/DX2                !
 ! A83   L(20,21,23,1,-1)      189.3904         estimate D2E/DX2                !
 ! A84   L(17,25,23,20,-1)     189.6688         estimate D2E/DX2                !
 ! A85   L(15,26,27,29,-1)     178.0328         estimate D2E/DX2                !
 ! A86   L(15,30,29,1,-1)      178.1165         estimate D2E/DX2                !
 ! A87   L(20,21,23,1,-2)      178.8307         estimate D2E/DX2                !
 ! A88   L(17,25,23,20,-2)     180.0097         estimate D2E/DX2                !
 ! A89   L(15,26,27,29,-2)     180.3203         estimate D2E/DX2                !
 ! A90   L(15,30,29,1,-2)      180.0613         estimate D2E/DX2                !
 ! D1    D(2,1,4,31)           -60.3268         estimate D2E/DX2                !
 ! D2    D(3,1,4,31)            60.0808         estimate D2E/DX2                !
 ! D3    D(6,1,4,31)          -179.9898         estimate D2E/DX2                !
 ! D4    D(7,1,4,31)          -179.7255         estimate D2E/DX2                !
 ! D5    D(2,1,5,32)           -76.5781         estimate D2E/DX2                !
 ! D6    D(3,1,5,32)            76.5758         estimate D2E/DX2                !
 ! D7    D(7,1,5,32)          -179.7753         estimate D2E/DX2                !
 ! D8    D(2,1,6,33)            77.5021         estimate D2E/DX2                !
 ! D9    D(3,1,6,33)           -75.652          estimate D2E/DX2                !
 ! D10   D(4,1,6,33)          -179.312          estimate D2E/DX2                !
 ! D11   D(2,1,7,8)              0.0459         estimate D2E/DX2                !
 ! D12   D(3,1,7,8)           -120.3615         estimate D2E/DX2                !
 ! D13   D(4,1,7,8)            119.4446         estimate D2E/DX2                !
 ! D14   D(5,1,7,8)            119.6085         estimate D2E/DX2                !
 ! D15   D(31,4,5,6)           179.985          estimate D2E/DX2                !
 ! D16   D(31,4,5,32)           -0.0149         estimate D2E/DX2                !
 ! D17   D(4,5,6,7)             -0.246          estimate D2E/DX2                !
 ! D18   D(4,5,6,33)           179.7539         estimate D2E/DX2                !
 ! D19   D(32,5,6,7)           179.7539         estimate D2E/DX2                !
 ! D20   D(32,5,6,33)           -0.2462         estimate D2E/DX2                !
 ! D21   D(5,6,7,8)           -119.4786         estimate D2E/DX2                !
 ! D22   D(33,6,7,8)            60.5215         estimate D2E/DX2                !
 ! D23   D(1,7,8,9)           -136.3077         estimate D2E/DX2                !
 ! D24   D(1,7,8,13)            42.0082         estimate D2E/DX2                !
 ! D25   D(6,7,8,9)            -16.9817         estimate D2E/DX2                !
 ! D26   D(6,7,8,13)           161.3342         estimate D2E/DX2                !
 ! D27   D(7,8,9,10)          -167.5327         estimate D2E/DX2                !
 ! D28   D(7,8,9,34)            12.4672         estimate D2E/DX2                !
 ! D29   D(13,8,9,10)           14.1276         estimate D2E/DX2                !
 ! D30   D(13,8,9,34)         -165.8725         estimate D2E/DX2                !
 ! D31   D(7,8,13,12)         -178.4066         estimate D2E/DX2                !
 ! D32   D(9,8,13,12)           -0.0573         estimate D2E/DX2                !
 ! D33   D(8,9,10,11)          -13.9927         estimate D2E/DX2                !
 ! D34   D(8,9,10,35)          166.0073         estimate D2E/DX2                !
 ! D35   D(34,9,10,11)         166.0074         estimate D2E/DX2                !
 ! D36   D(34,9,10,35)         -13.9926         estimate D2E/DX2                !
 ! D37   D(9,10,11,12)          -0.5084         estimate D2E/DX2                !
 ! D38   D(9,10,11,14)         179.492          estimate D2E/DX2                !
 ! D39   D(35,10,11,12)        179.4916         estimate D2E/DX2                !
 ! D40   D(35,10,11,14)         -0.508          estimate D2E/DX2                !
 ! D41   D(10,11,12,13)         14.7999         estimate D2E/DX2                !
 ! D42   D(10,11,12,36)       -165.1999         estimate D2E/DX2                !
 ! D43   D(14,11,12,13)       -165.2004         estimate D2E/DX2                !
 ! D44   D(14,11,12,36)         14.7997         estimate D2E/DX2                !
 ! D45   D(10,11,14,15)       -176.6144         estimate D2E/DX2                !
 ! D46   D(10,11,14,30)          5.0101         estimate D2E/DX2                !
 ! D47   D(12,11,14,15)          3.3859         estimate D2E/DX2                !
 ! D48   D(12,11,14,30)       -174.9896         estimate D2E/DX2                !
 ! D49   D(11,12,13,8)         -14.3291         estimate D2E/DX2                !
 ! D50   D(36,12,13,8)         165.6707         estimate D2E/DX2                !
 ! D51   D(11,14,15,16)       -178.6193         estimate D2E/DX2                !
 ! D52   D(11,14,15,26)       -178.5805         estimate D2E/DX2                !
 ! D53   D(11,14,30,26)        178.5644         estimate D2E/DX2                !
 ! D54   D(11,14,30,27)        178.8654         estimate D2E/DX2                !
 ! D55   D(11,14,30,29)         -1.4198         estimate D2E/DX2                !
 ! D56   D(14,15,16,17)       -179.9377         estimate D2E/DX2                !
 ! D57   D(30,15,16,17)       -179.9568         estimate D2E/DX2                !
 ! D58   D(14,15,27,28)          0.2841         estimate D2E/DX2                !
 ! D59   D(14,15,27,29)          0.1113         estimate D2E/DX2                !
 ! D60   D(16,15,30,27)          0.1549         estimate D2E/DX2                !
 ! D61   D(15,16,17,18)          1.3694         estimate D2E/DX2                !
 ! D62   D(15,16,17,25)       -172.2462         estimate D2E/DX2                !
 ! D63   D(26,16,17,18)       -178.6294         estimate D2E/DX2                !
 ! D64   D(26,16,17,25)          7.755          estimate D2E/DX2                !
 ! D65   D(17,16,26,27)          0.5537         estimate D2E/DX2                !
 ! D66   D(17,16,26,30)        179.9332         estimate D2E/DX2                !
 ! D67   D(16,17,18,19)       -173.3473         estimate D2E/DX2                !
 ! D68   D(16,17,18,37)          6.6532         estimate D2E/DX2                !
 ! D69   D(25,17,18,19)          0.5464         estimate D2E/DX2                !
 ! D70   D(25,17,18,37)       -179.4531         estimate D2E/DX2                !
 ! D71   D(16,17,23,22)        173.5799         estimate D2E/DX2                !
 ! D72   D(18,17,23,22)         -0.2328         estimate D2E/DX2                !
 ! D73   D(16,17,25,21)        173.152          estimate D2E/DX2                !
 ! D74   D(16,17,25,24)         -6.8907         estimate D2E/DX2                !
 ! D75   D(18,17,25,21)         -0.2441         estimate D2E/DX2                !
 ! D76   D(18,17,25,24)        179.7132         estimate D2E/DX2                !
 ! D77   D(17,18,19,20)         -0.6075         estimate D2E/DX2                !
 ! D78   D(37,18,19,20)        179.392          estimate D2E/DX2                !
 ! D79   D(18,19,20,21)          0.3468         estimate D2E/DX2                !
 ! D80   D(18,19,20,38)       -179.653          estimate D2E/DX2                !
 ! D81   D(19,20,21,22)        179.9641         estimate D2E/DX2                !
 ! D82   D(19,20,21,25)         -0.0513         estimate D2E/DX2                !
 ! D83   D(38,20,21,22)         -0.0361         estimate D2E/DX2                !
 ! D84   D(38,20,21,25)        179.9485         estimate D2E/DX2                !
 ! D85   D(19,20,23,24)         -0.1031         estimate D2E/DX2                !
 ! D86   D(38,20,23,24)        179.9077         estimate D2E/DX2                !
 ! D87   D(20,21,25,17)          0.0026         estimate D2E/DX2                !
 ! D88   D(20,21,25,24)       -179.9659         estimate D2E/DX2                !
 ! D89   D(22,21,25,17)        179.9912         estimate D2E/DX2                !
 ! D90   D(22,21,25,24)          0.0228         estimate D2E/DX2                !
 ! D91   D(16,26,27,28)        179.8588         estimate D2E/DX2                !
 ! D92   D(16,26,27,29)        179.5674         estimate D2E/DX2                !
 ! D93   D(16,26,30,14)          0.0476         estimate D2E/DX2                !
 ! D94   D(16,26,30,29)       -179.9623         estimate D2E/DX2                !
 ! D95   D(26,27,28,39)        179.5045         estimate D2E/DX2                !
 ! D96   D(30,27,28,39)        179.8138         estimate D2E/DX2                !
 ! D97   D(26,27,29,40)       -179.5994         estimate D2E/DX2                !
 ! D98   D(28,27,30,14)       -179.9954         estimate D2E/DX2                !
 ! D99   D(28,27,30,15)       -179.8235         estimate D2E/DX2                !
 ! D100  D(39,28,29,30)       -179.6967         estimate D2E/DX2                !
 ! D101  D(39,28,29,40)          0.3039         estimate D2E/DX2                !
 ! D102  D(28,29,30,14)        179.9794         estimate D2E/DX2                !
 ! D103  D(28,29,30,26)         -0.0045         estimate D2E/DX2                !
 ! D104  D(40,29,30,14)         -0.0211         estimate D2E/DX2                !
 ! D105  D(40,29,30,26)        179.9949         estimate D2E/DX2                !
 --------------------------------------------------------------------------------
 Trust Radius=3.00D-01 FncErr=1.00D-07 GrdErr=1.00D-06
 Number of steps in this run=    240 maximum allowed number of steps=    240.
 GradGradGradGradGradGradGradGradGradGradGradGradGradGradGradGradGradGrad

                          Input orientation:                          
 ---------------------------------------------------------------------
 Center     Atomic      Atomic             Coordinates (Angstroms)
 Number     Number       Type             X           Y           Z
 ---------------------------------------------------------------------
      1         14           0        0.000000    1.119000   -0.002000
      2          1           0        0.000530    1.926620    1.165970
      3          1           0       -0.000530    1.933510   -1.165170
      4          6           0        1.105000    0.356000    0.001000
      5          6           0        0.743000   -0.916000    0.001000
      6          6           0       -0.743000   -0.916000   -0.002000
      7          6           0       -1.105000    0.356000    0.002000
      8          6           0       -1.904460    0.642910    1.216440
      9          6           0       -2.481860   -0.412540    1.975910
     10          6           0       -3.441580   -0.111020    2.956000
     11          6           0       -3.600110    1.116470    3.355620
     12          6           0       -2.806900    2.138410    2.817220
     13          7           0       -2.066000    1.899570    1.634230
     14          6           0       -4.594800    1.426550    4.355410
     15         16           0       -4.869030    2.612480    4.768710
     16          6           0       -5.802740    2.562240    5.706350
     17          6           0       -6.374080    3.685780    6.410880
     18          6           0       -5.920860    4.907060    6.050000
     19          7           0       -6.279740    6.029990    6.726220
     20          6           0       -7.116980    5.980700    7.785020
     21          6           0       -7.627250    4.734810    8.206150
     22          7           0       -8.445810    4.331970    9.176900
     23         16           0       -8.577050    3.015700    9.101610
     24          7           0       -7.865000    2.537520    8.101620
     25          6           0       -7.242400    3.562330    7.497280
     26          6           0       -6.124200    1.240130    5.881290
     27         34           0       -6.889450    0.353710    6.543640
     28          6           0       -6.514160   -0.967970    6.022870
     29          6           0       -5.595190   -0.774210    5.115060
     30          6           0       -5.333570    0.537190    5.000680
     31          1           0        2.076320    0.704640    0.002980
     32          1           0        1.364890   -1.739570    0.002730
     33          1           0       -1.364890   -1.739560   -0.006320
     34          1           0       -2.198160   -1.390510    1.808220
     35          1           0       -4.021180   -0.863700    3.359210
     36          1           0       -2.762880    3.059740    3.280080
     37          1           0       -5.286170    4.988850    5.240370
     38          1           0       -7.380860    6.846270    8.281180
     39          1           0       -6.902960   -1.877110    6.318360
     40          1           0       -5.137880   -1.519380    4.566780
 ---------------------------------------------------------------------
                    Distance matrix (angstroms):
                    1          2          3          4          5
     1  Si   0.000000
     2  H    1.420002   0.000000
     3  H    1.419997   2.331150   0.000000
     4  C    1.342834   2.245853   2.251819   0.000000
     5  C    2.166399   3.160523   3.167412   1.322508   0.000000
     6  C    2.166397   3.161879   3.166060   2.243456   1.486003
     7  C    1.342837   2.245856   2.251817   2.210000   2.243455
     8  C    2.310460   2.297704   3.310991   3.258291   3.304019
     9  C    3.523829   3.505700   4.639756   4.166112   3.814900
    10  C    4.701828   4.382272   5.744995   5.442566   5.185627
    11  C    4.922846   4.291331   5.836272   5.828366   5.852095
    12  C    4.106810   3.263916   4.876180   5.139167   5.464641
    13  N    2.748617   2.119091   3.479074   3.886552   4.299460
    14  C    6.339858   5.616018   7.200078   7.252219   7.276025
    15  S    6.978367   6.096126   7.705467   7.969429   8.165544
    16  C    8.266801   7.395742   9.015472   9.226884   9.353923
    17  C    9.399058   8.440342  10.054309  10.397626  10.626183
    18  C    9.275381   8.234053   9.795457  10.327887  10.719396
    19  N   10.431774   9.337870  10.885020  11.487260  11.949654
    20  C   11.615731  10.531208  12.129695  12.642356  13.035901
    21  C   11.773816  10.753283  12.403055  12.757376  13.012195
    22  N   12.880493  11.887025  13.565905  13.828357  14.006161
    23  S   12.650651  11.736071  13.421423  13.551280  13.606715
    24  N   11.381524  10.504428  12.169146  12.281693  12.314402
    25  C   10.708007   9.758128  11.407707  11.668498  11.832847
    26  C    8.493150   7.760015   9.361234   9.360600   9.294361
    27  Se   9.533918   8.880608  10.458429  10.330410  10.132749
    28  C    9.115305   8.626083  10.124914   9.801399   9.430376
    29  C    7.815030   7.362192   8.835907   8.504324   8.145328
    30  C    7.335685   6.714770   8.270957   8.153822   8.002079
    31  H    2.117268   2.674824   2.681045   1.031996   2.098623
    32  H    3.167707   4.081122   4.088995   2.111625   1.031997
    33  H    3.167698   4.084056   4.086056   3.239102   2.263074
    34  H    3.795582   4.031138   4.971894   4.150567   3.484484
    35  H    5.603456   5.363799   6.667835   6.248437   5.829041
    36  H    4.708718   3.659215   5.353431   5.746570   6.232982
    37  H    8.390577   7.343513   8.848957   9.474247   9.933234
    38  H   12.485583  11.371635  12.955231  13.516464  13.957482
    39  H    9.827232   9.416669  10.870492  10.441419   9.964611
    40  H    7.364279   7.060006   8.436235   7.958451   7.469616
                    6          7          8          9         10
     6  C    0.000000
     7  C    1.322514   0.000000
     8  C    2.294294   1.481998   0.000000
     9  C    2.681275   2.526404   1.422730   0.000000
    10  C    4.084127   3.795238   2.440741   1.404476   0.000000
    11  C    4.854650   4.248606   2.770484   2.343492   1.300600
    12  C    4.640809   3.741512   2.369265   2.705698   2.341370
    13  N    3.514970   2.443421   1.334106   2.373929   2.771600
    14  C    6.269843   5.681282   4.207749   3.675430   2.377475
    15  S    7.227307   6.479286   5.028569   4.759103   3.569451
    16  C    8.383578   7.712060   6.248176   5.813239   4.503978
    17  C    9.695900   8.940044   7.497918   7.184328   5.911974
    18  C    9.866355   8.971229   7.594587   7.531472   6.395373
    19  N   11.143214  10.207215   8.861229   8.859770   7.744786
    20  C   12.199581  11.329455   9.940252   9.803245   8.598666
    21  C   12.111906  11.358776   9.917158   9.580508   8.280458
    22  N   13.081540  12.404621  10.943827  10.484910   9.136853
    23  S   12.637497  12.070975  10.598561   9.983976   8.597555
    24  N   11.327769  10.773137   9.301789   8.672103   7.284148
    25  C   10.887463  10.204286   8.744459   8.303485   6.968713
    26  C    8.259498   7.780752   6.318521   5.590166   4.192777
    27  Se   9.068430   8.732292   7.301563   6.393602   4.997494
    28  C    8.343144   8.201389   6.851718   5.739846   4.425020
    29  C    7.053237   6.898012   5.552383   4.435977   3.120801
    30  C    6.943479   6.549842   5.107881   4.264208   2.860161
    31  H    3.251932   3.200367   4.162079   5.090928   6.311327
    32  H    2.263071   3.239100   4.223500   4.522381   5.871638
    33  H    1.031997   2.111631   2.731747   2.633978   3.967382
    34  H    2.370558   2.740023   2.138051   1.032003   2.121459
    35  H    4.695416   4.611142   3.367765   2.118153   1.032009
    36  H    5.537009   4.561204   3.291893   3.719753   3.258739
    37  H    9.109890   8.147761   6.820203   6.906219   5.884686
    38  H   13.150099  12.249688  10.880404  10.791059   9.606214
    39  H    8.877826   8.859996   7.573975   6.367728   5.138647
    40  H    6.368107   6.373256   5.133739   3.871969   2.730481
                   11         12         13         14         15
    11  C    0.000000
    12  C    1.401220   0.000000
    13  N    2.435143   1.416137   0.000000
    14  C    1.444001   2.463607   3.744783   0.000000
    15  S    2.417649   2.878443   4.264995   1.285476   0.000000
    16  C    3.530972   4.183511   5.566374   2.138679   1.324201
    17  C    4.861160   5.294669   6.675813   3.534815   2.472624
    18  C    5.197513   5.273807   6.588169   4.091946   2.830750
    19  N    6.533302   6.518074   7.793865   5.445312   4.183458
    20  C    7.459805   7.617022   8.944285   6.234092   5.049387
    21  C    7.268967   7.682294   9.064007   5.913420   4.891631
    22  N    8.228460   8.778072  10.174007   6.820448   5.931453
    23  S    7.835395   8.576586   9.970019   6.396103   5.717169
    24  N    6.537062   7.325882   8.709909   5.095346   4.482158
    25  C    6.033395   6.603345   7.995952   4.630625   3.739010
    26  C    3.572860   4.604336   5.911122   2.168439   2.167171
    27  Se   4.643817   5.808492   7.053911   3.347350   3.512053
    28  C    4.466632   5.802548   6.875251   3.492577   4.135093
    29  C    3.263532   4.640903   5.632092   2.534007   3.480939
    30  C    2.458998   3.703440   4.885292   1.324053   2.139261
    31  H    6.605426   5.815624   4.609517   7.998040   8.636546
    32  H    6.637022   6.353260   5.260812   8.030445   8.973108
    33  H    4.945276   5.009034   4.052928   6.283411   7.349841
    34  H    3.262646   3.720473   3.297327   4.490867   5.649954
    35  H    2.024447   3.283427   3.799203   2.562557   3.845695
    36  H    2.117300   1.032001   2.130835   2.679473   2.617619
    37  H    4.624977   4.488145   5.737368   3.735121   2.458374
    38  H    8.449013   8.540487   9.843755   7.248942   6.047455
    39  H    5.352398   6.720126   7.720140   4.482739   5.166692
    40  H    3.283192   4.676949   5.452111   3.003018   4.145518
                   16         17         18         19         20
    16  C    0.000000
    17  C    1.443999   0.000000
    18  C    2.372810   1.351728   0.000000
    19  N    3.645950   2.367205   1.359059   0.000000
    20  C    4.211171   2.776116   2.365100   1.350725   0.000000
    21  C    3.781256   2.427734   2.755072   2.384002   1.410662
    22  N    4.707704   3.515749   4.060001   3.685236   2.534054
    23  S    4.407971   3.541484   4.465973   4.472813   3.557589
    24  N    3.160830   2.529811   3.688298   4.074570   3.537691
    25  C    2.506039   1.396239   2.376844   2.758730   2.438655
    26  C    1.371829   2.514778   3.676437   4.866298   5.204114
    27  Se   2.599923   3.374303   4.681329   5.711851   5.766785
    28  C    3.615064   4.671998   5.904974   7.037123   7.193927
    29  C    3.394790   4.709281   5.766888   7.025780   7.421141
    30  C    2.195203   3.603463   4.532300   5.834687   6.369058
    31  H    9.902459  11.016244  10.871139  11.974350  13.149666
    32  H   10.119870  11.418864  11.568462  12.806707  13.860329
    33  H    8.416329   9.782983  10.080349  11.395120  12.385230
    34  H    6.619112   8.024432   8.456393   9.793357  10.688857
    35  H    4.518859   5.962097   6.644607   7.997550   8.718806
    36  H    3.921102   4.820228   4.588887   5.750354   6.912646
    37  H    2.524365   2.061949   1.031999   2.068551   3.287990
    38  H    5.241481   3.807929   3.297014   2.072843   1.031997
    39  H    4.614420   5.588740   6.860138   7.942102   7.996379
    40  H    4.289555   5.658850   6.641696   7.934735   8.397923
                   21         22         23         24         25
    21  C    0.000000
    22  N    1.332170   0.000000
    23  S    2.158543   1.324937   0.000000
    24  N    2.212586   2.171087   1.317441   0.000000
    25  C    1.423136   2.204918   2.157306   1.342793   0.000000
    26  C    4.458354   5.080393   4.420360   3.105394   3.042106
    27  Se   4.743662   5.018253   4.059236   2.854475   3.365894
    28  C    6.207043   6.462859   5.440936   4.293534   4.819527
    29  C    6.635767   7.120228   6.256795   5.003912   5.214772
    30  C    5.758126   6.444161   5.786260   4.474962   4.362123
    31  H   13.330174  14.423368  14.199308  12.952886  12.295099
    32  H   13.786670  14.740381  14.291409  13.002938  12.584271
    33  H   12.189310  13.089478  12.553172  11.237595  10.906841
    34  H   10.388844  11.228417  10.644175   9.335383   9.074160
    35  H    8.236497   8.967600   8.293422   6.988111   6.862188
    36  H    7.122789   8.287747   8.227802   7.039289   6.172801
    37  H    3.786957   5.090293   5.443564   4.565757   3.309900
    38  H    2.127111   2.873697   4.096003   4.339581   3.379043
    39  H    6.914176   7.007447   5.872704   4.857417   5.576072
    40  H    7.652246   8.150700   7.277329   6.032472   6.232224
                   26         27         28         29         30
    26  C    0.000000
    27  Se   1.345383   0.000000
    28  C    2.246735   1.469313   0.000000
    29  C    2.219127   2.233417   1.306204   0.000000
    30  C    1.376479   2.198898   2.168910   1.342124   0.000000
    31  H   10.103950  11.103532  10.622290   9.336617   8.939324
    32  H    9.976099  10.737758   9.945697   8.689681   8.662131
    33  H    8.135941   8.820687   7.966270   6.712367   6.782629
    34  H    6.238907   6.890189   6.047286   4.780672   4.872230
    35  H    3.899959   4.455295   3.649782   2.359772   2.525724
    36  H    4.623391   5.916249   6.149589   5.107671   3.991512
    37  H    3.894352   5.074795   6.132208   5.772699   4.458360
    38  H    6.226353   6.738981   8.180066   8.443024   7.399836
    39  H    3.242635   2.242207   1.031996   2.091550   3.166719
    40  H    3.211800   3.237968   2.078075   1.031999   2.110934
                   31         32         33         34         35
    31  H    0.000000
    32  H    2.545642   0.000000
    33  H    4.220915   2.729795   0.000000
    34  H    5.091142   4.009609   2.027000   0.000000
    35  H    7.134667   6.406470   4.376048   2.450816   0.000000
    36  H    6.301090   7.128316   5.982314   4.721229   4.121039
    37  H    9.999548  10.813931   9.390191   7.874750   6.276249
    38  H   13.988798  14.789778  13.363795  11.687777   9.744582
    39  H   11.277275  10.404972   8.407777   6.535540   4.253025
    40  H    8.821520   7.947645   5.932721   4.033387   1.770638
                   36         37         38         39         40
    36  H    0.000000
    37  H    3.732452   0.000000
    38  H    7.789387   4.133311   0.000000
    39  H    7.123475   7.135648   8.954240   0.000000
    40  H    5.316443   6.544675   9.424003   2.512272   0.000000
 Stoichiometry    C20H12N4S2SeSi
 Framework group  C1[X(C20H12N4S2SeSi)]
 Deg. of freedom   114
 Full point group                 C1      NOp   1
 Largest Abelian subgroup         C1      NOp   1
 Largest concise Abelian subgroup C1      NOp   1
                         Standard orientation:                         
 ---------------------------------------------------------------------
 Center     Atomic      Atomic             Coordinates (Angstroms)
 Number     Number       Type             X           Y           Z
 ---------------------------------------------------------------------
      1         14           0        6.634794    1.320422    0.034018
      2          1           0        5.599697    1.953709    0.771532
      3          1           0        7.218738    2.235025   -0.881898
      4          6           0        7.576207    0.894043    0.891424
      5          6           0        7.687275   -0.419226    0.781809
      6          6           0        6.703811   -0.825433   -0.255494
      7          6           0        6.109786    0.289282   -0.647398
      8          6           0        4.655540    0.201154   -0.375884
      9          6           0        4.035646   -1.053936   -0.121636
     10          6           0        2.634103   -1.144316   -0.129468
     11          6           0        1.912101   -0.063096   -0.094293
     12          6           0        2.530590    1.192968   -0.037789
     13          7           0        3.910849    1.307251   -0.333199
     14          6           0        0.471298   -0.157196   -0.113484
     15         16           0       -0.325482    0.851082   -0.144556
     16          6           0       -1.583136    0.437043   -0.124925
     17          6           0       -2.762336    1.270118   -0.149603
     18          6           0       -2.547858    2.602505   -0.226489
     19          7           0       -3.566286    3.496466   -0.123156
     20          6           0       -4.844506    3.095433    0.049429
     21          6           0       -5.131939    1.716836    0.132026
     22          7           0       -6.238915    0.993810    0.294854
     23         16           0       -5.910205   -0.289702    0.297600
     24          7           0       -4.610310   -0.433372    0.138597
     25          6           0       -4.059895    0.786534    0.029201
     26          6           0       -1.553044   -0.933609   -0.076715
     27         34           0       -2.276627   -2.067281   -0.041095
     28          6           0       -1.300585   -3.164816   -0.000564
     29          6           0       -0.113079   -2.621327   -0.025410
     30          6           0       -0.222030   -1.284416   -0.071191
     31          1           0        8.122785    1.492363    1.530394
     32          1           0        8.325883   -1.035450    1.308560
     33          1           0        6.521720   -1.781224   -0.599475
     34          1           0        4.610439   -1.890086    0.066772
     35          1           0        2.176996   -2.068957   -0.163143
     36          1           0        1.983452    2.029888    0.217613
     37          1           0       -1.586280    2.949748   -0.367247
     38          1           0       -5.603622    3.790957    0.120189
     39          1           0       -1.513021   -4.173900    0.039877
     40          1           0        0.777344   -3.142849   -0.011851
 ---------------------------------------------------------------------
 Rotational constants (GHZ):      0.3872770      0.0597692      0.0522000
 Standard basis: 6-31++G(d,p) (6D, 7F)
 There are   631 symmetry adapted basis functions of A   symmetry.
 Integral buffers will be    131072 words long.
 Raffenetti 2 integral format.
 Two-electron integral symmetry is turned on.
   631 basis functions,  1119 primitive gaussians,   631 cartesian basis functions
   120 alpha electrons      120 beta electrons
       nuclear repulsion energy      3606.4672636861 Hartrees.
 NAtoms=   40 NActive=   40 NUniq=   40 SFac= 1.00D+00 NAtFMM=   60 NAOKFM=F Big=F
 One-electron integrals computed using PRISM.
 NBasis=   631 RedAO= T  NBF=   631
 NBsUse=   622 1.00D-06 NBFU=   622
 Harris functional with IExCor=  402 diagonalized for initial guess.
 ExpMin= 3.00D-02 ExpMax= 5.61D+05 ExpMxC= 5.42D+03 IAcc=3 IRadAn=         5 AccDes= 0.00D+00
 HarFok:  IExCor=  402 AccDes= 0.00D+00 IRadAn=         5 IDoV= 1
 ScaDFX=  1.000000  1.000000  1.000000  1.000000
 FoFCou: FMM=F IPFlag=           0 FMFlag=      100000 FMFlg1=           0
         NFxFlg=           0 DoJE=T BraDBF=F KetDBF=T FulRan=T
         Omega=  0.000000  0.000000  1.000000  0.000000  0.000000 ICntrl=     500 IOpCl=  0
         NMat0=    1 NMatS0=    1 NMatT0=    0 NMatD0=    1 NMtDS0=    0 NMtDT0=    0
         I1Cent=           4 NGrid=           0.
 Petite list used in FoFCou.
 Initial guess orbital symmetries:
       Occupied  (A) (A) (A) (A) (A) (A) (A) (A) (A) (A) (A) (A)
                 (A) (A) (A) (A) (A) (A) (A) (A) (A) (A) (A) (A)
                 (A) (A) (A) (A) (A) (A) (A) (A) (A) (A) (A) (A)
                 (A) (A) (A) (A) (A) (A) (A) (A) (A) (A) (A) (A)
                 (A) (A) (A) (A) (A) (A) (A) (A) (A) (A) (A) (A)
                 (A) (A) (A) (A) (A) (A) (A) (A) (A) (A) (A) (A)
                 (A) (A) (A) (A) (A) (A) (A) (A) (A) (A) (A) (A)
                 (A) (A) (A) (A) (A) (A) (A) (A) (A) (A) (A) (A)
                 (A) (A) (A) (A) (A) (A) (A) (A) (A) (A) (A) (A)
                 (A) (A) (A) (A) (A) (A) (A) (A) (A) (A) (A) (A)
       Virtual   (A) (A) (A) (A) (A) (A) (A) (A) (A) (A) (A) (A)
                 (A) (A) (A) (A) (A) (A) (A) (A) (A) (A) (A) (A)
                 (A) (A) (A) (A) (A) (A) (A) (A) (A) (A) (A) (A)
                 (A) (A) (A) (A) (A) (A) (A) (A) (A) (A) (A) (A)
                 (A) (A) (A) (A) (A) (A) (A) (A) (A) (A) (A) (A)
                 (A) (A) (A) (A) (A) (A) (A) (A) (A) (A) (A) (A)
                 (A) (A) (A) (A) (A) (A) (A) (A) (A) (A) (A) (A)
                 (A) (A) (A) (A) (A) (A) (A) (A) (A) (A) (A) (A)
                 (A) (A) (A) (A) (A) (A) (A) (A) (A) (A) (A) (A)
                 (A) (A) (A) (A) (A) (A) (A) (A) (A) (A) (A) (A)
                 (A) (A) (A) (A) (A) (A) (A) (A) (A) (A) (A) (A)
                 (A) (A) (A) (A) (A) (A) (A) (A) (A) (A) (A) (A)
                 (A) (A) (A) (A) (A) (A) (A) (A) (A) (A) (A) (A)
                 (A) (A) (A) (A) (A) (A) (A) (A) (A) (A) (A) (A)
                 (A) (A) (A) (A) (A) (A) (A) (A) (A) (A) (A) (A)
                 (A) (A) (A) (A) (A) (A) (A) (A) (A) (A) (A) (A)
                 (A) (A) (A) (A) (A) (A) (A) (A) (A) (A) (A) (A)
                 (A) (A) (A) (A) (A) (A) (A) (A) (A) (A) (A) (A)
                 (A) (A) (A) (A) (A) (A) (A) (A) (A) (A) (A) (A)
                 (A) (A) (A) (A) (A) (A) (A) (A) (A) (A) (A) (A)
                 (A) (A) (A) (A) (A) (A) (A) (A) (A) (A) (A) (A)
                 (A) (A) (A) (A) (A) (A) (A) (A) (A) (A) (A) (A)
                 (A) (A) (A) (A) (A) (A) (A) (A) (A) (A) (A) (A)
                 (A) (A) (A) (A) (A) (A) (A) (A) (A) (A) (A) (A)
                 (A) (A) (A) (A) (A) (A) (A) (A) (A) (A) (A) (A)
                 (A) (A) (A) (A) (A) (A) (A) (A) (A) (A) (A) (A)
                 (A) (A) (A) (A) (A) (A) (A) (A) (A) (A) (A) (A)
                 (A) (A) (A) (A) (A) (A) (A) (A) (A) (A) (A) (A)
                 (A) (A) (A) (A) (A) (A) (A) (A) (A) (A) (A) (A)
                 (A) (A) (A) (A) (A) (A) (A) (A) (A) (A) (A) (A)
                 (A) (A) (A) (A) (A) (A) (A) (A) (A) (A) (A) (A)
                 (A) (A) (A) (A) (A) (A) (A) (A) (A) (A) (A) (A)
                 (A) (A) (A) (A) (A) (A) (A) (A) (A) (A) (A) (A)
                 (A) (A) (A) (A) (A) (A) (A) (A) (A) (A) (A) (A)
                 (A) (A) (A) (A) (A) (A) (A) (A) (A) (A) (A) (A)
                 (A) (A) (A) (A) (A) (A) (A) (A) (A) (A) (A) (A)
                 (A) (A) (A) (A) (A) (A) (A) (A) (A) (A) (A) (A)
                 (A) (A) (A) (A) (A) (A) (A) (A) (A) (A) (A) (A)
                 (A) (A) (A) (A) (A) (A) (A) (A) (A) (A) (A) (A)
                 (A) (A) (A) (A) (A) (A) (A) (A) (A) (A) (A) (A)
                 (A) (A) (A) (A) (A) (A) (A) (A) (A) (A) (A) (A)
                 (A) (A) (A) (A) (A) (A) (A) (A) (A) (A)
 The electronic state of the initial guess is 1-A.
 Requested convergence on RMS density matrix=1.00D-08 within 128 cycles.
 Requested convergence on MAX density matrix=1.00D-06.
 Requested convergence on             energy=1.00D-06.
 No special actions if energy rises.
 EnCoef did     5 forward-backward iterations
 SCF Done:  E(RB3LYP) =  -4471.93571878     A.U. after   19 cycles
             Convg  =    0.8569D-08             -V/T =  2.0016

 **********************************************************************

            Population analysis using the SCF density.

 **********************************************************************

 Orbital symmetries:
       Occupied  (A) (A) (A) (A) (A) (A) (A) (A) (A) (A) (A) (A)
                 (A) (A) (A) (A) (A) (A) (A) (A) (A) (A) (A) (A)
                 (A) (A) (A) (A) (A) (A) (A) (A) (A) (A) (A) (A)
                 (A) (A) (A) (A) (A) (A) (A) (A) (A) (A) (A) (A)
                 (A) (A) (A) (A) (A) (A) (A) (A) (A) (A) (A) (A)
                 (A) (A) (A) (A) (A) (A) (A) (A) (A) (A) (A) (A)
                 (A) (A) (A) (A) (A) (A) (A) (A) (A) (A) (A) (A)
                 (A) (A) (A) (A) (A) (A) (A) (A) (A) (A) (A) (A)
                 (A) (A) (A) (A) (A) (A) (A) (A) (A) (A) (A) (A)
                 (A) (A) (A) (A) (A) (A) (A) (A) (A) (A) (A) (A)
       Virtual   (A) (A) (A) (A) (A) (A) (A) (A) (A) (A) (A) (A)
                 (A) (A) (A) (A) (A) (A) (A) (A) (A) (A) (A) (A)
                 (A) (A) (A) (A) (A) (A) (A) (A) (A) (A) (A) (A)
                 (A) (A) (A) (A) (A) (A) (A) (A) (A) (A) (A) (A)
                 (A) (A) (A) (A) (A) (A) (A) (A) (A) (A) (A) (A)
                 (A) (A) (A) (A) (A) (A) (A) (A) (A) (A) (A) (A)
                 (A) (A) (A) (A) (A) (A) (A) (A) (A) (A) (A) (A)
                 (A) (A) (A) (A) (A) (A) (A) (A) (A) (A) (A) (A)
                 (A) (A) (A) (A) (A) (A) (A) (A) (A) (A) (A) (A)
                 (A) (A) (A) (A) (A) (A) (A) (A) (A) (A) (A) (A)
                 (A) (A) (A) (A) (A) (A) (A) (A) (A) (A) (A) (A)
                 (A) (A) (A) (A) (A) (A) (A) (A) (A) (A) (A) (A)
                 (A) (A) (A) (A) (A) (A) (A) (A) (A) (A) (A) (A)
                 (A) (A) (A) (A) (A) (A) (A) (A) (A) (A) (A) (A)
                 (A) (A) (A) (A) (A) (A) (A) (A) (A) (A) (A) (A)
                 (A) (A) (A) (A) (A) (A) (A) (A) (A) (A) (A) (A)
                 (A) (A) (A) (A) (A) (A) (A) (A) (A) (A) (A) (A)
                 (A) (A) (A) (A) (A) (A) (A) (A) (A) (A) (A) (A)
                 (A) (A) (A) (A) (A) (A) (A) (A) (A) (A) (A) (A)
                 (A) (A) (A) (A) (A) (A) (A) (A) (A) (A) (A) (A)
                 (A) (A) (A) (A) (A) (A) (A) (A) (A) (A) (A) (A)
                 (A) (A) (A) (A) (A) (A) (A) (A) (A) (A) (A) (A)
                 (A) (A) (A) (A) (A) (A) (A) (A) (A) (A) (A) (A)
                 (A) (A) (A) (A) (A) (A) (A) (A) (A) (A) (A) (A)
                 (A) (A) (A) (A) (A) (A) (A) (A) (A) (A) (A) (A)
                 (A) (A) (A) (A) (A) (A) (A) (A) (A) (A) (A) (A)
                 (A) (A) (A) (A) (A) (A) (A) (A) (A) (A) (A) (A)
                 (A) (A) (A) (A) (A) (A) (A) (A) (A) (A) (A) (A)
                 (A) (A) (A) (A) (A) (A) (A) (A) (A) (A) (A) (A)
                 (A) (A) (A) (A) (A) (A) (A) (A) (A) (A) (A) (A)
                 (A) (A) (A) (A) (A) (A) (A) (A) (A) (A) (A) (A)
                 (A) (A) (A) (A) (A) (A) (A) (A) (A) (A) (A) (A)
                 (A) (A) (A) (A) (A) (A) (A) (A) (A) (A) (A) (A)
                 (A) (A) (A) (A) (A) (A) (A) (A) (A) (A) (A) (A)
                 (A) (A) (A) (A) (A) (A) (A) (A) (A) (A) (A) (A)
                 (A) (A) (A) (A) (A) (A) (A) (A) (A) (A) (A) (A)
                 (A) (A) (A) (A) (A) (A) (A) (A) (A) (A) (A) (A)
                 (A) (A) (A) (A) (A) (A) (A) (A) (A) (A) (A) (A)
                 (A) (A) (A) (A) (A) (A) (A) (A) (A) (A) (A) (A)
                 (A) (A) (A) (A) (A) (A) (A) (A) (A) (A) (A) (A)
                 (A) (A) (A) (A) (A) (A) (A) (A) (A) (A) (A) (A)
                 (A) (A) (A) (A) (A) (A) (A) (A) (A) (A)
 The electronic state is 1-A.
 Alpha  occ. eigenvalues -- -453.88831 -88.97436 -88.88831 -65.98149 -57.49498
 Alpha  occ. eigenvalues --  -52.16568 -52.16391 -52.16233 -14.35272 -14.35253
 Alpha  occ. eigenvalues --  -14.35243 -14.33964 -10.25917 -10.25299 -10.24789
 Alpha  occ. eigenvalues --  -10.23941 -10.23168 -10.23147 -10.22957 -10.22797
 Alpha  occ. eigenvalues --  -10.22091 -10.20835 -10.20088 -10.19729 -10.19613
 Alpha  occ. eigenvalues --  -10.19296 -10.18878 -10.18561 -10.17941 -10.17810
 Alpha  occ. eigenvalues --  -10.13435 -10.13430  -8.04830  -7.98871  -7.75651
 Alpha  occ. eigenvalues --   -6.01254  -6.00621  -6.00425  -5.95079  -5.94413
 Alpha  occ. eigenvalues --   -5.94315  -5.79967  -5.79175  -5.78904  -5.20212
 Alpha  occ. eigenvalues --   -3.56048  -3.55823  -3.55066  -2.16431  -2.15678
 Alpha  occ. eigenvalues --   -2.15126  -2.14686  -2.14515  -1.17358  -1.07421
 Alpha  occ. eigenvalues --   -1.00231  -0.97476  -0.95467  -0.94983  -0.91281
 Alpha  occ. eigenvalues --   -0.87210  -0.84138  -0.82233  -0.79933  -0.79269
 Alpha  occ. eigenvalues --   -0.77626  -0.76437  -0.73070  -0.69802  -0.68774
 Alpha  occ. eigenvalues --   -0.68481  -0.66300  -0.64737  -0.62853  -0.61264
 Alpha  occ. eigenvalues --   -0.60716  -0.57868  -0.57043  -0.56747  -0.55386
 Alpha  occ. eigenvalues --   -0.54714  -0.54480  -0.53119  -0.52738  -0.51124
 Alpha  occ. eigenvalues --   -0.49731  -0.49058  -0.48179  -0.47340  -0.47048
 Alpha  occ. eigenvalues --   -0.45883  -0.45366  -0.44791  -0.44307  -0.43311
 Alpha  occ. eigenvalues --   -0.42830  -0.41793  -0.40786  -0.39700  -0.39226
 Alpha  occ. eigenvalues --   -0.38962  -0.38254  -0.37144  -0.35250  -0.34435
 Alpha  occ. eigenvalues --   -0.33634  -0.33380  -0.33110  -0.31826  -0.30847
 Alpha  occ. eigenvalues --   -0.29986  -0.29515  -0.28452  -0.27689  -0.27450
 Alpha  occ. eigenvalues --   -0.26559  -0.25663  -0.24592  -0.23473  -0.20149
 Alpha virt. eigenvalues --   -0.09850  -0.07345  -0.05340  -0.03602  -0.01852
 Alpha virt. eigenvalues --   -0.01679  -0.01012  -0.00191  -0.00028   0.00324
 Alpha virt. eigenvalues --    0.00698   0.00866   0.01356   0.01658   0.02056
 Alpha virt. eigenvalues --    0.02337   0.02483   0.02790   0.03050   0.03542
 Alpha virt. eigenvalues --    0.03727   0.04173   0.04483   0.04611   0.04829
 Alpha virt. eigenvalues --    0.05185   0.05420   0.05900   0.06236   0.06599
 Alpha virt. eigenvalues --    0.07053   0.07745   0.07844   0.08176   0.08565
 Alpha virt. eigenvalues --    0.08765   0.08902   0.09079   0.09272   0.09665
 Alpha virt. eigenvalues --    0.09862   0.10169   0.10266   0.10367   0.11049
 Alpha virt. eigenvalues --    0.11274   0.11466   0.11686   0.11915   0.12059
 Alpha virt. eigenvalues --    0.12148   0.12391   0.12685   0.12840   0.12978
 Alpha virt. eigenvalues --    0.13011   0.13257   0.13447   0.13698   0.13829
 Alpha virt. eigenvalues --    0.14063   0.14415   0.14534   0.14717   0.15030
 Alpha virt. eigenvalues --    0.15252   0.15340   0.15485   0.16005   0.16325
 Alpha virt. eigenvalues --    0.16444   0.16580   0.16772   0.17159   0.17254
 Alpha virt. eigenvalues --    0.17382   0.17467   0.17869   0.18054   0.18270
 Alpha virt. eigenvalues --    0.18401   0.18622   0.18704   0.19207   0.19534
 Alpha virt. eigenvalues --    0.19614   0.20042   0.20078   0.20737   0.20927
 Alpha virt. eigenvalues --    0.21484   0.21644   0.22194   0.22348   0.22469
 Alpha virt. eigenvalues --    0.22868   0.23067   0.23263   0.23282   0.23439
 Alpha virt. eigenvalues --    0.23694   0.23750   0.24037   0.24316   0.24725
 Alpha virt. eigenvalues --    0.25028   0.25198   0.25306   0.25739   0.26069
 Alpha virt. eigenvalues --    0.26373   0.26526   0.26917   0.27198   0.27880
 Alpha virt. eigenvalues --    0.28316   0.28545   0.28647   0.29092   0.29330
 Alpha virt. eigenvalues --    0.29579   0.29936   0.30214   0.30854   0.30975
 Alpha virt. eigenvalues --    0.31291   0.31501   0.31925   0.32083   0.32245
 Alpha virt. eigenvalues --    0.32617   0.33147   0.33755   0.33863   0.33969
 Alpha virt. eigenvalues --    0.34385   0.34757   0.35127   0.35454   0.35916
 Alpha virt. eigenvalues --    0.36028   0.36264   0.36595   0.37401   0.37720
 Alpha virt. eigenvalues --    0.38303   0.38450   0.38941   0.39457   0.39865
 Alpha virt. eigenvalues --    0.40360   0.40995   0.41081   0.41625   0.42321
 Alpha virt. eigenvalues --    0.42548   0.43569   0.44026   0.44567   0.44591
 Alpha virt. eigenvalues --    0.44906   0.45878   0.47286   0.48595   0.49122
 Alpha virt. eigenvalues --    0.49407   0.49663   0.50870   0.52145   0.53406
 Alpha virt. eigenvalues --    0.53896   0.55075   0.56026   0.56966   0.58294
 Alpha virt. eigenvalues --    0.59365   0.59935   0.60402   0.61376   0.61679
 Alpha virt. eigenvalues --    0.63371   0.65092   0.65730   0.66085   0.66881
 Alpha virt. eigenvalues --    0.67116   0.67892   0.68776   0.68907   0.69944
 Alpha virt. eigenvalues --    0.70048   0.70469   0.70695   0.71530   0.71732
 Alpha virt. eigenvalues --    0.72119   0.72737   0.73080   0.73533   0.74089
 Alpha virt. eigenvalues --    0.74538   0.74939   0.75212   0.75818   0.76219
 Alpha virt. eigenvalues --    0.76434   0.76735   0.77361   0.78083   0.78411
 Alpha virt. eigenvalues --    0.79114   0.79747   0.80518   0.80758   0.81534
 Alpha virt. eigenvalues --    0.81780   0.82187   0.82665   0.83246   0.83474
 Alpha virt. eigenvalues --    0.83980   0.84655   0.85306   0.86093   0.86443
 Alpha virt. eigenvalues --    0.86640   0.86764   0.87410   0.88121   0.88750
 Alpha virt. eigenvalues --    0.89740   0.90039   0.90992   0.91903   0.92823
 Alpha virt. eigenvalues --    0.93207   0.93582   0.94261   0.94618   0.95377
 Alpha virt. eigenvalues --    0.95954   0.96453   0.96506   0.97030   0.97602
 Alpha virt. eigenvalues --    0.98771   0.99038   1.00659   1.00931   1.02052
 Alpha virt. eigenvalues --    1.03410   1.04224   1.04744   1.05439   1.06763
 Alpha virt. eigenvalues --    1.07076   1.07617   1.09227   1.09812   1.10548
 Alpha virt. eigenvalues --    1.10887   1.11406   1.12986   1.13501   1.14258
 Alpha virt. eigenvalues --    1.14871   1.15687   1.17213   1.18166   1.18697
 Alpha virt. eigenvalues --    1.19558   1.20014   1.20932   1.21432   1.21607
 Alpha virt. eigenvalues --    1.23128   1.23402   1.23940   1.24301   1.25124
 Alpha virt. eigenvalues --    1.26150   1.26936   1.27950   1.28631   1.28878
 Alpha virt. eigenvalues --    1.29503   1.29600   1.30407   1.30911   1.31869
 Alpha virt. eigenvalues --    1.32420   1.32730   1.33418   1.33992   1.34623
 Alpha virt. eigenvalues --    1.35750   1.36629   1.36882   1.37374   1.38428
 Alpha virt. eigenvalues --    1.38884   1.39086   1.40073   1.40670   1.41444
 Alpha virt. eigenvalues --    1.44247   1.45621   1.46675   1.46839   1.47348
 Alpha virt. eigenvalues --    1.48128   1.49914   1.51356   1.53193   1.54687
 Alpha virt. eigenvalues --    1.56374   1.57969   1.59017   1.59695   1.61558
 Alpha virt. eigenvalues --    1.62860   1.63461   1.64185   1.64725   1.66187
 Alpha virt. eigenvalues --    1.67379   1.70326   1.71153   1.73640   1.75872
 Alpha virt. eigenvalues --    1.76715   1.77968   1.78404   1.79256   1.80694
 Alpha virt. eigenvalues --    1.81234   1.82211   1.82887   1.84324   1.85428
 Alpha virt. eigenvalues --    1.85586   1.86325   1.88195   1.89008   1.90262
 Alpha virt. eigenvalues --    1.91044   1.92092   1.93070   1.93610   1.94464
 Alpha virt. eigenvalues --    1.94585   1.94992   1.97054   1.98217   1.98722
 Alpha virt. eigenvalues --    1.99150   2.00864   2.02263   2.02987   2.03415
 Alpha virt. eigenvalues --    2.04704   2.05908   2.06353   2.07115   2.07999
 Alpha virt. eigenvalues --    2.08241   2.10427   2.10699   2.12565   2.13026
 Alpha virt. eigenvalues --    2.15598   2.17238   2.17527   2.19520   2.21082
 Alpha virt. eigenvalues --    2.22831   2.23243   2.23819   2.25006   2.27284
 Alpha virt. eigenvalues --    2.27964   2.28280   2.30375   2.31538   2.32050
 Alpha virt. eigenvalues --    2.32346   2.32525   2.33723   2.35135   2.35851
 Alpha virt. eigenvalues --    2.37423   2.38620   2.38924   2.40911   2.41719
 Alpha virt. eigenvalues --    2.42694   2.43696   2.44893   2.45822   2.46411
 Alpha virt. eigenvalues --    2.47976   2.49069   2.49478   2.51055   2.51302
 Alpha virt. eigenvalues --    2.52583   2.53520   2.55062   2.55393   2.58501
 Alpha virt. eigenvalues --    2.59119   2.59816   2.60743   2.60797   2.60973
 Alpha virt. eigenvalues --    2.62370   2.62820   2.63899   2.64991   2.65529
 Alpha virt. eigenvalues --    2.66829   2.67809   2.68887   2.69445   2.71333
 Alpha virt. eigenvalues --    2.72290   2.73451   2.73892   2.74437   2.74706
 Alpha virt. eigenvalues --    2.75991   2.76510   2.77778   2.78826   2.80466
 Alpha virt. eigenvalues --    2.81851   2.82472   2.82720   2.83876   2.84303
 Alpha virt. eigenvalues --    2.85120   2.86989   2.88090   2.90281   2.92800
 Alpha virt. eigenvalues --    2.94555   2.96105   2.96497   3.01373   3.03411
 Alpha virt. eigenvalues --    3.04831   3.08869   3.09869   3.10493   3.15877
 Alpha virt. eigenvalues --    3.18431   3.20447   3.22643   3.25606   3.31031
 Alpha virt. eigenvalues --    3.34041   3.35329   3.41062   3.43125   3.46083
 Alpha virt. eigenvalues --    3.49337   3.54891   3.56318   3.58857   3.59745
 Alpha virt. eigenvalues --    3.77954   3.86200   3.86742   3.88730   3.98864
 Alpha virt. eigenvalues --    4.09396   4.23894   4.27436   4.31303   4.32457
 Alpha virt. eigenvalues --    4.37762   4.39038   4.40051   4.40955   4.43370
 Alpha virt. eigenvalues --    4.44477   4.45135   4.45861   4.48818   4.52610
 Alpha virt. eigenvalues --    4.54536   4.57359   4.58517   4.63267   4.70247
 Alpha virt. eigenvalues --    4.73307   4.79236   4.81276   4.91731   4.98189
 Alpha virt. eigenvalues --    8.59423  84.99147
          Condensed to atoms (all electrons):
              1          2          3          4          5          6
     1  Si  13.822079   0.025466   0.424960  -0.862912  -0.082197  -0.048224
     2  H    0.025466   1.002023  -0.093120   0.158572   0.043854  -0.140276
     3  H    0.424960  -0.093120   0.845098  -0.067630  -0.087684  -0.027290
     4  C   -0.862912   0.158572  -0.067630   6.820417   0.038560   0.751859
     5  C   -0.082197   0.043854  -0.087684   0.038560   6.813050  -2.008853
     6  C   -0.048224  -0.140276  -0.027290   0.751859  -2.008853  10.273612
     7  C    1.120466  -0.045435  -0.049925  -1.250916   0.296911   0.682961
     8  C   -0.325974   0.044574   0.099901  -0.245551   0.549476  -0.992880
     9  C   -0.537456   0.306297  -0.035988   0.314171   0.389835  -1.311135
    10  C   -0.067695   0.021223  -0.009177   0.021808   0.157958  -0.631990
    11  C   -0.093414   0.032765   0.075800   0.143663  -0.034544  -1.160307
    12  C    0.088061  -0.190317  -0.021851  -0.056750   0.010020   0.433254
    13  N   -0.095126  -0.109341   0.032624   0.146002  -0.048909  -0.101491
    14  C   -0.012697   0.003075   0.003163   0.013883   0.021355  -0.162367
    15  S   -0.042218   0.033244  -0.002680   0.014766   0.004572  -0.068450
    16  C   -0.029296   0.022036  -0.000915   0.003289   0.001058  -0.008439
    17  C    0.000897  -0.001307  -0.000017   0.000099  -0.000112  -0.000409
    18  C   -0.000990   0.000705   0.000024   0.000187   0.000014   0.000443
    19  N    0.000001  -0.000003  -0.000000   0.000000   0.000000   0.000002
    20  C    0.000012   0.000006   0.000000  -0.000001   0.000001  -0.000003
    21  C   -0.000002   0.000030  -0.000003  -0.000003  -0.000000  -0.000069
    22  N   -0.000000   0.000000   0.000000  -0.000000   0.000000   0.000000
    23  S   -0.000001   0.000002   0.000000   0.000000  -0.000000  -0.000000
    24  N   -0.000002  -0.000001   0.000000  -0.000000   0.000000   0.000008
    25  C   -0.000340   0.000605  -0.000023  -0.000029   0.000021  -0.000902
    26  C   -0.004864   0.004745  -0.000564  -0.001094  -0.001018   0.011462
    27  Se  -0.001107   0.000337   0.000022   0.000346  -0.000416  -0.000187
    28  C   -0.000847   0.001320  -0.000335  -0.000887   0.001730   0.002056
    29  C    0.018468  -0.008693  -0.000636  -0.005688   0.010896  -0.008375
    30  C    0.021313  -0.012598   0.003800   0.005141  -0.018188  -0.023479
    31  H   -0.175850   0.022348  -0.012223   0.509329  -0.106390   0.052386
    32  H    0.025140  -0.002481  -0.002493  -0.084541   0.463447  -0.148300
    33  H    0.155171  -0.027466   0.016919  -0.086306  -0.259900   0.649545
    34  H   -0.147784   0.041403  -0.009586   0.064376   0.129900  -0.266674
    35  H    0.011554  -0.001332  -0.000504  -0.004039  -0.028079   0.110389
    36  H   -0.000982  -0.015896   0.000061  -0.005247  -0.004560   0.030217
    37  H   -0.000481   0.000639  -0.000058   0.000044   0.000131  -0.000176
    38  H    0.000000   0.000000  -0.000000  -0.000000  -0.000000  -0.000000
    39  H   -0.000199   0.000062  -0.000003   0.000032  -0.000073  -0.000118
    40  H    0.004860  -0.001744   0.000140  -0.001234   0.003804  -0.012910
              7          8          9         10         11         12
     1  Si   1.120466  -0.325974  -0.537456  -0.067695  -0.093414   0.088061
     2  H   -0.045435   0.044574   0.306297   0.021223   0.032765  -0.190317
     3  H   -0.049925   0.099901  -0.035988  -0.009177   0.075800  -0.021851
     4  C   -1.250916  -0.245551   0.314171   0.021808   0.143663  -0.056750
     5  C    0.296911   0.549476   0.389835   0.157958  -0.034544   0.010020
     6  C    0.682961  -0.992880  -1.311135  -0.631990  -1.160307   0.433254
     7  C   11.540387  -1.889439  -0.202572  -0.534345  -2.971541   0.286339
     8  C   -1.889439  13.590297  -0.308071  -0.730893  -3.049429   2.432575
     9  C   -0.202572  -0.308071  10.478541   0.164247  -0.716577  -2.337055
    10  C   -0.534345  -0.730893   0.164247   8.636417   0.231211  -0.642384
    11  C   -2.971541  -3.049429  -0.716577   0.231211  18.602122  -6.747448
    12  C    0.286339   2.432575  -2.337055  -0.642384  -6.747448  17.947565
    13  N   -0.601551   0.108355   0.034466  -0.129489   0.856625  -0.314938
    14  C   -0.211179  -1.571969  -1.140797  -0.337075  -0.329259  -0.039556
    15  S   -0.058459  -0.789163  -0.034007  -0.410451   0.374706  -2.122886
    16  C    0.094245  -0.038092   0.506485  -0.765227   1.758113  -1.844590
    17  C   -0.007642  -0.048571  -0.082471   0.061281  -0.262582   0.094528
    18  C   -0.009031  -0.021921  -0.019503  -0.097451  -0.342448   0.423036
    19  N   -0.000006   0.000153  -0.000007   0.000324   0.000563   0.000358
    20  C   -0.000004   0.000287  -0.000126  -0.008253   0.007877  -0.006212
    21  C    0.000847   0.002403   0.000138  -0.038347   0.034237  -0.084792
    22  N    0.000000   0.000018   0.000068   0.000540   0.002676   0.000305
    23  S   -0.000008   0.000008   0.000014   0.000790  -0.000292   0.003536
    24  N   -0.000041   0.000185   0.000890   0.005739   0.007587   0.007269
    25  C    0.008218   0.008670   0.022411  -0.211665   0.200793  -0.286934
    26  C    0.147543   0.309527   0.869503   0.940240  -0.119641  -2.272939
    27  Se  -0.001299  -0.033376  -0.049206  -0.111731  -0.213160  -0.176448
    28  C    0.061898   0.134548   0.607673  -0.478569   0.401407   0.007095
    29  C   -0.154579   0.022283  -1.112838  -1.368226   1.370963   3.348028
    30  C   -0.087035  -0.653585  -0.001325   2.062133  -1.566680  -3.150149
    31  H   -0.068839  -0.007643   0.029352   0.005245   0.022462  -0.009704
    32  H   -0.052307  -0.000967   0.029239   0.006412   0.003653  -0.002344
    33  H    0.066337  -0.083923  -0.084270  -0.114283  -0.080650   0.002447
    34  H   -0.265445  -0.566591   0.536069   0.264809   0.342666  -0.197658
    35  H    0.153995   0.487873   0.309443   0.289439  -0.673450   0.122642
    36  H    0.057403   0.109772  -0.080210   0.034401  -0.559156   1.021446
    37  H   -0.002010   0.003867   0.000530  -0.030250  -0.017766   0.043495
    38  H    0.000002   0.000003   0.000006   0.000033  -0.000090   0.000015
    39  H    0.001597  -0.002865   0.011723   0.076508  -0.129714  -0.043548
    40  H   -0.011865  -0.011394   0.003345  -0.194035   0.224804   0.148153
             13         14         15         16         17         18
     1  Si  -0.095126  -0.012697  -0.042218  -0.029296   0.000897  -0.000990
     2  H   -0.109341   0.003075   0.033244   0.022036  -0.001307   0.000705
     3  H    0.032624   0.003163  -0.002680  -0.000915  -0.000017   0.000024
     4  C    0.146002   0.013883   0.014766   0.003289   0.000099   0.000187
     5  C   -0.048909   0.021355   0.004572   0.001058  -0.000112   0.000014
     6  C   -0.101491  -0.162367  -0.068450  -0.008439  -0.000409   0.000443
     7  C   -0.601551  -0.211179  -0.058459   0.094245  -0.007642  -0.009031
     8  C    0.108355  -1.571969  -0.789163  -0.038092  -0.048571  -0.021921
     9  C    0.034466  -1.140797  -0.034007   0.506485  -0.082471  -0.019503
    10  C   -0.129489  -0.337075  -0.410451  -0.765227   0.061281  -0.097451
    11  C    0.856625  -0.329259   0.374706   1.758113  -0.262582  -0.342448
    12  C   -0.314938  -0.039556  -2.122886  -1.844590   0.094528   0.423036
    13  N    7.157308   0.100557   0.044368   0.037300   0.001329  -0.004212
    14  C    0.100557  22.575146  -0.380399  -7.283705   4.556969   1.689982
    15  S    0.044368  -0.380399  28.156003   0.206749   1.229648  -3.005822
    16  C    0.037300  -7.283705   0.206749  23.202970   3.060107  -2.117470
    17  C    0.001329   4.556969   1.229648   3.060107  20.880790  -6.252660
    18  C   -0.004212   1.689982  -3.005822  -2.117470  -6.252660  18.290194
    19  N    0.000017   0.016728   0.029299   0.053389   0.401891   0.036154
    20  C   -0.000013  -0.278199  -0.458142  -0.022843   0.753796  -2.129942
    21  C    0.000337  -2.022294  -0.973408  -7.493241 -13.000732  -1.395069
    22  N   -0.000001  -0.024625   0.016715   0.093590   0.574612   0.077499
    23  S   -0.000014   0.016346   0.078283  -0.239215  -0.156892   0.463241
    24  N   -0.000012   0.136543  -0.066876  -0.428135  -0.976970   0.184022
    25  C    0.002460  -4.445503  -1.062462   0.867830  -1.103273   2.043102
    26  C    0.013280  -9.212385  -1.337371   3.934072  -3.219647  -2.568646
    27  Se  -0.000680  -0.142664  -0.633827  -0.766177  -0.533388  -0.025186
    28  C    0.005069  -2.931567   0.122706   0.600643  -1.618623  -0.367219
    29  C   -0.006155   5.159571  -0.537032  -4.628247   2.099166   0.201936
    30  C    0.007643   2.557298  -0.882191  -2.924922   0.368295  -0.276922
    31  H    0.016390   0.001758   0.001262   0.000292  -0.000002   0.000016
    32  H    0.003769   0.000695  -0.000020  -0.000005  -0.000001   0.000004
    33  H   -0.013512  -0.028789  -0.012818  -0.003512  -0.000057  -0.000118
    34  H    0.012254   0.240504   0.105330   0.047869  -0.001357   0.000710
    35  H   -0.015351  -0.605050  -0.241321  -0.047743   0.023325   0.001234
    36  H   -0.127451  -0.087002  -0.046245  -0.093038   0.023677  -0.005805
    37  H    0.001384   0.041800  -0.201013  -0.242113  -0.759911   1.312571
    38  H   -0.000004  -0.002414  -0.009205  -0.010741  -0.014880  -0.007210
    39  H    0.000040  -0.087261  -0.024504   0.126627  -0.056029  -0.009478
    40  H    0.002400  -0.017628  -0.055260  -0.109318  -0.003562  -0.003563
             19         20         21         22         23         24
     1  Si   0.000001   0.000012  -0.000002  -0.000000  -0.000001  -0.000002
     2  H   -0.000003   0.000006   0.000030   0.000000   0.000002  -0.000001
     3  H   -0.000000   0.000000  -0.000003   0.000000   0.000000   0.000000
     4  C    0.000000  -0.000001  -0.000003  -0.000000   0.000000  -0.000000
     5  C    0.000000   0.000001  -0.000000   0.000000  -0.000000   0.000000
     6  C    0.000002  -0.000003  -0.000069   0.000000  -0.000000   0.000008
     7  C   -0.000006  -0.000004   0.000847   0.000000  -0.000008  -0.000041
     8  C    0.000153   0.000287   0.002403   0.000018   0.000008   0.000185
     9  C   -0.000007  -0.000126   0.000138   0.000068   0.000014   0.000890
    10  C    0.000324  -0.008253  -0.038347   0.000540   0.000790   0.005739
    11  C    0.000563   0.007877   0.034237   0.002676  -0.000292   0.007587
    12  C    0.000358  -0.006212  -0.084792   0.000305   0.003536   0.007269
    13  N    0.000017  -0.000013   0.000337  -0.000001  -0.000014  -0.000012
    14  C    0.016728  -0.278199  -2.022294  -0.024625   0.016346   0.136543
    15  S    0.029299  -0.458142  -0.973408   0.016715   0.078283  -0.066876
    16  C    0.053389  -0.022843  -7.493241   0.093590  -0.239215  -0.428135
    17  C    0.401891   0.753796 -13.000732   0.574612  -0.156892  -0.976970
    18  C    0.036154  -2.129942  -1.395069   0.077499   0.463241   0.184022
    19  N    6.766587  -0.037291   0.230031   0.004839   0.008504  -0.009763
    20  C   -0.037291  13.760432  -2.720966  -0.555132  -0.485258   0.404466
    21  C    0.230031  -2.720966  44.802208  -1.372379  -0.290941   2.649086
    22  N    0.004839  -0.555132  -1.372379   7.840364  -0.160602  -0.613228
    23  S    0.008504  -0.485258  -0.290941  -0.160602  16.773674  -0.440196
    24  N   -0.009763   0.404466   2.649086  -0.613228  -0.440196   9.001992
    25  C   -0.032746  -3.321523 -15.850095   1.470876  -0.151064  -2.623665
    26  C   -0.015466   0.751339   2.594244  -0.047298  -0.090324   0.138896
    27  Se  -0.002259  -0.007525   0.691005   0.009097  -0.118367  -0.048343
    28  C   -0.002222  -0.000946   0.743645   0.010155  -0.049552  -0.115463
    29  C    0.001741   0.010495  -0.756568  -0.015962  -0.016564   0.125972
    30  C    0.004706   0.022975   0.247037  -0.014809  -0.034342   0.052979
    31  H    0.000000   0.000000  -0.000000  -0.000000   0.000000  -0.000000
    32  H    0.000000   0.000000  -0.000000   0.000000   0.000000   0.000000
    33  H    0.000000  -0.000000  -0.000002   0.000000  -0.000001   0.000001
    34  H   -0.000003   0.000028   0.000261   0.000000   0.000011  -0.000080
    35  H    0.000099  -0.002160  -0.006258   0.000029   0.000985   0.001837
    36  H    0.000087  -0.006323  -0.006097  -0.000004   0.000296   0.000762
    37  H   -0.159301   0.100058  -0.033558   0.002589   0.007302   0.003850
    38  H   -0.133858   0.786093  -0.382264  -0.000137  -0.016283  -0.003195
    39  H   -0.000080  -0.001696   0.022467   0.000921   0.003461  -0.014078
    40  H   -0.000082   0.002085   0.003194  -0.000213  -0.004583   0.002327
             25         26         27         28         29         30
     1  Si  -0.000340  -0.004864  -0.001107  -0.000847   0.018468   0.021313
     2  H    0.000605   0.004745   0.000337   0.001320  -0.008693  -0.012598
     3  H   -0.000023  -0.000564   0.000022  -0.000335  -0.000636   0.003800
     4  C   -0.000029  -0.001094   0.000346  -0.000887  -0.005688   0.005141
     5  C    0.000021  -0.001018  -0.000416   0.001730   0.010896  -0.018188
     6  C   -0.000902   0.011462  -0.000187   0.002056  -0.008375  -0.023479
     7  C    0.008218   0.147543  -0.001299   0.061898  -0.154579  -0.087035
     8  C    0.008670   0.309527  -0.033376   0.134548   0.022283  -0.653585
     9  C    0.022411   0.869503  -0.049206   0.607673  -1.112838  -0.001325
    10  C   -0.211665   0.940240  -0.111731  -0.478569  -1.368226   2.062133
    11  C    0.200793  -0.119641  -0.213160   0.401407   1.370963  -1.566680
    12  C   -0.286934  -2.272939  -0.176448   0.007095   3.348028  -3.150149
    13  N    0.002460   0.013280  -0.000680   0.005069  -0.006155   0.007643
    14  C   -4.445503  -9.212385  -0.142664  -2.931567   5.159571   2.557298
    15  S   -1.062462  -1.337371  -0.633827   0.122706  -0.537032  -0.882191
    16  C    0.867830   3.934072  -0.766177   0.600643  -4.628247  -2.924922
    17  C   -1.103273  -3.219647  -0.533388  -1.618623   2.099166   0.368295
    18  C    2.043102  -2.568646  -0.025186  -0.367219   0.201936  -0.276922
    19  N   -0.032746  -0.015466  -0.002259  -0.002222   0.001741   0.004706
    20  C   -3.321523   0.751339  -0.007525  -0.000946   0.010495   0.022975
    21  C  -15.850095   2.594244   0.691005   0.743645  -0.756568   0.247037
    22  N    1.470876  -0.047298   0.009097   0.010155  -0.015962  -0.014809
    23  S   -0.151064  -0.090324  -0.118367  -0.049552  -0.016564  -0.034342
    24  N   -2.623665   0.138896  -0.048343  -0.115463   0.125972   0.052979
    25  C   28.040647   2.808945   0.645632   1.669016  -2.655102   0.050370
    26  C    2.808945  17.478830   1.014219   0.973706  -6.904154  -0.199103
    27  Se   0.645632   1.014219  34.837331   0.416641  -0.584063   0.081178
[...]
 9668,0.00054192,-0.00000950,-0.00001974,-0.00009403,-0.00001659,0.0000
 3598,0.00008175,0.00001557,-0.00004068,-0.00003350,-0.00001625,0.00000
 771,-0.00000691,0.00003369,0.00000729,0.00000881,0.00001110,-0.0000146
 9,-0.00000963,-0.00001056,-0.00000184,0.00000418,0.00001610,0.00000476
 ,0.00000531,-0.00005125,-0.00001823,-0.00000975,0.00032672,-0.00016710
 ,-0.00011448,-0.00006952,0.00007067,-0.00006955,0.00001947,-0.00001449
 ,-0.00002648,0.00003231,0.00007257,0.00006451,-0.00031719,-0.00016513,
 0.00052859,0.00000120,-0.00000452,-0.00001833,0.00000844,-0.00000494,-
 0.00001892,-0.00002021,-0.00000405,-0.00001033,0.00043385,-0.00058312,
 0.00057788,0.00011802,-0.00072838,-0.00034935,0.05719366,0.24912886,-0
 .00030948,-0.00008860,0.00002021,0.00005451,0.00004112,0.00001801,0.00
 007231,0.00004618,-0.00002870,0.00010968,0.00002173,-0.00004026,-0.000
 05199,0.00000606,-0.00003725,0.00017275,0.00007875,-0.00016787,-0.0001
 3887,-0.00082462,-0.00001629,0.00518442,-0.00412792,0.00354851,0.00026
 393,0.00010417,-0.00069990,0.00309813,-0.00092479,0.00307861,0.0038228
 8,0.00333308,0.00683640,-0.02843666,-0.12117224,-0.12040104,0.00146893
 ,-0.01967363,-0.02101862,-0.00132701,0.00119575,-0.00022035,0.00029186
 ,-0.00013511,0.00012908,-0.00014762,-0.00001606,0.00027492,0.00001861,
 -0.00000247,0.00000493,-0.00003624,-0.00001478,-0.00000386,0.00003793,
 0.00000202,0.00000881,0.00000254,0.00000023,-0.00000395,-0.00000567,-0
 .00000555,0.00000329,0.00000646,-0.00000394,-0.00000717,-0.00000087,0.
 00000437,0.00000410,0.00000035,0.00001375,-0.00001758,0.00000558,-0.00
 001248,0.00001516,-0.00010515,0.00036024,-0.00001030,-0.00006101,0.000
 03839,0.00002918,0.00008671,0.00005078,-0.00008242,0.00000419,-0.00015
 442,0.00002081,0.00034866,0.00021320,-0.00035571,0.00001225,-0.0000157
 3,-0.00000732,0.00003439,-0.00000763,-0.00002299,-0.00000961,-0.000010
 00,0.00001733,-0.00076141,0.00049684,-0.00074727,0.00004763,0.00047383
 ,0.00014481,0.01624055,0.14069559,0.12974587,0.00002108,0.00001768,0.0
 0000860,-0.00000643,-0.00000351,-0.00000331,-0.00000444,-0.00000394,-0
 .00000186,-0.00001647,0.00000079,0.00000337,0.00000307,-0.00001105,-0.
 00000709,-0.00000380,0.00000363,-0.00000849,0.00000478,0.00001336,0.00
 000672,-0.00001514,-0.00006827,-0.00001532,0.00003856,-0.00001190,-0.0
 0001251,-0.00003166,0.00004188,0.00002815,0.00010612,-0.00002945,-0.00
 021170,0.00001308,-0.00005596,-0.00000303,-0.00000500,0.00003851,0.000
 07036,0.00006238,0.00007907,-0.00067260,0.00014033,0.00133896,0.001628
 10,-0.00141311,-0.00002778,-0.00107563,0.00010119,0.00012465,0.0064548
 1,-0.17895995,-0.04191530,0.14114822,-0.01205157,0.00627920,0.01096388
 ,0.00358749,0.00163136,0.00273787,0.00000021,0.00001393,-0.00022464,-0
 .00006155,-0.00001808,-0.00008574,-0.00070180,-0.00023196,-0.00063624,
 0.00035097,-0.00000454,0.00063364,0.00377688,-0.00071621,0.00288166,-0
 .00018088,-0.00010317,-0.00023953,-0.00001488,0.00008782,0.00011409,0.
 00003095,0.00009471,0.00001691,0.00012128,-0.00007763,-0.00005486,-0.0
 0019993,0.00034005,-0.00010189,-0.00000038,-0.00000082,0.00000237,-0.0
 0000139,0.00000100,0.00000271,0.00000221,-0.00000367,0.00000045,0.0000
 0017,0.00000132,0.00000193,-0.00000050,-0.00000172,0.00000365,-0.00000
 022,0.00005040,-0.00001245,0.18529051,0.00003048,0.00004619,-0.0000024
 9,-0.00000864,-0.00000929,-0.00000140,-0.00000608,-0.00001286,0.000001
 83,-0.00002661,-0.00000626,0.00001398,-0.00000112,-0.00002260,-0.00001
 264,-0.00000155,0.00000062,-0.00000735,0.00000547,0.00002736,0.0000241
 7,0.00004674,-0.00002429,-0.00002557,-0.00002671,-0.00000514,0.0000424
 7,-0.00006022,-0.00002612,0.00000856,0.00006483,0.00019612,-0.00005318
 ,0.00001979,-0.00002109,-0.00003156,-0.00003527,0.00001444,0.00006524,
 0.00017720,-0.00117340,-0.00014263,0.00153407,-0.00264889,-0.00153764,
 -0.00128577,0.00072923,0.00112997,-0.01968502,-0.00153470,0.02011593,-
 0.04263128,-0.06533427,0.04393739,0.02545875,-0.00132366,-0.02547125,0
 .00339875,-0.00266356,-0.00291882,0.00015416,-0.00103174,-0.00010527,0
 .00011347,0.00049505,-0.00014790,-0.00033670,-0.00023878,0.00028351,-0
 .00112437,0.00007459,0.00118100,0.00011314,-0.00516225,0.00046169,0.00
 000939,0.00053453,-0.00008880,-0.00010531,0.00024874,0.00010944,0.0000
 5821,0.00018743,-0.00007932,0.00009184,-0.00015369,-0.00008263,0.00024
 473,0.00035835,-0.00026478,-0.00000248,0.00000090,0.00000303,-0.000003
 98,0.00000333,0.00000405,0.00000135,-0.00000367,-0.00000363,-0.0000078
 2,0.00000764,0.00000711,0.00000129,-0.00000392,-0.00001036,0.00001466,
 0.00003076,-0.00001091,0.03321071,0.07828666,-0.00000592,-0.00000098,0
 .00002156,0.00000075,0.00000043,-0.00000443,0.00000101,0.00000174,-0.0
 0000447,0.00000375,0.00000391,-0.00000564,-0.00000086,0.00000247,0.000
 00206,0.00000349,-0.00000135,-0.00000018,-0.00000202,-0.00000458,-0.00
 001122,-0.00006858,-0.00003419,0.00000246,0.00004272,-0.00002275,-0.00
 005125,0.00002268,0.00006290,-0.00000033,-0.00004761,-0.00011109,-0.00
 007659,0.00001902,0.00006369,0.00005670,0.00003962,-0.00000083,0.00001
 323,-0.00079997,-0.00011799,0.00027749,0.00155281,-0.00136975,0.000173
 55,-0.00095366,-0.00023887,-0.00155117,0.00741633,0.00067268,-0.001014
 36,0.14113414,0.04279476,-0.18316491,0.00989537,-0.00607463,-0.0104531
 7,0.00266320,-0.00120830,0.00378582,-0.00022197,0.00002206,0.00003711,
 -0.00008756,-0.00000852,-0.00005199,-0.00063888,0.00015028,-0.00072744
 ,0.00066609,0.00006535,0.00030851,0.00289544,0.00131993,0.00372143,-0.
 00021240,0.00025524,-0.00014894,0.00007656,-0.00007897,-0.00002152,0.0
 0004730,-0.00010274,0.00001602,-0.00005947,0.00005063,0.00016529,0.000
 00290,-0.00034374,-0.00030270,0.00000139,-0.00000140,-0.00000082,0.000
 00096,-0.00000211,-0.00000131,-0.00000037,-0.00000066,0.00000226,0.000
 00891,-0.00000729,-0.00000274,-0.00000417,0.00000308,0.00000712,-0.000
 01869,-0.00002607,-0.00001856,-0.16388144,-0.03581760,0.18899178,0.000
 01004,0.00000872,0.00000216,-0.00000291,-0.00000192,-0.00000101,-0.000
 00213,-0.00000257,0.00000003,-0.00000675,-0.00000244,0.00000415,-0.000
 00138,-0.00000507,-0.00000584,0.00000590,-0.00000327,0.00000508,-0.000
 00579,0.00001266,-0.00000034,0.00000038,-0.00000357,-0.00001281,-0.000
 00604,-0.00000229,-0.00000145,-0.00000542,-0.00000642,0.00000077,0.000
 00731,-0.00000253,-0.00000904,0.00000994,-0.00000098,0.00000209,-0.000
 01015,0.00000806,0.00001676,0.00000894,-0.00004716,-0.00003062,0.00008
 573,-0.00003342,0.00005184,-0.00079781,0.00015883,-0.00098924,-0.00041
 776,0.00016926,0.00032469,0.00446054,0.00003688,0.00713205,-0.01802303
 ,0.01896626,0.01043328,-0.08492391,0.09173711,0.04370376,0.00823948,-0
 .00881570,-0.00193137,-0.00002504,0.00077098,-0.00149471,-0.00017802,0
 .00019117,-0.00052072,0.00028968,-0.00106781,0.00002531,0.00115677,-0.
 00112324,0.00333990,-0.00021162,-0.00000148,-0.00008433,0.00004601,0.0
 0008334,0.00013353,-0.00005072,0.00001707,-0.00008430,0.00001355,-0.00
 002289,-0.00000513,0.00010124,0.00005707,0.00007807,-0.00000072,0.0000
 0039,0.00000070,-0.00000076,0.00000080,0.00000162,-0.00000043,-0.00000
 007,-0.00000119,0.00000017,-0.00000045,0.00000323,-0.00000056,0.000001
 66,-0.00000174,0.00000361,0.00000308,-0.00000119,-0.00000971,0.0005815
 1,0.00051765,0.09021335,0.00000513,0.00001130,0.00000334,-0.00000154,-
 0.00000219,-0.00000099,-0.00000100,-0.00000312,0.,-0.00000477,-0.00000
 154,0.00000385,-0.00000119,-0.00000533,-0.00000308,0.00000135,-0.00000
 317,-0.00000151,-0.00000061,0.00001012,0.00000528,0.00000102,-0.000004
 46,-0.00000848,-0.00001135,-0.00000226,-0.00000040,-0.00000232,-0.0000
 1196,0.00000210,0.00000114,-0.00001306,-0.00000483,0.00000754,0.000016
 27,0.00000158,-0.00000536,0.00000267,0.00001418,0.00001797,0.00014308,
 -0.00003219,0.00009242,-0.00001459,-0.00009630,-0.00015607,0.00046816,
 0.00004271,-0.00026020,-0.00071703,0.00028012,-0.00154557,0.00296062,0
 .00203810,0.00142589,0.01048088,-0.00234658,0.09244901,-0.26872305,-0.
 07987634,0.01187305,-0.01804189,-0.01057382,0.00040056,0.00209368,-0.0
 0060300,-0.00002338,-0.00113676,0.00005632,0.00002907,-0.00155084,0.00
 009363,-0.00243506,-0.00102783,0.00271281,-0.00003212,-0.00031042,0.00
 004224,-0.00002126,0.00019140,0.00001105,-0.00001956,0.00003645,0.0000
 0267,0.00004156,-0.00000888,-0.00005258,-0.00008576,-0.00006992,0.0001
 2857,-0.00000083,0.00000025,0.00000029,-0.00000094,0.00000047,0.000000
 93,0.00000004,-0.00000009,-0.00000092,-0.00000084,0.00000058,0.0000020
 5,0.00000122,-0.00000025,0.00000036,0.,-0.00000085,-0.00000074,-0.0000
 8402,0.00014741,0.00010623,-0.10166811,0.27508882,-0.00000598,-0.00000
 769,0.00000241,0.00000162,0.00000164,-0.00000026,0.00000139,0.00000256
 ,-0.00000129,0.00000608,0.00000174,-0.00000496,-0.00000308,0.00000501,
 0.00000320,0.00000334,-0.00000066,0.00000394,-0.00000283,-0.00000592,-
 0.00000712,-0.00001345,-0.00000122,0.00000531,0.00001193,0.00000126,-0
 .00000811,0.00000032,0.00000933,-0.00000495,-0.00001978,-0.00002432,0.
 00002171,0.00000743,0.00000832,0.00000166,0.00000877,-0.00000052,-0.00
 000566,-0.00002975,0.00001257,0.00001029,0.00006853,0.00004319,0.00010
 711,-0.00097908,-0.00023884,-0.00079558,0.00033636,-0.00015465,-0.0004
 0155,0.00722156,0.00045151,0.00431149,0.01131584,-0.01998124,-0.016820
 94,0.04370421,-0.07909018,-0.07559938,-0.00305889,0.01016509,0.0082964
 8,-0.00147938,-0.00097592,0.00006695,-0.00051146,-0.00016458,-0.000159
 38,-0.00008149,0.00115206,0.00020056,0.00350247,0.00140389,0.00093329,
 -0.00011946,0.00001388,-0.00021053,0.00016756,-0.00007780,0.00005060,-
 0.00007447,-0.00002843,-0.00004570,-0.00000018,0.00002715,0.00002730,0
 .00007139,-0.00003925,0.00006251,0.00000102,-0.00000045,-0.00000042,0.
 00000113,-0.00000137,-0.00000113,-0.00000056,0.00000030,0.00000103,0.0
 0000136,-0.00000146,-0.00000259,0.00000070,0.00000068,0.00000230,-0.00
 000435,-0.00000255,-0.00000202,0.00055183,-0.00055907,0.00001337,-0.06
 061456,0.08806211,0.07993265,0.00001224,-0.00000344,0.00000582,-0.0000
 0274,0.00000031,-0.00000159,-0.00000262,0.00000067,-0.00000090,0.00000
 229,-0.00000546,0.00000520,-0.00001514,0.00000713,-0.00001180,0.000020
 34,-0.00001470,0.00002135,-0.00001148,0.00000446,0.00001009,0.00002989
 ,0.00006910,-0.00003292,-0.00008757,0.00001572,0.00002670,0.00005954,0
 .00003269,-0.00006881,0.00012211,-0.00002183,0.00014725,-0.00001746,0.
 00004968,-0.00001788,-0.00003236,-0.00002819,-0.00004731,0.00088780,-0
 .00047940,-0.00025512,-0.00062809,-0.00037330,-0.00062887,0.00169218,0
 .00013180,0.00050059,0.00018664,-0.00004129,0.00016637,-0.00001724,-0.
 00004260,0.00004687,0.00001374,0.00001713,-0.00004480,-0.00003410,-0.0
 0001431,-0.00001354,0.00005620,0.00002880,0.00015862,-0.00008041,0.000
 20773,0.00003266,0.00015019,0.00008498,-0.00012898,-0.00023914,0.00022
 179,0.00047577,-0.00041030,-0.00015199,-0.00038522,-0.00277297,0.00232
 075,0.00114209,0.00281285,0.00964790,-0.00413121,-0.04800653,-0.044659
 65,0.02627286,0.00279992,-0.01877443,0.00347836,0.00192412,-0.00008129
 ,0.00735975,-0.00000048,0.00000092,-0.00000037,0.00000102,-0.00000123,
 0.00000123,-0.00000464,0.00000042,-0.00000562,0.00001721,-0.00000801,0
 .00002611,0.00002839,0.00000104,-0.00002419,0.00000664,-0.00001822,0.0
 0001365,0.00002379,0.00001588,-0.00000647,0.00000627,0.00000687,-0.000
 00225,0.04366381,0.00000422,-0.00000528,0.00000222,-0.00000091,0.00000
 075,-0.00000055,-0.00000062,0.00000097,-0.00000030,0.00000052,-0.00000
 520,0.00000280,-0.00000457,0.00000071,-0.00000535,0.00000316,0.0000055
 6,0.00001495,0.00000765,0.00000548,-0.00000252,-0.00001398,0.00000930,
 -0.00000132,-0.00001136,0.00001251,0.00000229,-0.00001940,0.00001010,0
 .00000741,0.00006544,-0.00004458,0.00000409,-0.00003781,-0.00001258,0.
 00000816,-0.00000617,-0.00000062,-0.00001585,-0.00007532,-0.00027944,0
 .00026534,-0.00019254,0.00010445,0.00002360,-0.00008641,0.00011052,0.0
 0035817,-0.00002959,0.00005193,0.00001836,0.00001415,0.00000769,0.0000
 0076,-0.00001981,-0.00003985,0.00001259,0.00000993,0.00002296,-0.00001
 537,-0.00000864,-0.00004354,-0.00003170,0.00007319,-0.00026464,-0.0000
 5560,-0.00018511,-0.00003409,0.00018777,0.00033488,-0.00044465,-0.0003
 5182,0.00021990,0.00012818,-0.00014143,0.00111640,-0.00096510,-0.00123
 981,-0.00363345,-0.00719508,0.00471278,-0.05092359,-0.32104001,0.09011
 779,0.00249970,-0.00105949,-0.00206445,-0.00015604,0.00082749,0.001067
 49,-0.00000074,0.00000085,-0.00000057,0.00000043,0.00000002,0.00000123
 ,-0.00000196,0.00000127,-0.00000320,0.00000587,-0.00000160,0.00001161,
 0.00000226,-0.00000359,0.00000027,0.00000586,0.00001008,-0.00000121,-0
 .00000877,-0.00000728,0.00000877,-0.00000002,-0.00000625,0.00000126,0.
 05175792,0.32964958,0.00000069,-0.00000458,0.00000301,-0.00000120,0.00
 000068,0.00000003,0.00000118,0.00000114,-0.00000302,0.00000768,-0.0000
 0624,-0.00000206,-0.00002102,0.00002075,-0.00001466,0.00004035,-0.0000
 2859,0.00005511,-0.00001947,-0.00000001,-0.00001849,0.00003129,0.00007
 349,0.00000181,-0.00006891,0.00004183,0.00002190,0.00002651,0.00004061
 ,-0.00003690,0.00007382,0.00003427,0.00017411,-0.00005559,-0.00000563,
 -0.00001228,0.00001668,-0.00005109,-0.00006973,-0.00008871,0.00073192,
 0.00077998,-0.00060128,0.00016992,-0.00064179,0.00058020,0.00007630,0.
 00156147,0.00019139,0.00006742,0.00020482,0.00001308,0.00002661,-0.000
 02486,-0.00003091,-0.00003019,0.00000195,-0.00001893,0.00002068,-0.000
 01690,0.00007911,0.00000073,0.00005183,0.00003777,-0.00018273,-0.00005
 790,-0.00008936,-0.00005609,0.00012874,0.00033973,-0.00025262,-0.00019
 755,-0.00018725,0.00009226,-0.00040527,0.00083294,-0.00283842,-0.00222
 863,-0.00224668,-0.00889401,0.00338825,0.02695833,0.08397348,-0.066153
 83,0.00111679,0.01999215,-0.00005227,0.00715584,0.00065617,0.00141635,
 0.00000043,0.00000056,-0.00000019,0.00000406,-0.00000165,-0.00000232,-
 0.00000075,0.,-0.00000634,0.00001183,-0.00001853,-0.00001138,0.0000379
 5,0.00006718,0.00000816,0.00000367,-0.00000007,0.00000653,-0.00000852,
 -0.00001154,0.00001794,0.00000269,-0.00000352,0.00000398,-0.03082846,-
 0.09291978,0.06404130,0.00001584,-0.00000716,0.00002020,-0.00000374,0.
 00000039,-0.00000510,-0.00000540,0.00000002,-0.00000319,-0.00000352,0.
 00000111,-0.00001034,0.00000272,0.00000478,0.00000100,0.00001920,0.000
 01109,0.00000498,-0.00005010,-0.00003913,-0.00003722,-0.00007264,0.000
 05526,0.00003776,-0.00017064,-0.00017254,0.00001945,0.00043637,0.00030
 658,0.00086301,-0.00003535,-0.00013198,-0.00000578,-0.00002905,0.00000
 403,-0.00011508,-0.00001991,-0.00002693,0.00005847,-0.00051615,0.00029
 529,-0.00047597,-0.00014522,0.00002232,-0.00015660,0.00046552,-0.00002
 172,-0.00001616,0.00003840,-0.00006002,0.00006439,0.00000574,-0.000046
 87,-0.00002799,-0.00001995,0.00002134,-0.00002182,-0.00001521,-0.00002
 013,-0.00000266,-0.00006547,0.00003186,-0.00000131,0.00001870,0.000150
 65,0.00007817,0.00014054,0.00000575,-0.00017564,-0.00058783,0.00028636
 ,-0.00023514,0.00003433,-0.00000719,0.00026276,0.00059346,-0.00146108,
 0.00106692,0.00294799,-0.00078792,0.00437689,-0.00604570,0.01377192,0.
 01112025,-0.14148621,0.11095650,0.09478807,0.00401061,-0.00319525,-0.0
 0227727,0.00000101,-0.00000041,0.00000160,0.00000151,-0.00000324,-0.00
 000003,-0.00000228,-0.00000569,0.00000508,0.00003119,-0.00000068,0.000
 00280,-0.00010669,-0.00028778,0.00007209,-0.00001496,-0.00002478,0.000
 00633,0.00000374,0.00000252,-0.00000203,0.00002177,0.00000796,0.000016
 17,-0.00215392,-0.00070466,-0.00329699,0.14276132,-0.00004794,-0.00001
 567,0.00003043,0.00001292,0.00000338,-0.00000608,0.00001041,0.00000706
 ,-0.00000889,0.00002416,0.00001124,-0.00002203,0.00000993,0.00001620,0
 .00001405,-0.00001036,-0.00001196,0.00000167,0.00002863,0.00002194,-0.
 00002337,0.00002053,0.00002958,0.00017721,0.00000744,0.00033219,0.0001
 0927,-0.00063771,-0.00018749,-0.00029699,0.00025718,-0.00025645,-0.000
 13803,-0.00042125,-0.00001275,0.00019739,0.00019025,-0.00003690,-0.000
 14475,0.00022729,0.00123418,-0.00054607,0.00000012,-0.00057596,-0.0001
 2966,0.00092135,-0.00039694,-0.00087983,-0.00020308,-0.00025334,0.0002
 7597,0.00008967,-0.00006541,-0.00009683,0.00001523,-0.00004302,-0.0000
 0185,-0.00000261,-0.00002438,-0.00000960,-0.00002962,0.00002948,0.0000
 5401,-0.00000435,0.00007548,0.00001540,0.00008382,0.00002146,-0.000095
 00,-0.00011077,0.00017467,-0.00000882,-0.00009949,0.00006967,0.0000789
 1,-0.00097728,-0.00436024,0.00170308,-0.00144232,0.00072496,0.00239520
 ,-0.00614444,0.00922831,0.00577075,0.10963753,-0.17700199,-0.09112237,
 0.01693550,-0.01073481,-0.01555110,0.00000303,-0.00000442,-0.00000489,
 0.00000367,-0.00000378,-0.00000729,0.00000695,0.00000101,0.00001747,-0
 .00005627,0.00003861,-0.00008683,0.00045247,0.00027507,0.00052836,0.00
 006909,0.00002046,0.00002673,0.00000871,0.00001810,-0.00000973,0.00000
 653,0.00000361,-0.00000740,0.00009565,0.00049245,-0.00078283,-0.118930
 57,0.18115638,0.00004304,0.00001378,0.00001067,-0.00001361,-0.00000328
 ,-0.00000424,-0.00000971,-0.00000488,-0.00000334,-0.00002950,0.0000045
 4,0.00000034,-0.00001174,0.00000204,-0.00002549,0.00004342,-0.00003310
 ,0.00002865,-0.00006442,-0.00000013,-0.00002532,0.00008094,-0.00008630
 ,-0.00000900,0.00007100,-0.00008442,-0.00013814,0.00034946,0.00033734,
 -0.00095393,-0.00032362,0.00032616,0.00032397,0.00014599,-0.00008046,-
 0.00003203,-0.00012595,0.00004603,0.00006733,-0.00022770,-0.00036906,-
 0.00090822,-0.00017478,-0.00001784,-0.00003712,-0.00000693,0.00005025,
 0.00056284,0.00005989,0.00011580,-0.00001541,-0.00005778,0.00005636,0.
 00000801,-0.00001832,-0.00000638,0.00000308,0.00001633,0.00000823,-0.0
 0002991,-0.00004380,-0.00004305,-0.00000058,0.00007583,-0.00015567,0.0
 0002737,-0.00016494,0.00003019,0.00013481,-0.00019689,-0.00048214,-0.0
 0054077,0.00028983,0.00014822,-0.00002663,0.00122733,0.00202545,0.0004
 4849,0.00460520,0.00129242,0.00217852,0.01386186,-0.01415312,-0.005897
 05,0.09414172,-0.09192523,-0.11467888,-0.00454181,0.00369661,0.0053224
 1,0.,-0.00000178,0.00000658,-0.00000031,-0.00000017,0.00000827,0.00000
 852,-0.00001143,0.00000595,-0.00000949,0.00001701,-0.00005276,0.000284
 44,0.00072171,-0.00175011,-0.00003614,-0.00003092,0.00000287,-0.000002
 49,-0.00000302,0.00000002,0.00001021,-0.00000523,0.00001344,-0.0032550
 2,0.00002111,-0.00191092,-0.10600006,0.09858435,0.11788622\\-0.0000073
 6,-0.00000111,0.00001760,0.00000209,0.00000075,-0.00000255,-0.00001126
 ,-0.00000408,-0.00000223,-0.00002523,-0.00001199,-0.00003030,0.0000147
 0,0.00001617,-0.00000721,-0.00000374,0.00001307,0.00001407,0.00001151,
 -0.00001666,-0.00002845,0.00001040,0.00001355,0.00001569,-0.00000430,-
 0.00000045,0.00000040,0.00000280,0.00000491,0.00000903,-0.00001122,-0.
 00000629,-0.00002567,-0.00000208,0.00001327,0.00001045,-0.00000174,-0.
 00001067,-0.00000884,-0.00000057,0.00000212,0.00003418,0.00000164,-0.0
 0003153,-0.00000346,0.00000385,-0.00000279,0.00000128,-0.00000761,0.00
 000368,-0.00000259,-0.00000104,0.00000512,-0.00000314,0.00000195,0.000
 00062,-0.00000276,0.00000213,0.00000098,-0.00000082,-0.00001355,-0.000
 00012,0.00000206,0.00001233,0.00007489,-0.00001018,-0.00003776,-0.0000
 5476,0.00003845,0.00003805,-0.00001895,-0.00003870,0.00000715,-0.00000
 881,0.00001042,0.00003380,0.00002548,-0.00002936,0.00001845,-0.0000698
 0,-0.00000623,-0.00003862,0.00004625,0.00001444,-0.00001127,-0.0000096
 3,0.00001265,0.00000525,0.00003701,0.00000102,0.00000935,-0.00000116,0
 .00001745,-0.00000223,-0.00000853,0.00000482,-0.00000189,-0.00000492,-
 0.00000337,0.00000306,-0.00000085,0.00000007,-0.00000191,0.00000181,-0
 .00000113,-0.00000425,0.00000090,-0.00000097,-0.00000311,-0.00000087,-
 0.00000409,-0.00000031,-0.00000148,-0.00000157,0.00000449,0.00000069,0
 .00000789,0.00000803,0.00000418,0.00000166\\\@


 TOWERING GENIUS DISDAINS A BEATEN PATH.  IT SEEKS 
 REGIONS HITHERTO UNEXPLORED.

                                -- ABRAHAM LINCOLN
 Job cpu time:  0 days 18 hours 21 minutes 58.0 seconds.
 File lengths (MBytes):  RWF=   1771 Int=      0 D2E=      0 Chk=     30 Scr=      1
 Normal termination of Gaussian 09 at Mon Dec 30 06:55:33 2013.
