 Entering Gaussian System, Link 0=g09
 Initial command:
 /opt/gaussian/g09/l1.exe /panfs/panfs.cluster/home/shuo/Gau-9581.inp -scrdir=/panfs/panfs.cluster/home/shuo/
 Default is to use a total of  12 processors:
                               12 via shared-memory
                                1 via Linda
 Entering Link 1 = /opt/gaussian/g09/l1.exe PID=      9582.
  
 Copyright (c) 1988,1990,1992,1993,1995,1998,2003,2009,2011,
            Gaussian, Inc.  All Rights Reserved.
  
 This is part of the Gaussian(R) 09 program.  It is based on
 the Gaussian(R) 03 system (copyright 2003, Gaussian, Inc.),
 the Gaussian(R) 98 system (copyright 1998, Gaussian, Inc.),
 the Gaussian(R) 94 system (copyright 1995, Gaussian, Inc.),
 the Gaussian 92(TM) system (copyright 1992, Gaussian, Inc.),
 the Gaussian 90(TM) system (copyright 1990, Gaussian, Inc.),
 the Gaussian 88(TM) system (copyright 1988, Gaussian, Inc.),
 the Gaussian 86(TM) system (copyright 1986, Carnegie Mellon
 University), and the Gaussian 82(TM) system (copyright 1983,
 Carnegie Mellon University). Gaussian is a federally registered
 trademark of Gaussian, Inc.
  
 This software contains proprietary and confidential information,
 including trade secrets, belonging to Gaussian, Inc.
  
 This software is provided under written license and may be
 used, copied, transmitted, or stored only in accord with that
 written license.
  
 The following legend is applicable only to US Government
 contracts under FAR:
  
                    RESTRICTED RIGHTS LEGEND
  
 Use, reproduction and disclosure by the US Government is
 subject to restrictions as set forth in subparagraphs (a)
 and (c) of the Commercial Computer Software - Restricted
 Rights clause in FAR 52.227-19.
  
 Gaussian, Inc.
 340 Quinnipiac St., Bldg. 40, Wallingford CT 06492
  
  
 ---------------------------------------------------------------
 Warning -- This program may not be used in any manner that
 competes with the business of Gaussian, Inc. or will provide
 assistance to any competitor of Gaussian, Inc.  The licensee
 of this program is prohibited from giving any competitor of
 Gaussian, Inc. access to this program.  By using this program,
 the user acknowledges that Gaussian, Inc. is engaged in the
 business of creating and licensing software in the field of
 computational chemistry and represents and warrants to the
 licensee that it is not a competitor of Gaussian, Inc. and that
 it will not use this program in any manner prohibited above.
 ---------------------------------------------------------------
  

 Cite this work as:
 Gaussian 09, Revision C.01,
 M. J. Frisch, G. W. Trucks, H. B. Schlegel, G. E. Scuseria, 
 M. A. Robb, J. R. Cheeseman, G. Scalmani, V. Barone, B. Mennucci, 
 G. A. Petersson, H. Nakatsuji, M. Caricato, X. Li, H. P. Hratchian, 
 A. F. Izmaylov, J. Bloino, G. Zheng, J. L. Sonnenberg, M. Hada, 
 M. Ehara, K. Toyota, R. Fukuda, J. Hasegawa, M. Ishida, T. Nakajima, 
 Y. Honda, O. Kitao, H. Nakai, T. Vreven, J. A. Montgomery, Jr., 
 J. E. Peralta, F. Ogliaro, M. Bearpark, J. J. Heyd, E. Brothers, 
 K. N. Kudin, V. N. Staroverov, T. Keith, R. Kobayashi, J. Normand, 
 K. Raghavachari, A. Rendell, J. C. Burant, S. S. Iyengar, J. Tomasi, 
 M. Cossi, N. Rega, J. M. Millam, M. Klene, J. E. Knox, J. B. Cross, 
 V. Bakken, C. Adamo, J. Jaramillo, R. Gomperts, R. E. Stratmann, 
 O. Yazyev, A. J. Austin, R. Cammi, C. Pomelli, J. W. Ochterski, 
 R. L. Martin, K. Morokuma, V. G. Zakrzewski, G. A. Voth, 
 P. Salvador, J. J. Dannenberg, S. Dapprich, A. D. Daniels, 
 O. Farkas, J. B. Foresman, J. V. Ortiz, J. Cioslowski, 
 and D. J. Fox, Gaussian, Inc., Wallingford CT, 2010.
 
 ******************************************
 Gaussian 09:  EM64L-G09RevC.01 23-Sep-2011
                28-Dec-2013 
 ******************************************
 %chk=18_C22H15N3S3Si2.chk
 %NProcShared=12
 Will use up to   12 processors via shared memory.
 %Mem=8000MB
 Default route:  MaxDisk=100GB
 --------------------------------------------
 #B3LYP/6-31++G(d,p) opt scf=direct freq test
 --------------------------------------------
 1/14=-1,18=20,19=15,26=3,38=1/1,3;
 2/9=110,12=2,17=6,18=5,40=1/2;
 3/5=1,6=6,7=1111,11=2,16=1,25=1,30=1,71=1,74=-5/1,2,3;
 4//1;
 5/5=2,38=5/2;
 6/7=2,8=2,9=2,10=2,28=1/1;
 7//1,2,3,16;
 1/14=-1,18=20,19=15/3(2);
 2/9=110/2;
 99//99;
 2/9=110/2;
 3/5=1,6=6,7=1111,11=2,16=1,25=1,30=1,71=1,74=-5/1,2,3;
 4/5=5,16=3/1;
 5/5=2,38=5/2;
 7//1,2,3,16;
 1/14=-1,18=20,19=15/3(-5);
 2/9=110/2;
 6/7=2,8=2,9=2,10=2,19=2,28=1/1;
 99/9=1/99;
 ----------------------------------------------------------------------
 Geom opt of No.18 candidate from the CEPDB database with SMILE code of
  [SiH2]1c(ccc1-c1ncc(-c2cccs2)c2nsnc12)-c1cccc2ccccc12, HPC, 20131227,
  Shuo Dai, Gaussian09
 ----------------------------------------------------------------------
 Charge =  0 Multiplicity = 1
 Symbolic Z-Matrix:
 Si                   -1.12328  -0.9714   -0.7627 
 H                    -1.11035  -1.06689  -2.23984 
 H                    -1.98641  -2.07336  -0.25211 
 C                    -1.28159   0.61252   0.24384 
 C                     0.01119   1.38328  -0.17681 
 C                     1.24811   0.51018   0.07075 
 C                     0.85301  -0.97051  -0.00441 
 C                     1.54993  -1.85644  -0.94175 
 N                     2.22385  -1.28665  -1.97124 
 C                     2.66088  -2.04603  -2.99855 
 C                     2.48137  -3.42564  -3.15005 
 C                     2.97125  -4.15285  -4.30229 
 C                     3.6075   -3.66957  -5.43178 
 C                     3.85994  -4.70254  -6.37922 
 C                     3.43265  -5.92836  -5.93607 
 S                     2.82321  -5.85851  -4.37347 
 C                     1.75217  -4.04804  -2.09553 
 N                     1.34887  -5.32765  -1.97541 
 S                     0.49703  -5.49004  -0.58239 
 N                     0.60319  -3.94163  -0.03559 
 C                     1.30181  -3.24732  -0.95306 
 C                    -1.37547   0.50722   1.7838 
 C                    -1.5028    1.75537   2.41582 
 C                    -1.63257   1.84711   3.79415 
 C                    -1.69886   0.68855   4.56041 
 C                    -1.65795  -0.58226   3.98299 
 C                    -1.87779  -1.74206   4.75796 
 C                    -2.07213  -2.99557   4.18431 
 C                    -1.71068  -3.16565   2.87608 
 C                    -1.28035  -2.04953   2.18956 
 C                    -1.43078  -0.70159   2.59234 
 H                    -2.17954   1.11752  -0.12878 
 H                     0.12987   2.34005   0.33696 
 H                    -0.03241   1.61808  -1.25039 
 H                     1.65265   0.70818   1.07229 
 H                     2.05036   0.77277  -0.62591 
 H                     0.92476  -1.39319   1.00194 
 H                     3.17522  -1.4464   -3.74765 
 H                     3.85901  -2.62676  -5.59713 
 H                     4.31927  -4.55252  -7.34357 
 H                     3.45638  -6.8889   -6.41967 
 H                    -1.5025    2.67292   1.82997 
 H                    -1.71533   2.82424   4.25702 
 H                    -1.83896   0.78726   5.63646 
 H                    -1.93321  -1.66912   5.84236 
 H                    -2.43259  -3.84564   4.74553 
 H                    -1.70223  -4.12869   2.37689 
 H                    -0.77877  -2.34119   1.28797 
 

 GradGradGradGradGradGradGradGradGradGradGradGradGradGradGradGradGradGrad
 Berny optimization.
 Initialization pass.
                           ----------------------------
                           !    Initial Parameters    !
                           ! (Angstroms and Degrees)  !
 --------------------------                            --------------------------
 ! Name  Definition              Value          Derivative Info.                !
 --------------------------------------------------------------------------------
 ! R1    R(1,2)                  1.4803         estimate D2E/DX2                !
 ! R2    R(1,3)                  1.49           estimate D2E/DX2                !
 ! R3    R(1,4)                  1.8833         estimate D2E/DX2                !
 ! R4    R(1,7)                  2.1168         estimate D2E/DX2                !
 ! R5    R(4,5)                  1.5628         estimate D2E/DX2                !
 ! R6    R(4,22)                 1.5464         estimate D2E/DX2                !
 ! R7    R(4,32)                 1.0955         estimate D2E/DX2                !
 ! R8    R(5,6)                  1.5341         estimate D2E/DX2                !
 ! R9    R(5,33)                 1.0925         estimate D2E/DX2                !
 ! R10   R(5,34)                 1.0998         estimate D2E/DX2                !
 ! R11   R(6,7)                  1.5343         estimate D2E/DX2                !
 ! R12   R(6,35)                 1.0982         estimate D2E/DX2                !
 ! R13   R(6,36)                 1.0945         estimate D2E/DX2                !
 ! R14   R(7,8)                  1.466          estimate D2E/DX2                !
 ! R15   R(7,37)                 1.0939         estimate D2E/DX2                !
 ! R16   R(8,9)                  1.356          estimate D2E/DX2                !
 ! R17   R(8,21)                 1.4129         estimate D2E/DX2                !
 ! R18   R(9,10)                 1.3502         estimate D2E/DX2                !
 ! R19   R(10,11)                1.3995         estimate D2E/DX2                !
 ! R20   R(10,38)                1.0887         estimate D2E/DX2                !
 ! R21   R(11,12)                1.4479         estimate D2E/DX2                !
 ! R22   R(11,17)                1.4252         estimate D2E/DX2                !
 ! R23   R(12,13)                1.3835         estimate D2E/DX2                !
 ! R24   R(12,16)                1.7136         estimate D2E/DX2                !
 ! R25   R(13,14)                1.4242         estimate D2E/DX2                !
 ! R26   R(13,39)                1.0854         estimate D2E/DX2                !
 ! R27   R(14,15)                1.3717         estimate D2E/DX2                !
 ! R28   R(14,40)                1.0786         estimate D2E/DX2                !
 ! R29   R(15,16)                1.6787         estimate D2E/DX2                !
 ! R30   R(15,41)                1.0757         estimate D2E/DX2                !
 ! R31   R(17,18)                1.347          estimate D2E/DX2                !
 ! R32   R(17,21)                1.466          estimate D2E/DX2                !
 ! R33   R(18,19)                1.6409         estimate D2E/DX2                !
 ! R34   R(19,20)                1.6455         estimate D2E/DX2                !
 ! R35   R(20,21)                1.3461         estimate D2E/DX2                !
 ! R36   R(22,23)                1.4048         estimate D2E/DX2                !
 ! R37   R(22,31)                1.4553         estimate D2E/DX2                !
 ! R38   R(23,24)                1.3875         estimate D2E/DX2                !
 ! R39   R(23,42)                1.0886         estimate D2E/DX2                !
 ! R40   R(24,25)                1.3906         estimate D2E/DX2                !
 ! R41   R(24,43)                1.0844         estimate D2E/DX2                !
 ! R42   R(25,26)                1.3964         estimate D2E/DX2                !
 ! R43   R(25,44)                1.0896         estimate D2E/DX2                !
 ! R44   R(26,27)                1.4121         estimate D2E/DX2                !
 ! R45   R(26,31)                1.4141         estimate D2E/DX2                !
 ! R46   R(27,28)                1.3922         estimate D2E/DX2                !
 ! R47   R(27,45)                1.0883         estimate D2E/DX2                !
 ! R48   R(28,29)                1.3679         estimate D2E/DX2                !
 ! R49   R(28,46)                1.0805         estimate D2E/DX2                !
 ! R50   R(29,30)                1.3792         estimate D2E/DX2                !
 ! R51   R(29,47)                1.0848         estimate D2E/DX2                !
 ! R52   R(30,31)                1.4149         estimate D2E/DX2                !
 ! R53   R(30,48)                1.0722         estimate D2E/DX2                !
 ! A1    A(2,1,3)              107.4161         estimate D2E/DX2                !
 ! A2    A(2,1,4)              126.0362         estimate D2E/DX2                !
 ! A3    A(2,1,7)              110.447          estimate D2E/DX2                !
 ! A4    A(3,1,4)              112.9646         estimate D2E/DX2                !
 ! A5    A(3,1,7)              114.7336         estimate D2E/DX2                !
 ! A6    A(4,1,7)               83.4928         estimate D2E/DX2                !
 ! A7    A(1,4,5)              101.6186         estimate D2E/DX2                !
 ! A8    A(1,4,22)             118.6887         estimate D2E/DX2                !
 ! A9    A(1,4,32)             105.9499         estimate D2E/DX2                !
 ! A10   A(5,4,22)             110.6004         estimate D2E/DX2                !
 ! A11   A(5,4,32)             111.0474         estimate D2E/DX2                !
 ! A12   A(22,4,32)            108.6834         estimate D2E/DX2                !
 ! A13   A(4,5,6)              110.0503         estimate D2E/DX2                !
 ! A14   A(4,5,33)             113.2798         estimate D2E/DX2                !
 ! A15   A(4,5,34)             109.5873         estimate D2E/DX2                !
 ! A16   A(6,5,33)             109.5697         estimate D2E/DX2                !
 ! A17   A(6,5,34)             108.1184         estimate D2E/DX2                !
 ! A18   A(33,5,34)            106.0456         estimate D2E/DX2                !
 ! A19   A(5,6,7)              109.4932         estimate D2E/DX2                !
 ! A20   A(5,6,35)             109.9727         estimate D2E/DX2                !
 ! A21   A(5,6,36)             110.5933         estimate D2E/DX2                !
 ! A22   A(7,6,35)             108.2724         estimate D2E/DX2                !
 ! A23   A(7,6,36)             112.8986         estimate D2E/DX2                !
 ! A24   A(35,6,36)            105.5001         estimate D2E/DX2                !
 ! A25   A(1,7,6)              104.9733         estimate D2E/DX2                !
 ! A26   A(1,7,8)              102.3884         estimate D2E/DX2                !
 ! A27   A(1,7,37)             112.9947         estimate D2E/DX2                !
 ! A28   A(6,7,8)              119.4781         estimate D2E/DX2                !
 ! A29   A(6,7,37)             108.116          estimate D2E/DX2                !
 ! A30   A(8,7,37)             108.8767         estimate D2E/DX2                !
 ! A31   A(7,8,9)              117.8893         estimate D2E/DX2                !
 ! A32   A(7,8,21)             121.1003         estimate D2E/DX2                !
 ! A33   A(9,8,21)             119.6607         estimate D2E/DX2                !
 ! A34   A(8,9,10)             120.1456         estimate D2E/DX2                !
 ! A35   A(9,10,11)            126.5336         estimate D2E/DX2                !
 ! A36   A(9,10,38)            111.5107         estimate D2E/DX2                !
 ! A37   A(11,10,38)           121.9432         estimate D2E/DX2                !
 ! A38   A(10,11,12)           122.5387         estimate D2E/DX2                !
 ! A39   A(10,11,17)           114.5856         estimate D2E/DX2                !
 ! A40   A(12,11,17)           122.8604         estimate D2E/DX2                !
 ! A41   A(11,12,13)           129.0373         estimate D2E/DX2                !
 ! A42   A(11,12,16)           120.249          estimate D2E/DX2                !
 ! A43   A(13,12,16)           110.7029         estimate D2E/DX2                !
 ! A44   A(12,13,14)           111.7928         estimate D2E/DX2                !
 ! A45   A(12,13,39)           124.5099         estimate D2E/DX2                !
 ! A46   A(14,13,39)           123.6712         estimate D2E/DX2                !
 ! A47   A(13,14,15)           112.2113         estimate D2E/DX2                !
 ! A48   A(13,14,40)           124.7052         estimate D2E/DX2                !
 ! A49   A(15,14,40)           123.0775         estimate D2E/DX2                !
 ! A50   A(14,15,16)           112.1248         estimate D2E/DX2                !
 ! A51   A(14,15,41)           130.2316         estimate D2E/DX2                !
 ! A52   A(16,15,41)           117.6231         estimate D2E/DX2                !
 ! A53   A(12,16,15)            92.7926         estimate D2E/DX2                !
 ! A54   A(11,17,18)           129.3483         estimate D2E/DX2                !
 ! A55   A(11,17,21)           119.6878         estimate D2E/DX2                !
 ! A56   A(18,17,21)           110.9395         estimate D2E/DX2                !
 ! A57   A(17,18,19)           108.9743         estimate D2E/DX2                !
 ! A58   A(18,19,20)            98.9447         estimate D2E/DX2                !
 ! A59   A(19,20,21)           106.999          estimate D2E/DX2                !
 ! A60   A(8,21,17)            119.3387         estimate D2E/DX2                !
 ! A61   A(8,21,20)            126.4032         estimate D2E/DX2                !
 ! A62   A(17,21,20)           114.1345         estimate D2E/DX2                !
 ! A63   A(4,22,23)            113.1425         estimate D2E/DX2                !
 ! A64   A(4,22,31)            127.7427         estimate D2E/DX2                !
 ! A65   A(23,22,31)           118.9848         estimate D2E/DX2                !
 ! A66   A(22,23,24)           120.9409         estimate D2E/DX2                !
 ! A67   A(22,23,42)           120.445          estimate D2E/DX2                !
 ! A68   A(24,23,42)           118.614          estimate D2E/DX2                !
 ! A69   A(23,24,25)           119.7864         estimate D2E/DX2                !
 ! A70   A(23,24,43)           119.3907         estimate D2E/DX2                !
 ! A71   A(25,24,43)           120.7894         estimate D2E/DX2                !
 ! A72   A(24,25,26)           121.9335         estimate D2E/DX2                !
 ! A73   A(24,25,44)           118.3475         estimate D2E/DX2                !
 ! A74   A(26,25,44)           119.6405         estimate D2E/DX2                !
 ! A75   A(25,26,27)           121.0608         estimate D2E/DX2                !
 ! A76   A(25,26,31)           119.2176         estimate D2E/DX2                !
 ! A77   A(27,26,31)           119.6959         estimate D2E/DX2                !
 ! A78   A(26,27,28)           122.3519         estimate D2E/DX2                !
 ! A79   A(26,27,45)           119.9825         estimate D2E/DX2                !
 ! A80   A(28,27,45)           117.6347         estimate D2E/DX2                !
 ! A81   A(27,28,29)           117.9799         estimate D2E/DX2                !
 ! A82   A(27,28,46)           122.746          estimate D2E/DX2                !
 ! A83   A(29,28,46)           119.1493         estimate D2E/DX2                !
 ! A84   A(28,29,30)           117.2511         estimate D2E/DX2                !
 ! A85   A(28,29,47)           123.5435         estimate D2E/DX2                !
 ! A86   A(30,29,47)           119.1401         estimate D2E/DX2                !
 ! A87   A(29,30,31)           126.591          estimate D2E/DX2                !
 ! A88   A(29,30,48)           110.1454         estimate D2E/DX2                !
 ! A89   A(31,30,48)           123.2504         estimate D2E/DX2                !
 ! A90   A(22,31,26)           118.8396         estimate D2E/DX2                !
 ! A91   A(22,31,30)           128.9854         estimate D2E/DX2                !
 ! A92   A(26,31,30)           112.1744         estimate D2E/DX2                !
 ! D1    D(2,1,4,5)            -62.765          estimate D2E/DX2                !
 ! D2    D(2,1,4,22)           175.7692         estimate D2E/DX2                !
 ! D3    D(2,1,4,32)            53.345          estimate D2E/DX2                !
 ! D4    D(3,1,4,5)            161.9778         estimate D2E/DX2                !
 ! D5    D(3,1,4,22)            40.5121         estimate D2E/DX2                !
 ! D6    D(3,1,4,32)           -81.9122         estimate D2E/DX2                !
 ! D7    D(7,1,4,5)             47.8342         estimate D2E/DX2                !
 ! D8    D(7,1,4,22)           -73.6316         estimate D2E/DX2                !
 ! D9    D(7,1,4,32)           163.9442         estimate D2E/DX2                !
 ! D10   D(2,1,7,6)             91.179          estimate D2E/DX2                !
 ! D11   D(2,1,7,8)            -34.2909         estimate D2E/DX2                !
 ! D12   D(2,1,7,37)          -151.2305         estimate D2E/DX2                !
 ! D13   D(3,1,7,6)           -147.2573         estimate D2E/DX2                !
 ! D14   D(3,1,7,8)             87.2728         estimate D2E/DX2                !
 ! D15   D(3,1,7,37)           -29.6668         estimate D2E/DX2                !
 ! D16   D(4,1,7,6)            -34.9353         estimate D2E/DX2                !
 ! D17   D(4,1,7,8)           -160.4052         estimate D2E/DX2                !
 ! D18   D(4,1,7,37)            82.6552         estimate D2E/DX2                !
 ! D19   D(1,4,5,6)            -54.8904         estimate D2E/DX2                !
 ! D20   D(1,4,5,33)          -177.9281         estimate D2E/DX2                !
 ! D21   D(1,4,5,34)            63.8765         estimate D2E/DX2                !
 ! D22   D(22,4,5,6)            72.0408         estimate D2E/DX2                !
 ! D23   D(22,4,5,33)          -50.997          estimate D2E/DX2                !
 ! D24   D(22,4,5,34)         -169.1924         estimate D2E/DX2                !
 ! D25   D(32,4,5,6)          -167.2068         estimate D2E/DX2                !
 ! D26   D(32,4,5,33)           69.7555         estimate D2E/DX2                !
 ! D27   D(32,4,5,34)          -48.4399         estimate D2E/DX2                !
 ! D28   D(1,4,22,23)         -179.4234         estimate D2E/DX2                !
 ! D29   D(1,4,22,31)           -3.657          estimate D2E/DX2                !
 ! D30   D(5,4,22,23)           63.7717         estimate D2E/DX2                !
 ! D31   D(5,4,22,31)         -120.4619         estimate D2E/DX2                !
 ! D32   D(32,4,22,23)         -58.3774         estimate D2E/DX2                !
 ! D33   D(32,4,22,31)         117.389          estimate D2E/DX2                !
 ! D34   D(4,5,6,7)             26.8343         estimate D2E/DX2                !
 ! D35   D(4,5,6,35)           -92.0166         estimate D2E/DX2                !
 ! D36   D(4,5,6,36)           151.86           estimate D2E/DX2                !
 ! D37   D(33,5,6,7)           152.0218         estimate D2E/DX2                !
 ! D38   D(33,5,6,35)           33.1709         estimate D2E/DX2                !
 ! D39   D(33,5,6,36)          -82.9525         estimate D2E/DX2                !
 ! D40   D(34,5,6,7)           -92.8295         estimate D2E/DX2                !
 ! D41   D(34,5,6,35)          148.3196         estimate D2E/DX2                !
 ! D42   D(34,5,6,36)           32.1962         estimate D2E/DX2                !
 ! D43   D(5,6,7,1)             10.1069         estimate D2E/DX2                !
 ! D44   D(5,6,7,8)            124.0785         estimate D2E/DX2                !
 ! D45   D(5,6,7,37)          -110.7546         estimate D2E/DX2                !
 ! D46   D(35,6,7,1)           130.0052         estimate D2E/DX2                !
 ! D47   D(35,6,7,8)          -116.0232         estimate D2E/DX2                !
 ! D48   D(35,6,7,37)            9.1437         estimate D2E/DX2                !
 ! D49   D(36,6,7,1)          -113.5733         estimate D2E/DX2                !
 ! D50   D(36,6,7,8)             0.3983         estimate D2E/DX2                !
 ! D51   D(36,6,7,37)          125.5652         estimate D2E/DX2                !
 ! D52   D(1,7,8,9)             96.1085         estimate D2E/DX2                !
 ! D53   D(1,7,8,21)           -70.5811         estimate D2E/DX2                !
 ! D54   D(6,7,8,9)            -19.2339         estimate D2E/DX2                !
 ! D55   D(6,7,8,21)           174.0765         estimate D2E/DX2                !
 ! D56   D(37,7,8,9)          -144.0372         estimate D2E/DX2                !
 ! D57   D(37,7,8,21)           49.2732         estimate D2E/DX2                !
 ! D58   D(7,8,9,10)          -167.2019         estimate D2E/DX2                !
 ! D59   D(21,8,9,10)           -0.3141         estimate D2E/DX2                !
 ! D60   D(7,8,21,17)          165.0849         estimate D2E/DX2                !
 ! D61   D(7,8,21,20)          -10.6209         estimate D2E/DX2                !
 ! D62   D(9,8,21,17)           -1.3724         estimate D2E/DX2                !
 ! D63   D(9,8,21,20)         -177.0783         estimate D2E/DX2                !
 ! D64   D(8,9,10,11)            0.8446         estimate D2E/DX2                !
 ! D65   D(8,9,10,38)          179.5682         estimate D2E/DX2                !
 ! D66   D(9,10,11,12)         179.0232         estimate D2E/DX2                !
 ! D67   D(9,10,11,17)           0.4093         estimate D2E/DX2                !
 ! D68   D(38,10,11,12)          0.4227         estimate D2E/DX2                !
 ! D69   D(38,10,11,17)       -178.1912         estimate D2E/DX2                !
 ! D70   D(10,11,12,13)         -3.289          estimate D2E/DX2                !
 ! D71   D(10,11,12,16)        175.396          estimate D2E/DX2                !
 ! D72   D(17,11,12,13)        175.2105         estimate D2E/DX2                !
 ! D73   D(17,11,12,16)         -6.1045         estimate D2E/DX2                !
 ! D74   D(10,11,17,18)        175.9403         estimate D2E/DX2                !
 ! D75   D(10,11,17,21)         -2.0841         estimate D2E/DX2                !
 ! D76   D(12,11,17,18)         -2.6686         estimate D2E/DX2                !
 ! D77   D(12,11,17,21)        179.307          estimate D2E/DX2                !
 ! D78   D(11,12,13,14)       -176.4049         estimate D2E/DX2                !
 ! D79   D(11,12,13,39)          1.7909         estimate D2E/DX2                !
 ! D80   D(16,12,13,14)          4.8094         estimate D2E/DX2                !
 ! D81   D(16,12,13,39)       -176.9948         estimate D2E/DX2                !
 ! D82   D(11,12,16,15)        175.318          estimate D2E/DX2                !
 ! D83   D(13,12,16,15)         -5.7738         estimate D2E/DX2                !
 ! D84   D(12,13,14,15)         -1.0001         estimate D2E/DX2                !
 ! D85   D(12,13,14,40)        178.1324         estimate D2E/DX2                !
 ! D86   D(39,13,14,15)       -179.2137         estimate D2E/DX2                !
 ! D87   D(39,13,14,40)         -0.0812         estimate D2E/DX2                !
 ! D88   D(13,14,15,16)         -3.3835         estimate D2E/DX2                !
 ! D89   D(13,14,15,41)        178.3305         estimate D2E/DX2                !
 ! D90   D(40,14,15,16)        177.4676         estimate D2E/DX2                !
 ! D91   D(40,14,15,41)         -0.8184         estimate D2E/DX2                !
 ! D92   D(14,15,16,12)          5.2607         estimate D2E/DX2                !
 ! D93   D(41,15,16,12)       -176.2161         estimate D2E/DX2                !
 ! D94   D(11,17,18,19)       -177.9905         estimate D2E/DX2                !
 ! D95   D(21,17,18,19)          0.1719         estimate D2E/DX2                !
 ! D96   D(11,17,21,8)           2.6271         estimate D2E/DX2                !
 ! D97   D(11,17,21,20)        178.8406         estimate D2E/DX2                !
 ! D98   D(18,17,21,8)        -175.7372         estimate D2E/DX2                !
 ! D99   D(18,17,21,20)          0.4763         estimate D2E/DX2                !
 ! D100  D(17,18,19,20)         -0.6055         estimate D2E/DX2                !
 ! D101  D(18,19,20,21)          0.8589         estimate D2E/DX2                !
 ! D102  D(19,20,21,8)         175.0294         estimate D2E/DX2                !
 ! D103  D(19,20,21,17)         -0.869          estimate D2E/DX2                !
 ! D104  D(4,22,23,24)         178.4203         estimate D2E/DX2                !
 ! D105  D(4,22,23,42)          -1.515          estimate D2E/DX2                !
 ! D106  D(31,22,23,24)          2.2468         estimate D2E/DX2                !
 ! D107  D(31,22,23,42)       -177.6885         estimate D2E/DX2                !
 ! D108  D(4,22,31,26)        -173.3595         estimate D2E/DX2                !
 ! D109  D(4,22,31,30)           6.9359         estimate D2E/DX2                !
 ! D110  D(23,22,31,26)          2.1898         estimate D2E/DX2                !
 ! D111  D(23,22,31,30)       -177.5148         estimate D2E/DX2                !
 ! D112  D(22,23,24,25)         -2.936          estimate D2E/DX2                !
 ! D113  D(22,23,24,43)        179.1535         estimate D2E/DX2                !
 ! D114  D(42,23,24,25)        177.0004         estimate D2E/DX2                !
 ! D115  D(42,23,24,43)         -0.91           estimate D2E/DX2                !
 ! D116  D(23,24,25,26)         -0.9347         estimate D2E/DX2                !
 ! D117  D(23,24,25,44)       -177.6997         estimate D2E/DX2                !
 ! D118  D(43,24,25,26)        176.9459         estimate D2E/DX2                !
 ! D119  D(43,24,25,44)          0.1809         estimate D2E/DX2                !
 ! D120  D(24,25,26,27)       -172.7642         estimate D2E/DX2                !
 ! D121  D(24,25,26,31)          5.3867         estimate D2E/DX2                !
 ! D122  D(44,25,26,27)          3.96           estimate D2E/DX2                !
 ! D123  D(44,25,26,31)       -177.8891         estimate D2E/DX2                !
 ! D124  D(25,26,27,28)        168.6889         estimate D2E/DX2                !
 ! D125  D(25,26,27,45)         -9.2434         estimate D2E/DX2                !
 ! D126  D(31,26,27,28)         -9.4532         estimate D2E/DX2                !
 ! D127  D(31,26,27,45)        172.6144         estimate D2E/DX2                !
 ! D128  D(25,26,31,22)         -5.8862         estimate D2E/DX2                !
 ! D129  D(25,26,31,30)        173.8659         estimate D2E/DX2                !
 ! D130  D(27,26,31,22)        172.2904         estimate D2E/DX2                !
 ! D131  D(27,26,31,30)         -7.9576         estimate D2E/DX2                !
 ! D132  D(26,27,28,29)         16.597          estimate D2E/DX2                !
 ! D133  D(26,27,28,46)       -167.5029         estimate D2E/DX2                !
 ! D134  D(45,27,28,29)       -165.4246         estimate D2E/DX2                !
 ! D135  D(45,27,28,46)         10.4756         estimate D2E/DX2                !
 ! D136  D(27,28,29,30)         -5.1537         estimate D2E/DX2                !
 ! D137  D(27,28,29,47)        171.8751         estimate D2E/DX2                !
 ! D138  D(46,28,29,30)        178.7944         estimate D2E/DX2                !
 ! D139  D(46,28,29,47)         -4.1768         estimate D2E/DX2                !
 ! D140  D(28,29,30,31)        -14.2694         estimate D2E/DX2                !
 ! D141  D(28,29,30,48)        164.4326         estimate D2E/DX2                !
 ! D142  D(47,29,30,31)        168.5657         estimate D2E/DX2                !
 ! D143  D(47,29,30,48)        -12.7323         estimate D2E/DX2                !
 ! D144  D(29,30,31,22)       -159.7526         estimate D2E/DX2                !
 ! D145  D(29,30,31,26)         20.5269         estimate D2E/DX2                !
 ! D146  D(48,30,31,22)         21.7046         estimate D2E/DX2                !
 ! D147  D(48,30,31,26)       -158.016          estimate D2E/DX2                !
 --------------------------------------------------------------------------------
 Trust Radius=3.00D-01 FncErr=1.00D-07 GrdErr=1.00D-06
 Number of steps in this run=    288 maximum allowed number of steps=    288.
 GradGradGradGradGradGradGradGradGradGradGradGradGradGradGradGradGradGrad

                          Input orientation:                          
 ---------------------------------------------------------------------
 Center     Atomic      Atomic             Coordinates (Angstroms)
 Number     Number       Type             X           Y           Z
 ---------------------------------------------------------------------
      1         14           0       -1.123280   -0.971400   -0.762700
      2          1           0       -1.110350   -1.066890   -2.239840
      3          1           0       -1.986410   -2.073360   -0.252110
      4          6           0       -1.281590    0.612520    0.243840
      5          6           0        0.011190    1.383280   -0.176810
      6          6           0        1.248110    0.510180    0.070750
      7          6           0        0.853010   -0.970510   -0.004410
      8          6           0        1.549930   -1.856440   -0.941750
      9          7           0        2.223850   -1.286650   -1.971240
     10          6           0        2.660880   -2.046030   -2.998550
     11          6           0        2.481370   -3.425640   -3.150050
     12          6           0        2.971250   -4.152850   -4.302290
     13          6           0        3.607500   -3.669570   -5.431780
     14          6           0        3.859940   -4.702540   -6.379220
     15          6           0        3.432650   -5.928360   -5.936070
     16         16           0        2.823210   -5.858510   -4.373470
     17          6           0        1.752170   -4.048040   -2.095530
     18          7           0        1.348870   -5.327650   -1.975410
     19         16           0        0.497030   -5.490040   -0.582390
     20          7           0        0.603190   -3.941630   -0.035590
     21          6           0        1.301810   -3.247320   -0.953060
     22          6           0       -1.375470    0.507220    1.783800
     23          6           0       -1.502800    1.755370    2.415820
     24          6           0       -1.632570    1.847110    3.794150
     25          6           0       -1.698860    0.688550    4.560410
     26          6           0       -1.657950   -0.582260    3.982990
     27          6           0       -1.877790   -1.742060    4.757960
     28          6           0       -2.072130   -2.995570    4.184310
     29          6           0       -1.710680   -3.165650    2.876080
     30          6           0       -1.280350   -2.049530    2.189560
     31          6           0       -1.430780   -0.701590    2.592340
     32          1           0       -2.179540    1.117520   -0.128780
     33          1           0        0.129870    2.340050    0.336960
     34          1           0       -0.032410    1.618080   -1.250390
     35          1           0        1.652650    0.708180    1.072290
     36          1           0        2.050360    0.772770   -0.625910
     37          1           0        0.924760   -1.393190    1.001940
     38          1           0        3.175220   -1.446400   -3.747650
     39          1           0        3.859010   -2.626760   -5.597130
     40          1           0        4.319270   -4.552520   -7.343570
     41          1           0        3.456380   -6.888900   -6.419670
     42          1           0       -1.502500    2.672920    1.829970
     43          1           0       -1.715330    2.824240    4.257020
     44          1           0       -1.838960    0.787260    5.636460
     45          1           0       -1.933210   -1.669120    5.842360
     46          1           0       -2.432590   -3.845640    4.745530
     47          1           0       -1.702230   -4.128690    2.376890
     48          1           0       -0.778770   -2.341190    1.287970
 ---------------------------------------------------------------------
                    Distance matrix (angstroms):
                    1          2          3          4          5
     1  Si   0.000000
     2  H    1.480280   0.000000
     3  H    1.489970   2.394062   0.000000
     4  C    1.883345   3.003066   2.820760   0.000000
     5  C    2.678583   3.393712   3.993048   1.562785   0.000000
     6  C    2.917740   3.659004   4.152233   2.537679   1.534132
     7  C    2.116773   2.976780   3.056131   2.669106   2.505735
     8  C    2.821596   3.063579   3.609482   3.939403   3.667239
     9  N    3.572566   3.352213   4.615258   4.560870   3.904404
    10  C    4.524790   3.969450   5.398239   5.755350   5.171387
    11  C    4.971543   4.392338   5.494340   6.479591   6.169899
    12  C    6.278176   5.516911   6.731020   7.839815   7.512009
    13  C    7.173612   6.262630   7.789011   8.628566   8.128927
    14  C    8.384461   7.419987   8.867574   9.927241   9.503682
    15  C    8.490684   7.611495   8.748408  10.158664   9.916428
    16  S    7.245432   6.556287   7.378714   8.946685   8.829662
    17  C    4.417054   4.135469   4.612433   6.033007   6.017619
    18  N    5.153553   4.926638   4.968326   6.865130   7.075375
    19  S    4.803751   4.989496   4.236775   6.409944   6.902395
    20  N    3.511645   4.007377   3.200522   4.936675   5.359578
    21  C    3.331233   3.496941   3.561166   4.796341   4.869366
    22  C    2.955432   4.328717   3.343287   1.546408   2.556227
    23  C    4.205033   5.458419   4.691578   2.464252   3.025285
    24  C    5.382217   6.721097   5.645131   3.775195   4.322685
    25  C    5.605553   7.047788   5.556184   4.337358   5.084110
    26  C    4.791542   6.265648   4.501926   3.943398   4.894212
    27  C    5.625023   7.072059   5.022187   5.126088   6.139051
    28  C    5.428673   6.776026   4.532068   5.400979   6.521803
    29  C    4.289579   5.562178   3.324860   4.624649   5.742625
    30  C    3.146883   4.540272   2.541818   3.297323   4.364856
    31  C    3.379889   4.856551   3.206458   2.695291   3.754218
    32  H    2.425103   3.220464   3.199097   1.095529   2.207314
    33  H    3.707471   4.448065   4.929892   2.232767   1.092453
    34  H    2.851885   3.057782   4.294346   2.191877   1.099821
    35  H    3.727461   4.664252   4.767993   3.050450   2.170346
    36  H    3.623925   3.997400   4.953352   3.447323   2.175460
    37  H    2.736116   3.841521   3.241941   3.076616   3.151642
    38  H    5.254774   4.558907   6.265325   6.327266   5.546988
    39  H    7.136886   6.196703   7.940052   8.428264   7.763118
    40  H    9.260325   8.226691   9.807989  10.752491  10.254546
    41  H    9.380373   8.498341   9.531641  11.096037  10.921154
    42  H    4.488520   5.541057   5.205420   2.609570   2.825172
    43  H    6.320996   7.597110   6.662749   4.602765   4.971527
    44  H    6.674903   8.124337   6.548293   5.424163   6.129633
    45  H    6.691010   8.146271   6.108093   6.080618   7.023407
    46  H    6.349500   7.633162   5.321321   6.439348   7.585717
    47  H    4.490066   5.571278   3.349146   5.215929   6.311815
    48  H    2.490032   3.765532   1.975341   3.172923   4.079374
                    6          7          8          9         10
     6  C    0.000000
     7  C    1.534339   0.000000
     8  C    2.591745   1.466007   0.000000
     9  N    2.889704   2.418174   1.355979   0.000000
    10  C    4.236830   3.659236   2.345332   1.350192   0.000000
    11  C    5.233083   4.309788   2.864709   2.455848   1.399464
    12  C    6.620917   5.752043   4.311250   3.769284   2.496950
    13  C    7.301703   6.657964   5.261312   4.423588   3.074505
    14  C    8.694609   7.975455   6.557630   5.811659   4.463599
    15  C    9.072425   8.149810   6.713300   6.223066   4.929213
    16  S    7.924156   6.845650   5.423514   5.199216   4.056077
    17  C    5.071904   3.827854   2.484999   2.804141   2.376814
    18  N    6.186856   4.807846   3.627420   4.134645   3.679296
    19  S    6.082216   4.570223   3.800104   4.751768   4.730886
    20  N    4.499538   2.981767   2.462815   3.663632   4.075110
    21  C    3.894853   2.507035   1.412883   2.393966   2.733898
    22  C    3.133324   3.216754   4.644726   5.502127   6.758852
    23  C    3.823265   4.340251   5.799794   6.510615   7.816794
    24  C    4.893813   5.342860   6.802451   7.611317   8.929223
    25  C    5.373406   5.486538   6.877890   7.870929   9.144569
    26  C    4.994420   4.728109   6.013908   7.142646   8.338874
    27  C    6.067435   5.543710   6.651995   7.893857   8.991961
    28  C    6.343158   5.495697   6.379140   7.698483   8.654276
    29  C    5.489630   4.437158   5.188587   6.519791   7.407791
    30  C    4.175474   3.244844   4.225266   5.493056   6.515350
    31  C    3.873403   3.468591   4.765302   5.875787   7.057425
    32  H    3.486755   3.683978   4.838833   5.344580   6.455486
    33  H    2.160961   3.405770   4.611095   4.781788   6.063772
    34  H    2.147693   3.006199   3.830320   3.748038   4.871917
    35  H    1.098153   2.148652   3.262543   3.683570   5.017364
    36  H    1.094483   2.204299   2.694982   2.466013   3.734674
    37  H    2.143476   1.093868   2.093650   3.246349   4.409562
    38  H    4.703418   4.430686   3.268451   2.021449   1.088693
    39  H    6.984415   6.561838   5.253361   4.197228   2.919825
    40  H    9.488683   8.871811   7.478061   6.627113   5.283176
    41  H   10.087041   9.108262   7.679050   7.258985   5.982497
    42  H    3.916396   4.710410   6.124938   6.634235   7.932013
    43  H    5.626874   6.257498   7.719967   8.438470   9.773128
    44  H    6.370550   6.492755   7.857899   8.870436  10.140981
    45  H    6.941299   6.514276   7.628335   8.858881   9.970427
    46  H    7.373892   6.451625   7.222364   8.564220   9.442076
    47  H    5.961703   4.708922   5.172334   6.511339   7.229769
    48  H    3.704076   2.492331   3.260288   4.555242   5.503868
                   11         12         13         14         15
    11  C    0.000000
    12  C    1.447921   0.000000
    13  C    2.556162   1.383518   0.000000
    14  C    3.736103   2.324988   1.424218   0.000000
    15  C    3.863994   2.456535   2.320994   1.371712   0.000000
    16  S    2.744534   1.713551   2.554719   2.536555   1.678694
    17  C    1.425176   2.523278   3.836151   4.818824   4.594493
    18  N    2.505988   3.070284   4.449397   5.107815   4.515509
    19  S    3.846067   4.663421   6.041996   6.747782   6.121428
    20  N    3.673373   4.884368   6.182132   7.171265   6.838758
    21  C    2.499985   3.850241   5.055040   6.172917   6.046391
    22  C    7.394963   8.811965   9.712886  11.008452  11.141414
    23  C    8.584602  10.002859  10.822660  12.157973  12.375477
    24  C    9.640970  11.079125  11.958674  13.287703  13.445876
    25  C    9.687728  11.126389  12.124130  13.402970  13.427285
    26  C    8.723476  10.140240  11.220265  12.441833  12.364576
    27  C    9.185496  10.555246  11.731773  12.873335  12.652595
    28  C    8.643620   9.939686  11.188461  12.234842  11.888059
    29  C    7.345415   8.626936   9.877121  10.911206  10.570733
    30  C    6.675002   8.040160   9.197849  10.338522  10.162852
    31  C    7.463271   8.878344   9.928730  11.157428  11.122313
    32  H    7.175824   8.469098   9.193904  10.460230  10.717543
    33  H    7.136664   8.470763   9.027060  10.422023  10.891550
    34  H    5.947008   7.186077   7.661084   9.022501   9.534726
    35  H    5.966858   7.365761   8.080165   9.469584   9.814743
    36  H    4.917692   6.214945   6.727218   8.145807   8.661043
    37  H    4.877798   6.319707   7.332923   8.605150   8.659865
    38  H    2.180813   2.770217   2.822347   4.242222   4.994339
    39  H    2.919641   2.189447   1.085380   2.218226   3.346226
    40  H    4.715225   3.350564   2.222872   1.078638   2.158723
    41  H    4.861608   3.493511   3.370883   2.223661   1.075671
    42  H    8.824072  10.208339  10.912025  12.269636  12.595598
    43  H   10.561154  11.996066  12.820879  14.172708  14.387800
    44  H   10.659106  12.096345  13.116143  14.387214  14.380990
    45  H   10.170414  11.538482  12.720358  13.861069  13.625894
    46  H    9.309328  10.543193  11.836018  12.809773  12.362659
    47  H    6.967342   8.151898   9.454065  10.389249   9.935346
    48  H    5.612537   6.971067   8.133818   9.267114   9.098934
                   16         17         18         19         20
    16  S    0.000000
    17  C    3.100635   0.000000
    18  N    2.864644   1.347027   0.000000
    19  S    4.463090   2.438100   1.640886   0.000000
    20  N    5.236423   2.361108   2.497998   1.645550   0.000000
    21  C    4.564228   1.466020   2.318445   2.411402   1.346064
    22  C    9.801194   6.751424   7.456500   6.713586   5.197840
    23  C   11.080613   8.039072   8.808183   8.092252   6.549841
    24  C   12.080587   8.994309   9.677499   8.804719   7.292122
    25  C   11.963583   8.868282   9.391500   8.333385   6.918180
    26  C   10.851269   7.783891   8.189153   7.040805   5.705007
    27  C   11.064700   8.091012   8.282878   6.943087   5.828507
    28  C   10.266274   7.427608   7.421859   5.961912   5.085265
    29  C    8.964576   6.122650   6.129604   4.715696   3.799205
    30  C    8.626755   5.617136   5.916574   4.762341   3.475494
    31  C    9.654676   6.580731   7.070447   6.060084   4.641219
    32  H    9.576528   6.783027   7.576275   7.143503   5.774709
    33  H    9.831511   7.025422   8.101027   7.892422   6.310494
    34  H    8.591135   6.000325   7.118761   7.159043   5.726264
    35  H    8.610919   5.715472   6.768456   6.518539   4.893822
    36  H    7.656068   5.048654   6.287159   6.452714   4.966724
    37  H    7.241424   4.162590   4.952217   4.413302   2.770275
    38  H    4.470154   3.394570   4.641173   5.791597   5.159545
    39  H    3.607552   4.326663   5.168410   6.681983   6.577231
    40  H    3.572856   5.863994   6.183951   7.823172   8.221253
    41  H    2.376877   5.447293   5.160479   6.692414   7.588384
    42  H   11.400865   8.436452   9.307005   8.743656   7.187942
    43  H   13.056564   9.980315  10.709146   9.871255   8.341405
    44  H   12.888009   9.801021  10.271073   9.139772   7.778088
    45  H   12.022383   9.069255   9.234415   7.860210   6.793226
    46  H   10.715934   8.022050   7.852823   6.298687   5.664299
    47  H    8.308986   5.651719   5.448783   3.930313   3.342157
    48  H    7.576127   4.557090   4.908711   3.878295   2.494601
                   21         22         23         24         25
    21  C    0.000000
    22  C    5.362350   0.000000
    23  C    6.651473   1.404828   0.000000
    24  C    7.556441   2.429591   1.387462   0.000000
    25  C    7.409011   2.801254   2.403292   1.390615   0.000000
    26  C    6.342501   2.470465   2.818618   2.436831   1.396440
    27  C    6.707564   3.762607   4.225903   3.724407   2.445180
    28  C    6.151375   4.303176   5.101287   4.878216   3.722032
    29  C    4.872790   3.846481   4.946867   5.096736   4.206182
    30  C    4.240084   2.590494   3.818107   4.228779   3.645979
    31  C    5.149529   1.455341   2.464345   2.825055   2.424388
    32  H    5.643675   2.162627   2.709210   4.027513   4.733241
    33  H    5.852888   2.778248   2.707235   3.911694   4.889707
    34  H    5.053777   3.499161   3.952466   5.297202   6.116084
    35  H    4.457702   3.117073   3.585881   4.415694   4.837353
    36  H    4.102253   4.196848   4.779390   5.852787   6.400130
    37  H    2.720660   3.084465   4.219660   4.983565   4.886689
    38  H    3.816112   7.424443   8.373981   9.531044   9.866029
    39  H    5.337767   9.575998  10.590535  11.763040  12.043954
    40  H    7.186601  11.888647  12.997372  14.157276  14.331484
    41  H    6.912822  12.055965  13.318512  14.371409  14.302322
    42  H    7.117489   2.169914   1.088631   2.134686   3.381063
    43  H    8.550550   3.406010   2.139549   1.084380   2.157195
    44  H    8.340506   3.890531   3.379758   2.135412   1.089612
    45  H    7.689851   4.638905   4.863493   4.080370   2.693868
    46  H    6.839419   5.369985   6.137049   5.826882   4.596902
    47  H    4.570518   4.685103   5.887567   6.141959   5.289005
    48  H    3.189373   2.952175   4.310228   4.954974   4.553543
                   26         27         28         29         30
    26  C    0.000000
    27  C    1.412106   0.000000
    28  C    2.456856   1.392167   0.000000
    29  C    2.811038   2.365588   1.367859   0.000000
    30  C    2.347734   2.654835   2.345407   1.379209   0.000000
    31  C    1.414126   2.443830   2.864968   2.496086   1.414851
    32  H    4.479728   5.669963   5.960855   5.253052   4.026593
    33  H    5.002972   6.343466   6.936840   6.336204   4.968829
    34  H    5.905264   7.127148   7.414998   6.536698   5.180924
    35  H    4.593200   5.661435   6.105442   5.438033   4.178007
    36  H    6.068742   7.123257   7.371128   6.474605   5.194793
    37  H    4.026743   4.699328   4.655797   3.687758   2.589157
    38  H    9.158006   9.897764   9.635902   8.408427   7.447572
    39  H   11.242577  11.871034  11.445130  10.154168   9.347661
    40  H   13.408247  13.883417  13.272758  11.946755  11.335840
    41  H   13.196417  13.412037  12.576440  11.268188  10.953308
    42  H    3.905875   5.310934   6.164347   5.935199   4.741328
    43  H    3.417986   4.596567   5.831190   6.147015   5.311990
    44  H    2.154603   2.677822   4.058683   4.823033   4.498949
    45  H    2.171241   1.088262   2.127886   3.329856   3.730132
    46  H    3.439649   2.175547   1.080518   2.116219   3.329662
    47  H    3.893415   3.375843   2.165076   1.084762   2.129784
    48  H    3.336154   3.688852   3.238793   2.017494   1.072153
                   31         32         33         34         35
    31  C    0.000000
    32  H    3.357722   0.000000
    33  H    4.095600   2.654217   0.000000
    34  H    4.701370   2.473608   1.751358   0.000000
    35  H    3.715581   4.036807   2.350015   3.010347   0.000000
    36  H    4.964797   4.272943   2.659279   2.332907   1.745345
    37  H    2.925107   4.149563   3.874420   3.880324   2.224978
    38  H    7.871814   6.952939   6.347866   5.090799   5.494748
    39  H    9.937584   8.965856   8.590059   7.214982   7.776311
    40  H   12.108470  11.244424  11.137735   9.702591  10.276796
    41  H   11.974283  11.637940  11.911811  10.548072  10.821207
    42  H    3.460299   2.591207   2.237077   3.572460   3.793317
    43  H    3.909425   4.729020   4.359596   5.883758   5.095440
    44  H    3.413203   5.784726   5.862777   7.168165   5.747107
    45  H    3.427999   6.593979   7.116121   8.045236   6.423668
    46  H    3.940165   6.961026   8.016511   8.459560   7.135766
    47  H    3.444578   5.833432   7.025845   6.997916   6.029304
    48  H    2.194262   3.991492   4.862515   4.761947   3.906018
                   36         37         38         39         40
    36  H    0.000000
    37  H    2.933983   0.000000
    38  H    3.991903   5.256045   0.000000
    39  H    6.288167   7.326612   2.298129   0.000000
    40  H    8.867560   9.547335   4.887481   2.640160   0.000000
    41  H    9.708024   9.575606   6.069559   4.359417   2.656472
    42  H    4.718552   4.807336   8.364192  10.582732  13.048135
    43  H    6.498612   5.945783  10.306822  12.565466  15.013550
    44  H    7.371859   5.819904  10.871649  13.050515  15.327042
    45  H    7.979359   5.627948  10.868024  12.858025  14.875357
    46  H    8.383252   5.594710  10.456481  12.167190  13.864834
    47  H    6.864623   4.034170   8.276122   9.837082  11.442265
    48  H    4.622084   1.970414   6.464685   8.306332  10.265645
                   41         42         43         44         45
    41  H    0.000000
    42  H   13.567441   0.000000
    43  H   15.332429   2.441058   0.000000
    44  H   15.241861   4.261254   2.463215   0.000000
    45  H   14.375367   5.927740   4.769807   2.466796   0.000000
    46  H   12.984725   7.201193   6.726099   4.754988   2.487902
    47  H   10.564539   6.826486   7.202659   5.900005   4.255857
    48  H    9.900802   5.094983   6.031092   5.460821   4.746249
                   46         47         48
    46  H    0.000000
    47  H    2.494794   0.000000
    48  H    4.117428   2.287724   0.000000
 Stoichiometry    C23H19N3S2Si
 Framework group  C1[X(C23H19N3S2Si)]
 Deg. of freedom   138
 Full point group                 C1      NOp   1
 Largest Abelian subgroup         C1      NOp   1
 Largest concise Abelian subgroup C1      NOp   1
                         Standard orientation:                         
 ---------------------------------------------------------------------
 Center     Atomic      Atomic             Coordinates (Angstroms)
 Number     Number       Type             X           Y           Z
 ---------------------------------------------------------------------
      1         14           0       -1.175499   -0.915161    1.534805
      2          1           0       -0.009112   -1.460638    2.265026
      3          1           0       -1.420371    0.461257    2.050092
      4          6           0       -2.764520   -1.843138    1.133733
      5          6           0       -2.236274   -2.986673    0.208756
      6          6           0       -1.450376   -2.391601   -0.966750
      7          6           0       -0.861928   -1.035687   -0.555141
      8          6           0        0.582239   -0.811244   -0.669954
      9          7           0        1.388683   -1.898386   -0.750248
     10          6           0        2.723612   -1.765132   -0.597846
     11          6           0        3.417970   -0.578447   -0.336797
     12          6           0        4.855490   -0.538206   -0.168300
     13          6           0        5.761934   -1.583416   -0.164068
     14          6           0        7.084784   -1.134950    0.114033
     15          6           0        7.145577    0.224255    0.288558
     16         16           0        5.659444    0.961677    0.032368
     17          6           0        2.593031    0.577829   -0.220051
     18          7           0        2.934143    1.841902    0.096560
     19         16           0        1.578480    2.765370    0.140062
     20          7           0        0.472057    1.614545   -0.259017
     21          6           0        1.145415    0.460102   -0.419451
     22          6           0       -3.918493   -1.076718    0.446474
     23          6           0       -5.050194   -1.875736    0.213314
     24          6           0       -6.192609   -1.342779   -0.366250
     25          6           0       -6.245987    0.013801   -0.667333
     26          6           0       -5.183403    0.875159   -0.386219
     27          6           0       -5.311624    2.270809   -0.558746
     28          6           0       -4.365673    3.171113   -0.076296
     29          6           0       -3.134756    2.684905    0.269369
     30          6           0       -2.957980    1.318098    0.216400
     31          6           0       -3.974799    0.339443    0.115813
     32          1           0       -3.127774   -2.243864    2.086440
     33          1           0       -3.028892   -3.635034   -0.171819
     34          1           0       -1.557959   -3.638278    0.778760
     35          1           0       -2.119659   -2.230999   -1.822441
     36          1           0       -0.690504   -3.096639   -1.318047
     37          1           0       -1.386925   -0.253980   -1.111790
     38          1           0        3.232578   -2.723927   -0.681019
     39          1           0        5.500259   -2.624942   -0.321548
     40          1           0        7.946800   -1.778131    0.195938
     41          1           0        7.981096    0.856919    0.530865
     42          1           0       -5.047187   -2.929548    0.486426
     43          1           0       -7.046899   -1.985613   -0.547453
     44          1           0       -7.168226    0.414762   -1.086809
     45          1           0       -6.189851    2.679019   -1.055129
     46          1           0       -4.543921    4.235678   -0.026839
     47          1           0       -2.293126    3.316564    0.532758
     48          1           0       -1.912920    1.079747    0.239888
 ---------------------------------------------------------------------
 Rotational constants (GHZ):      0.3544477      0.0723637      0.0625316
 Standard basis: 6-31++G(d,p) (6D, 7F)
 There are   677 symmetry adapted basis functions of A   symmetry.
 Integral buffers will be    131072 words long.
 Raffenetti 2 integral format.
 Two-electron integral symmetry is turned on.
   677 basis functions,  1152 primitive gaussians,   677 cartesian basis functions
   112 alpha electrons      112 beta electrons
       nuclear repulsion energy      3065.6928311875 Hartrees.
 NAtoms=   48 NActive=   48 NUniq=   48 SFac= 1.00D+00 NAtFMM=   60 NAOKFM=F Big=F
 One-electron integrals computed using PRISM.
 NBasis=   677 RedAO= T  NBF=   677
 NBsUse=   668 1.00D-06 NBFU=   668
 Harris functional with IExCor=  402 diagonalized for initial guess.
 ExpMin= 3.31D-02 ExpMax= 2.19D+04 ExpMxC= 3.30D+03 IAcc=3 IRadAn=         5 AccDes= 0.00D+00
 HarFok:  IExCor=  402 AccDes= 0.00D+00 IRadAn=         5 IDoV= 1
 ScaDFX=  1.000000  1.000000  1.000000  1.000000
 FoFCou: FMM=F IPFlag=           0 FMFlag=      100000 FMFlg1=           0
         NFxFlg=           0 DoJE=T BraDBF=F KetDBF=T FulRan=T
         Omega=  0.000000  0.000000  1.000000  0.000000  0.000000 ICntrl=     500 IOpCl=  0
         NMat0=    1 NMatS0=    1 NMatT0=    0 NMatD0=    1 NMtDS0=    0 NMtDT0=    0
         I1Cent=           4 NGrid=           0.
 Petite list used in FoFCou.
 Initial guess orbital symmetries:
       Occupied  (A) (A) (A) (A) (A) (A) (A) (A) (A) (A) (A) (A)
                 (A) (A) (A) (A) (A) (A) (A) (A) (A) (A) (A) (A)
                 (A) (A) (A) (A) (A) (A) (A) (A) (A) (A) (A) (A)
                 (A) (A) (A) (A) (A) (A) (A) (A) (A) (A) (A) (A)
                 (A) (A) (A) (A) (A) (A) (A) (A) (A) (A) (A) (A)
                 (A) (A) (A) (A) (A) (A) (A) (A) (A) (A) (A) (A)
                 (A) (A) (A) (A) (A) (A) (A) (A) (A) (A) (A) (A)
                 (A) (A) (A) (A) (A) (A) (A) (A) (A) (A) (A) (A)
                 (A) (A) (A) (A) (A) (A) (A) (A) (A) (A) (A) (A)
                 (A) (A) (A) (A)
       Virtual   (A) (A) (A) (A) (A) (A) (A) (A) (A) (A) (A) (A)
                 (A) (A) (A) (A) (A) (A) (A) (A) (A) (A) (A) (A)
                 (A) (A) (A) (A) (A) (A) (A) (A) (A) (A) (A) (A)
                 (A) (A) (A) (A) (A) (A) (A) (A) (A) (A) (A) (A)
                 (A) (A) (A) (A) (A) (A) (A) (A) (A) (A) (A) (A)
                 (A) (A) (A) (A) (A) (A) (A) (A) (A) (A) (A) (A)
                 (A) (A) (A) (A) (A) (A) (A) (A) (A) (A) (A) (A)
                 (A) (A) (A) (A) (A) (A) (A) (A) (A) (A) (A) (A)
                 (A) (A) (A) (A) (A) (A) (A) (A) (A) (A) (A) (A)
                 (A) (A) (A) (A) (A) (A) (A) (A) (A) (A) (A) (A)
                 (A) (A) (A) (A) (A) (A) (A) (A) (A) (A) (A) (A)
                 (A) (A) (A) (A) (A) (A) (A) (A) (A) (A) (A) (A)
                 (A) (A) (A) (A) (A) (A) (A) (A) (A) (A) (A) (A)
                 (A) (A) (A) (A) (A) (A) (A) (A) (A) (A) (A) (A)
                 (A) (A) (A) (A) (A) (A) (A) (A) (A) (A) (A) (A)
                 (A) (A) (A) (A) (A) (A) (A) (A) (A) (A) (A) (A)
                 (A) (A) (A) (A) (A) (A) (A) (A) (A) (A) (A) (A)
                 (A) (A) (A) (A) (A) (A) (A) (A) (A) (A) (A) (A)
                 (A) (A) (A) (A) (A) (A) (A) (A) (A) (A) (A) (A)
                 (A) (A) (A) (A) (A) (A) (A) (A) (A) (A) (A) (A)
                 (A) (A) (A) (A) (A) (A) (A) (A) (A) (A) (A) (A)
                 (A) (A) (A) (A) (A) (A) (A) (A) (A) (A) (A) (A)
                 (A) (A) (A) (A) (A) (A) (A) (A) (A) (A) (A) (A)
                 (A) (A) (A) (A) (A) (A) (A) (A) (A) (A) (A) (A)
                 (A) (A) (A) (A) (A) (A) (A) (A) (A) (A) (A) (A)
                 (A) (A) (A) (A) (A) (A) (A) (A) (A) (A) (A) (A)
                 (A) (A) (A) (A) (A) (A) (A) (A) (A) (A) (A) (A)
                 (A) (A) (A) (A) (A) (A) (A) (A) (A) (A) (A) (A)
                 (A) (A) (A) (A) (A) (A) (A) (A) (A) (A) (A) (A)
                 (A) (A) (A) (A) (A) (A) (A) (A) (A) (A) (A) (A)
                 (A) (A) (A) (A) (A) (A) (A) (A) (A) (A) (A) (A)
                 (A) (A) (A) (A) (A) (A) (A) (A) (A) (A) (A) (A)
                 (A) (A) (A) (A) (A) (A) (A) (A) (A) (A) (A) (A)
                 (A) (A) (A) (A) (A) (A) (A) (A) (A) (A) (A) (A)
                 (A) (A) (A) (A) (A) (A) (A) (A) (A) (A) (A) (A)
                 (A) (A) (A) (A) (A) (A) (A) (A) (A) (A) (A) (A)
                 (A) (A) (A) (A) (A) (A) (A) (A) (A) (A) (A) (A)
                 (A) (A) (A) (A) (A) (A) (A) (A) (A) (A) (A) (A)
                 (A) (A) (A) (A) (A) (A) (A) (A) (A) (A) (A) (A)
                 (A) (A) (A) (A) (A) (A) (A) (A) (A) (A) (A) (A)
                 (A) (A) (A) (A) (A) (A) (A) (A) (A) (A) (A) (A)
                 (A) (A) (A) (A) (A) (A) (A) (A) (A) (A) (A) (A)
                 (A) (A) (A) (A) (A) (A) (A) (A) (A) (A) (A) (A)
                 (A) (A) (A) (A) (A) (A) (A) (A) (A) (A) (A) (A)
                 (A) (A) (A) (A) (A) (A) (A) (A) (A) (A) (A) (A)
                 (A) (A) (A) (A) (A) (A) (A) (A) (A) (A) (A) (A)
                 (A) (A) (A) (A)
 The electronic state of the initial guess is 1-A.
 Requested convergence on RMS density matrix=1.00D-08 within 128 cycles.
 Requested convergence on MAX density matrix=1.00D-06.
 Requested convergence on             energy=1.00D-06.
 No special actions if energy rises.
 EnCoef did     4 forward-backward iterations
 EnCoef did     3 forward-backward iterations
 Restarting incremental Fock formation.
 SCF Done:  E(RB3LYP) =  -2137.98624735     A.U. after   25 cycles
             Convg  =    0.3612D-08             -V/T =  2.0063

 **********************************************************************

            Population analysis using the SCF density.

 **********************************************************************

 Orbital symmetries:
       Occupied  (A) (A) (A) (A) (A) (A) (A) (A) (A) (A) (A) (A)
                 (A) (A) (A) (A) (A) (A) (A) (A) (A) (A) (A) (A)
                 (A) (A) (A) (A) (A) (A) (A) (A) (A) (A) (A) (A)
                 (A) (A) (A) (A) (A) (A) (A) (A) (A) (A) (A) (A)
                 (A) (A) (A) (A) (A) (A) (A) (A) (A) (A) (A) (A)
                 (A) (A) (A) (A) (A) (A) (A) (A) (A) (A) (A) (A)
                 (A) (A) (A) (A) (A) (A) (A) (A) (A) (A) (A) (A)
                 (A) (A) (A) (A) (A) (A) (A) (A) (A) (A) (A) (A)
                 (A) (A) (A) (A) (A) (A) (A) (A) (A) (A) (A) (A)
                 (A) (A) (A) (A)
       Virtual   (A) (A) (A) (A) (A) (A) (A) (A) (A) (A) (A) (A)
                 (A) (A) (A) (A) (A) (A) (A) (A) (A) (A) (A) (A)
                 (A) (A) (A) (A) (A) (A) (A) (A) (A) (A) (A) (A)
                 (A) (A) (A) (A) (A) (A) (A) (A) (A) (A) (A) (A)
                 (A) (A) (A) (A) (A) (A) (A) (A) (A) (A) (A) (A)
                 (A) (A) (A) (A) (A) (A) (A) (A) (A) (A) (A) (A)
                 (A) (A) (A) (A) (A) (A) (A) (A) (A) (A) (A) (A)
                 (A) (A) (A) (A) (A) (A) (A) (A) (A) (A) (A) (A)
                 (A) (A) (A) (A) (A) (A) (A) (A) (A) (A) (A) (A)
                 (A) (A) (A) (A) (A) (A) (A) (A) (A) (A) (A) (A)
                 (A) (A) (A) (A) (A) (A) (A) (A) (A) (A) (A) (A)
                 (A) (A) (A) (A) (A) (A) (A) (A) (A) (A) (A) (A)
                 (A) (A) (A) (A) (A) (A) (A) (A) (A) (A) (A) (A)
                 (A) (A) (A) (A) (A) (A) (A) (A) (A) (A) (A) (A)
                 (A) (A) (A) (A) (A) (A) (A) (A) (A) (A) (A) (A)
                 (A) (A) (A) (A) (A) (A) (A) (A) (A) (A) (A) (A)
                 (A) (A) (A) (A) (A) (A) (A) (A) (A) (A) (A) (A)
                 (A) (A) (A) (A) (A) (A) (A) (A) (A) (A) (A) (A)
                 (A) (A) (A) (A) (A) (A) (A) (A) (A) (A) (A) (A)
                 (A) (A) (A) (A) (A) (A) (A) (A) (A) (A) (A) (A)
                 (A) (A) (A) (A) (A) (A) (A) (A) (A) (A) (A) (A)
                 (A) (A) (A) (A) (A) (A) (A) (A) (A) (A) (A) (A)
                 (A) (A) (A) (A) (A) (A) (A) (A) (A) (A) (A) (A)
                 (A) (A) (A) (A) (A) (A) (A) (A) (A) (A) (A) (A)
                 (A) (A) (A) (A) (A) (A) (A) (A) (A) (A) (A) (A)
                 (A) (A) (A) (A) (A) (A) (A) (A) (A) (A) (A) (A)
                 (A) (A) (A) (A) (A) (A) (A) (A) (A) (A) (A) (A)
                 (A) (A) (A) (A) (A) (A) (A) (A) (A) (A) (A) (A)
                 (A) (A) (A) (A) (A) (A) (A) (A) (A) (A) (A) (A)
                 (A) (A) (A) (A) (A) (A) (A) (A) (A) (A) (A) (A)
                 (A) (A) (A) (A) (A) (A) (A) (A) (A) (A) (A) (A)
                 (A) (A) (A) (A) (A) (A) (A) (A) (A) (A) (A) (A)
                 (A) (A) (A) (A) (A) (A) (A) (A) (A) (A) (A) (A)
                 (A) (A) (A) (A) (A) (A) (A) (A) (A) (A) (A) (A)
                 (A) (A) (A) (A) (A) (A) (A) (A) (A) (A) (A) (A)
                 (A) (A) (A) (A) (A) (A) (A) (A) (A) (A) (A) (A)
                 (A) (A) (A) (A) (A) (A) (A) (A) (A) (A) (A) (A)
                 (A) (A) (A) (A) (A) (A) (A) (A) (A) (A) (A) (A)
                 (A) (A) (A) (A) (A) (A) (A) (A) (A) (A) (A) (A)
                 (A) (A) (A) (A) (A) (A) (A) (A) (A) (A) (A) (A)
                 (A) (A) (A) (A) (A) (A) (A) (A) (A) (A) (A) (A)
                 (A) (A) (A) (A) (A) (A) (A) (A) (A) (A) (A) (A)
                 (A) (A) (A) (A) (A) (A) (A) (A) (A) (A) (A) (A)
                 (A) (A) (A) (A) (A) (A) (A) (A) (A) (A) (A) (A)
                 (A) (A) (A) (A) (A) (A) (A) (A) (A) (A) (A) (A)
                 (A) (A) (A) (A) (A) (A) (A) (A) (A) (A) (A) (A)
                 (A) (A) (A) (A)
 The electronic state is 1-A.
 Alpha  occ. eigenvalues --  -88.99544 -88.91052 -66.14908 -14.39248 -14.38528
 Alpha  occ. eigenvalues --  -14.34269 -10.26209 -10.25558 -10.25103 -10.23653
 Alpha  occ. eigenvalues --  -10.22756 -10.22595 -10.21879 -10.21201 -10.20932
 Alpha  occ. eigenvalues --  -10.20200 -10.20014 -10.19919 -10.19751 -10.19738
 Alpha  occ. eigenvalues --  -10.19687 -10.19619 -10.19535 -10.19525 -10.19302
 Alpha  occ. eigenvalues --  -10.19287 -10.18960 -10.18519 -10.18364  -8.04784
 Alpha  occ. eigenvalues --   -7.97114  -6.01352  -6.00764  -6.00544  -5.93519
 Alpha  occ. eigenvalues --   -5.93116  -5.92854  -5.29485  -3.65508  -3.65324
 Alpha  occ. eigenvalues --   -3.65184  -1.03296  -0.94945  -0.91023  -0.89268
 Alpha  occ. eigenvalues --   -0.88559  -0.83786  -0.82265  -0.81645  -0.79605
 Alpha  occ. eigenvalues --   -0.77265  -0.75640  -0.74585  -0.74245  -0.72430
 Alpha  occ. eigenvalues --   -0.69884  -0.68143  -0.65887  -0.64267  -0.63554
 Alpha  occ. eigenvalues --   -0.61665  -0.61140  -0.58760  -0.57143  -0.56467
 Alpha  occ. eigenvalues --   -0.54413  -0.53640  -0.52431  -0.51824  -0.51490
 Alpha  occ. eigenvalues --   -0.51258  -0.50212  -0.49889  -0.48133  -0.46879
 Alpha  occ. eigenvalues --   -0.46270  -0.45098  -0.44932  -0.43534  -0.43101
 Alpha  occ. eigenvalues --   -0.42772  -0.41766  -0.40677  -0.40453  -0.40296
 Alpha  occ. eigenvalues --   -0.40284  -0.40088  -0.39489  -0.38861  -0.38557
 Alpha  occ. eigenvalues --   -0.37077  -0.36669  -0.36297  -0.35710  -0.35083
 Alpha  occ. eigenvalues --   -0.35045  -0.34813  -0.34466  -0.33357  -0.32655
 Alpha  occ. eigenvalues --   -0.31887  -0.30957  -0.30510  -0.29550  -0.29056
 Alpha  occ. eigenvalues --   -0.27564  -0.27096  -0.26248  -0.25663  -0.25384
 Alpha  occ. eigenvalues --   -0.21108  -0.20612
 Alpha virt. eigenvalues --   -0.11002  -0.05792  -0.03894  -0.02214  -0.02093
 Alpha virt. eigenvalues --   -0.01904  -0.01653  -0.00903  -0.00353   0.00130
 Alpha virt. eigenvalues --    0.00323   0.00804   0.00984   0.01122   0.01205
 Alpha virt. eigenvalues --    0.01572   0.02024   0.02070   0.02566   0.03173
 Alpha virt. eigenvalues --    0.03272   0.03669   0.03904   0.04057   0.04561
 Alpha virt. eigenvalues --    0.04823   0.05245   0.05367   0.05538   0.06045
 Alpha virt. eigenvalues --    0.06307   0.06642   0.07068   0.07108   0.07205
 Alpha virt. eigenvalues --    0.07422   0.07651   0.08036   0.08300   0.08435
 Alpha virt. eigenvalues --    0.08650   0.09218   0.09422   0.09559   0.10156
 Alpha virt. eigenvalues --    0.10478   0.10697   0.10782   0.11134   0.11167
 Alpha virt. eigenvalues --    0.11252   0.11487   0.11794   0.11853   0.12045
 Alpha virt. eigenvalues --    0.12338   0.12557   0.12791   0.12869   0.13110
 Alpha virt. eigenvalues --    0.13145   0.13334   0.13477   0.13735   0.13892
 Alpha virt. eigenvalues --    0.14253   0.14300   0.14394   0.14592   0.14720
 Alpha virt. eigenvalues --    0.15230   0.15337   0.15624   0.15772   0.16115
 Alpha virt. eigenvalues --    0.16257   0.16418   0.16575   0.16662   0.16942
 Alpha virt. eigenvalues --    0.17288   0.17353   0.17586   0.17762   0.18059
 Alpha virt. eigenvalues --    0.18309   0.18556   0.18624   0.18829   0.19147
 Alpha virt. eigenvalues --    0.19297   0.19550   0.19885   0.19974   0.20370
 Alpha virt. eigenvalues --    0.20479   0.20713   0.21038   0.21190   0.21265
 Alpha virt. eigenvalues --    0.21604   0.21775   0.22268   0.22332   0.22663
 Alpha virt. eigenvalues --    0.23037   0.23196   0.23450   0.23750   0.24034
 Alpha virt. eigenvalues --    0.24128   0.24252   0.24852   0.25022   0.25088
 Alpha virt. eigenvalues --    0.25463   0.25777   0.25875   0.25976   0.26247
 Alpha virt. eigenvalues --    0.26576   0.26909   0.27012   0.27285   0.27778
 Alpha virt. eigenvalues --    0.27829   0.28045   0.28263   0.28732   0.29058
 Alpha virt. eigenvalues --    0.29279   0.29483   0.29715   0.29926   0.30124
 Alpha virt. eigenvalues --    0.30222   0.30632   0.31011   0.31148   0.31315
 Alpha virt. eigenvalues --    0.31500   0.31869   0.31992   0.32483   0.32523
 Alpha virt. eigenvalues --    0.32753   0.32912   0.33312   0.33899   0.34262
 Alpha virt. eigenvalues --    0.34391   0.34603   0.34894   0.35074   0.35459
 Alpha virt. eigenvalues --    0.35953   0.36357   0.36558   0.36936   0.37329
 Alpha virt. eigenvalues --    0.37437   0.37643   0.37826   0.38231   0.38898
 Alpha virt. eigenvalues --    0.39401   0.39607   0.39920   0.40832   0.41409
 Alpha virt. eigenvalues --    0.41957   0.42124   0.42827   0.43201   0.43821
 Alpha virt. eigenvalues --    0.44557   0.44990   0.45682   0.46004   0.46673
 Alpha virt. eigenvalues --    0.47366   0.47703   0.48179   0.49390   0.49997
 Alpha virt. eigenvalues --    0.51848   0.52241   0.52883   0.53482   0.53949
 Alpha virt. eigenvalues --    0.54399   0.55118   0.56452   0.57877   0.60416
 Alpha virt. eigenvalues --    0.60512   0.61226   0.62811   0.63907   0.64675
 Alpha virt. eigenvalues --    0.65582   0.66356   0.66604   0.67361   0.67644
 Alpha virt. eigenvalues --    0.68226   0.68731   0.69000   0.70233   0.70424
 Alpha virt. eigenvalues --    0.70818   0.71178   0.71309   0.72087   0.72442
 Alpha virt. eigenvalues --    0.72926   0.73389   0.73449   0.73884   0.74014
 Alpha virt. eigenvalues --    0.74442   0.74503   0.74918   0.75917   0.76406
 Alpha virt. eigenvalues --    0.76697   0.76952   0.77206   0.78006   0.78268
 Alpha virt. eigenvalues --    0.78355   0.79699   0.80061   0.80442   0.80835
 Alpha virt. eigenvalues --    0.81602   0.81868   0.82202   0.82920   0.83253
 Alpha virt. eigenvalues --    0.83878   0.84389   0.85459   0.86009   0.86875
 Alpha virt. eigenvalues --    0.87367   0.87810   0.88260   0.88795   0.90587
 Alpha virt. eigenvalues --    0.91860   0.92143   0.92661   0.93471   0.93659
 Alpha virt. eigenvalues --    0.93930   0.94381   0.95111   0.95449   0.95980
 Alpha virt. eigenvalues --    0.96859   0.98103   0.98506   0.98927   0.99567
 Alpha virt. eigenvalues --    1.00194   1.00601   1.01651   1.01802   1.02395
 Alpha virt. eigenvalues --    1.02566   1.02881   1.03802   1.04173   1.05093
 Alpha virt. eigenvalues --    1.05306   1.05718   1.06402   1.06711   1.07284
 Alpha virt. eigenvalues --    1.08501   1.09424   1.09926   1.10997   1.11597
 Alpha virt. eigenvalues --    1.11979   1.12618   1.12813   1.13744   1.14465
 Alpha virt. eigenvalues --    1.14923   1.15780   1.16359   1.16781   1.17249
 Alpha virt. eigenvalues --    1.18323   1.18676   1.18859   1.19157   1.20872
 Alpha virt. eigenvalues --    1.21841   1.21926   1.22443   1.23152   1.23515
 Alpha virt. eigenvalues --    1.24191   1.25067   1.25694   1.26158   1.26578
 Alpha virt. eigenvalues --    1.27122   1.27469   1.27683   1.28263   1.29701
 Alpha virt. eigenvalues --    1.29908   1.31025   1.32094   1.32577   1.33435
 Alpha virt. eigenvalues --    1.34200   1.34390   1.34673   1.35312   1.36413
 Alpha virt. eigenvalues --    1.37002   1.37554   1.38167   1.38540   1.39333
 Alpha virt. eigenvalues --    1.40337   1.40880   1.41631   1.43102   1.43914
 Alpha virt. eigenvalues --    1.44285   1.45271   1.46083   1.47430   1.49611
 Alpha virt. eigenvalues --    1.50044   1.51169   1.52988   1.53293   1.54567
 Alpha virt. eigenvalues --    1.55319   1.57909   1.58782   1.59059   1.61480
 Alpha virt. eigenvalues --    1.62957   1.66897   1.67513   1.68871   1.71058
 Alpha virt. eigenvalues --    1.72462   1.72834   1.74114   1.74674   1.76389
 Alpha virt. eigenvalues --    1.77884   1.78415   1.79075   1.79421   1.80321
 Alpha virt. eigenvalues --    1.80563   1.81453   1.82284   1.83795   1.84806
 Alpha virt. eigenvalues --    1.85334   1.86094   1.86896   1.87777   1.88242
 Alpha virt. eigenvalues --    1.89066   1.90183   1.91198   1.91417   1.91626
 Alpha virt. eigenvalues --    1.92341   1.92636   1.92754   1.93023   1.94435
 Alpha virt. eigenvalues --    1.95472   1.96996   1.97662   1.98876   1.99164
 Alpha virt. eigenvalues --    1.99953   2.00623   2.02107   2.02322   2.03264
 Alpha virt. eigenvalues --    2.03927   2.04973   2.05302   2.06738   2.09178
 Alpha virt. eigenvalues --    2.10467   2.10600   2.11833   2.12836   2.13345
 Alpha virt. eigenvalues --    2.14305   2.15895   2.17192   2.18732   2.19745
 Alpha virt. eigenvalues --    2.21540   2.21920   2.23185   2.23271   2.23757
 Alpha virt. eigenvalues --    2.25132   2.25904   2.26940   2.27593   2.27963
 Alpha virt. eigenvalues --    2.28258   2.29325   2.29704   2.30666   2.31403
 Alpha virt. eigenvalues --    2.32732   2.33250   2.34399   2.34833   2.36693
 Alpha virt. eigenvalues --    2.36935   2.38865   2.39350   2.40139   2.40412
 Alpha virt. eigenvalues --    2.41342   2.42158   2.42615   2.43473   2.44276
 Alpha virt. eigenvalues --    2.45553   2.45798   2.47144   2.47452   2.47995
 Alpha virt. eigenvalues --    2.49062   2.50074   2.50287   2.51161   2.52294
 Alpha virt. eigenvalues --    2.52712   2.53239   2.53808   2.54355   2.55183
 Alpha virt. eigenvalues --    2.56083   2.56859   2.57629   2.58677   2.59267
 Alpha virt. eigenvalues --    2.60563   2.60794   2.61500   2.62196   2.63255
 Alpha virt. eigenvalues --    2.63657   2.64245   2.65107   2.65833   2.66954
 Alpha virt. eigenvalues --    2.68179   2.68354   2.69791   2.70123   2.70413
 Alpha virt. eigenvalues --    2.72610   2.72697   2.73334   2.74340   2.75343
 Alpha virt. eigenvalues --    2.77055   2.77565   2.78392   2.79379   2.80021
 Alpha virt. eigenvalues --    2.80523   2.81417   2.83528   2.83807   2.86236
 Alpha virt. eigenvalues --    2.86840   2.89612   2.90317   2.93193   2.93981
 Alpha virt. eigenvalues --    2.94564   2.98066   3.02096   3.03192   3.04876
 Alpha virt. eigenvalues --    3.06898   3.11024   3.11906   3.14892   3.17599
 Alpha virt. eigenvalues --    3.18182   3.19984   3.26778   3.28490   3.29218
 Alpha virt. eigenvalues --    3.29620   3.33044   3.34412   3.35507   3.37080
 Alpha virt. eigenvalues --    3.39695   3.42762   3.44628   3.46710   3.47387
 Alpha virt. eigenvalues --    3.49282   3.55380   3.58217   3.58647   3.61354
 Alpha virt. eigenvalues --    3.76440   3.78310   3.88860   3.97555   4.01518
 Alpha virt. eigenvalues --    4.15944   4.26634   4.28234   4.33997   4.34353
 Alpha virt. eigenvalues --    4.36719   4.37603   4.38315   4.39537   4.41254
 Alpha virt. eigenvalues --    4.42801   4.43053   4.48376   4.51490   4.52344
 Alpha virt. eigenvalues --    4.53627   4.55156   4.57149   4.60997   4.67423
 Alpha virt. eigenvalues --    4.69739   4.70533   4.74838   4.79860   4.85514
 Alpha virt. eigenvalues --    4.93279
          Condensed to atoms (all electrons):
              1          2          3          4          5          6
     1  Si  16.994547   0.187884  -0.389342  -2.246042  -0.508189  -0.804802
     2  H    0.187884   0.987864  -0.084497  -0.108560  -0.021512   0.057282
     3  H   -0.389342  -0.084497   1.151985   0.865519  -0.055672   0.115693
     4  C   -2.246042  -0.108560   0.865519  22.291461  -2.599098   1.138403
     5  C   -0.508189  -0.021512  -0.055672  -2.599098   8.010929  -0.902751
     6  C   -0.804802   0.057282   0.115693   1.138403  -0.902751  19.518014
     7  C   -1.661989  -0.014976   0.080807  -2.344123   1.363619  -6.969644
     8  C   -0.509117  -0.006444   0.012917   0.253493  -0.246208  -2.028508
     9  N    0.300060   0.024978  -0.016196   0.002867  -0.054218  -0.179150
    10  C    0.249608  -0.036038  -0.024751  -0.013918  -0.068464  -0.474713
    11  C    0.250767  -0.022918  -0.006195  -0.030012  -0.010643  -0.550814
    12  C   -0.056302   0.018743   0.003334  -0.001844   0.009342  -0.030007
    13  C    0.011058  -0.003420  -0.000550   0.009016  -0.010858  -0.063438
    14  C    0.011575  -0.001088  -0.000644  -0.000262  -0.000488  -0.014032
    15  C   -0.007475   0.001142   0.000669   0.000368   0.000057   0.003356
    16  S   -0.001678   0.004796   0.000860  -0.000172   0.000530   0.015288
    17  C    0.214138   0.020932  -0.033456   0.174678  -0.155924  -0.143820
    18  N   -0.007731   0.002490   0.001750   0.010243   0.001190  -0.014473
    19  S    0.074431   0.003257  -0.013246   0.000022  -0.013979  -0.066615
    20  N   -0.002524  -0.043032   0.058330   0.202270  -0.034921  -0.122612
    21  C    0.577266   0.036287  -0.072875   0.234689  -0.330212  -3.082266
    22  C    0.754009   0.130714  -0.417587  -8.885793   1.346386  -0.001716
    23  C   -0.406313   0.013686   0.098997   1.157194  -0.081290   0.257704
    24  C   -0.359948   0.012699   0.034861   0.860466  -0.015903   0.417388
    25  C    0.040800   0.016217  -0.078675  -2.142556   0.335006  -0.044584
    26  C    0.377325  -0.005632  -0.093497  -2.218788  -0.076542  -0.365610
    27  C   -0.082718  -0.008276   0.086116  -0.164007  -0.039175  -0.245358
    28  C    0.209230  -0.005295  -0.048259  -0.098870  -0.038071   0.015682
    29  C    0.122892  -0.010133   0.050049   0.911090  -0.185776   0.393655
    30  C   -0.417047  -0.001191   0.061593   1.830225  -0.448699  -0.271153
    31  C    0.250139   0.027378  -0.139712  -3.183099   0.678803  -0.442353
    32  H   -0.177328   0.008187   0.023426   0.502479  -0.058973   0.049367
    33  H    0.014417  -0.002533  -0.003933   0.056351   0.446540   0.186639
    34  H   -0.005884   0.008937  -0.010078  -0.386841   0.597614  -0.408052
    35  H    0.070133  -0.000724  -0.007281  -0.189937   0.017963   0.107182
    36  H   -0.097555  -0.002382   0.013414   0.155019  -0.093522   0.977054
    37  H   -0.416628   0.047455   0.043119  -0.261579   0.080701   0.301033
    38  H    0.003184  -0.008015  -0.000958   0.001734   0.007612   0.000565
    39  H   -0.000990   0.000599   0.000133   0.000260  -0.000872   0.000871
    40  H    0.000027   0.000010  -0.000001   0.000006   0.000005  -0.000088
    41  H   -0.000279   0.000079   0.000026   0.000009   0.000004   0.000114
    42  H    0.016304   0.000611  -0.001208  -0.312928   0.065162  -0.137507
    43  H    0.001552  -0.000136   0.000475   0.023806  -0.008907   0.008918
[...]
 ,0.00000232,0.00000395,0.00003247,0.00003043,-0.00002498,-0.00003553,-
 0.00002039,0.00001091,0.00005595,0.00001738,0.00000139,-0.00001828,-0.
 00001033,-0.00000375,0.00001171,-0.00000667,-0.00001943,0.00000298,0.0
 0000060,0.00000698,-0.00000369,-0.00000032,0.00000465,0.00000408,0.000
 00200,-0.00000764,-0.00000866,0.00000665,-0.00000090,-0.00000813,-0.00
 000279,0.00000342,0.00000476,0.00000167,0.00000699,-0.00000417,0.00000
 764,0.00000400,-0.00001453,-0.00000419,-0.00000658,0.00000437,0.000004
 47,0.00000651,-0.00000245,-0.00000504,-0.00001459,-0.00000716,-0.00015
 370,0.00006845,0.00041810,-0.00015494,0.00020003,-0.00000054,0.0000399
 1,0.00005393,-0.00037392,-0.00207588,-0.00011447,0.00090260,-0.0020250
 7,0.00508187,0.00291858,0.11403530,-0.18481390,-0.08666885,0.01459610,
 -0.01319411,-0.01436177,0.00368358,-0.00105983,0.00489053,-0.00048001,
 -0.00008632,0.00042018,0.00133836,0.00179693,0.00175378,-0.00000251,0.
 00002679,0.00000363,-0.00002271,-0.00000874,0.00001410,0.00000844,0.00
 000285,-0.00000228,-0.00000432,0.00000999,-0.00001378,0.00000411,-0.00
 000462,-0.00000813,-0.00000205,-0.00000070,-0.00000205,0.00000111,0.00
 000096,-0.00000022,-0.00000196,-0.00000232,0.00000118,-0.00000020,-0.0
 0000013,-0.00000005,-0.00000074,0.00000143,-0.00000026,0.00001270,0.00
 001752,-0.00001977,0.00007034,0.00004736,-0.00001677,0.00010551,0.0002
 6122,-0.00023446,-0.12698178,0.19306030,0.00002683,0.00015503,0.000041
 81,-0.00001012,-0.00002218,-0.00000990,-0.00001040,-0.00003471,-0.0000
 1062,0.00003070,0.00025208,-0.00037389,-0.00004433,-0.00000161,-0.0000
 2835,0.00001030,0.00001223,-0.00000628,0.00002169,-0.00003527,-0.00001
 222,-0.00001392,0.00001670,0.00002959,0.00001466,-0.00000850,-0.000005
 37,-0.00000701,-0.00000152,0.00001451,-0.00001265,-0.00002234,-0.00000
 270,-0.00000046,0.00000497,-0.00000024,0.00000478,-0.00000152,-0.00000
 404,0.00000134,-0.00000762,-0.00000579,-0.00000005,-0.00000321,-0.0000
 0830,0.00000175,0.00001125,0.00000548,0.00000737,0.00001587,-0.0000029
 3,0.00000418,0.00000197,-0.00001052,-0.00000223,-0.00000297,0.00000694
 ,0.00000488,0.00000578,-0.00000699,-0.00000601,-0.00001323,0.00000003,
 0.00086510,-0.00144012,-0.00012981,0.00001135,-0.00009617,0.00004284,-
 0.00023833,0.00027325,0.00014938,0.00001570,-0.00225699,0.00089761,0.0
 1696751,-0.02170426,-0.01036547,0.07674840,-0.08681821,-0.11842599,-0.
 00927165,0.01206368,0.01115398,0.00061011,0.00372392,-0.00041062,-0.00
 032118,0.00061873,-0.00074874,0.00125184,0.00306547,-0.00419930,0.0000
 9135,-0.00009652,-0.00011935,-0.00001509,0.00000213,0.00001582,0.00000
 678,-0.00000219,0.00000182,0.00000098,-0.00000782,0.00000022,0.0000039
 3,-0.00000923,0.00000093,0.00000457,-0.00000529,-0.00000488,0.00000177
 ,0.00000054,-0.00000066,-0.00000366,-0.00000062,0.00000033,-0.00000061
 ,-0.00000262,0.00000231,-0.00000099,0.00000359,0.00000508,-0.00003483,
 0.00007202,0.00000516,0.00003490,0.00003728,-0.00001209,-0.00049914,0.
 00116886,-0.00012973,-0.08447092,0.09177671,0.12172837,0.00005975,-0.0
 0001095,-0.00012439,-0.00001727,-0.00000089,0.00002368,-0.00000252,0.0
 0001109,0.00004998,0.00000453,-0.00001220,0.00001728,0.00003744,0.0000
 0800,-0.00000684,-0.00001472,0.00002093,-0.00003567,-0.00003330,0.0000
 0656,0.00002608,0.00001698,-0.00000364,-0.00004209,-0.00001759,-0.0000
 0748,0.00001189,0.00000647,0.00000378,-0.00000534,0.00000042,0.0000075
 2,-0.00000184,-0.00000192,-0.00000332,0.00000289,0.00000155,-0.0000060
 5,-0.00000664,-0.00000113,0.00000265,0.00000629,-0.00000759,0.00000029
 ,0.00000221,0.00000465,0.00000221,-0.00000160,0.00000420,0.00000103,0.
 00000052,-0.00000632,-0.00000258,0.00000659,0.00000477,0.00000326,-0.0
 0000108,-0.00000490,-0.00000161,-0.00000035,0.00000280,0.00000514,0.00
 000858,-0.00059573,-0.00048575,-0.00008980,0.00001576,0.00019668,0.000
 08650,-0.00045487,-0.00021128,-0.00034707,0.00041207,-0.00011700,-0.00
 022577,0.00543336,0.00516524,0.00091329,0.00599406,0.00146235,-0.01032
 346,-0.05890691,0.00050053,0.06900686,-0.00059991,-0.00391092,0.016555
 00,0.00204012,0.00476574,0.00204733,-0.00056091,0.00026485,-0.00046089
 ,-0.00000638,-0.00002032,-0.00000169,0.00002187,0.00000679,-0.00001111
 ,-0.00000536,-0.00000672,0.00001065,0.00001082,-0.00002024,0.00002990,
 -0.00001028,-0.00000269,0.00001991,0.00000734,-0.00000191,-0.00000030,
 -0.00000019,-0.00000066,0.00000132,0.00000089,0.00000171,-0.00000066,0
 .00000018,-0.00000125,0.00000194,0.00000068,0.00000048,0.00000330,0.00
 007126,0.00003151,0.00002554,-0.00000235,-0.00000146,-0.00005508,0.000
 10669,0.00006977,0.00004144,-0.00309606,-0.00242209,-0.00112329,0.0518
 0490,0.00001745,-0.00001741,0.00008214,-0.00000165,0.00000723,-0.00001
 361,-0.00001027,0.00000356,-0.00001478,-0.00000731,0.00003617,0.000026
 20,0.00003448,0.00000216,0.00002152,0.00000477,-0.00000163,0.00002930,
 0.00000686,0.00001387,-0.00000096,-0.00000326,0.00000195,0.00000061,-0
 .00000288,-0.00000348,-0.00000453,-0.00000235,-0.00000403,0.00000212,-
 0.00000441,-0.00000128,-0.00000127,-0.00000173,0.00000142,0.00000161,0
 .00000222,-0.00000681,-0.00000553,0.00000067,-0.00000293,0.00000147,-0
 .00000361,0.00000039,-0.00000383,0.00000376,0.00000649,0.00000174,0.00
 000551,0.00000381,-0.00000209,-0.00000037,-0.00000104,-0.00000333,0.00
 000077,0.00000034,0.00000107,0.,0.00000149,-0.00000179,0.00000112,-0.0
 0000278,0.00000042,-0.00042065,0.00002275,-0.00036335,0.00022874,-0.00
 018604,-0.00008743,-0.00020538,-0.00048538,0.00027805,-0.00051068,0.00
 063177,0.00092884,0.00544533,-0.00209647,0.00241137,-0.00707540,0.0011
 1582,0.02602803,0.00067076,-0.05895362,0.03802592,0.00451664,0.0070088
 3,-0.02185042,0.00446441,-0.00181365,-0.00110749,0.00015678,-0.0009822
 5,0.00026196,-0.00000657,0.00001645,0.00000307,-0.00001464,-0.00002382
 ,-0.00001470,-0.00000689,-0.00000383,-0.00002123,-0.00001575,0.0000347
 1,-0.00001796,0.00000263,0.00000684,-0.00002026,-0.00000421,0.00000117
 ,-0.00000183,0.00000123,0.00000055,-0.00000033,-0.00000112,0.00000077,
 -0.00000026,-0.00000011,-0.00000166,0.00000191,-0.00000033,0.00000193,
 0.00000399,0.00003024,0.00003500,0.00002262,-0.00004031,-0.00002654,0.
 00013551,0.00008396,0.00001306,0.00000173,-0.00224925,-0.00034586,-0.0
 0108408,-0.00375448,0.05572874,0.00001094,0.00014945,0.00013142,-0.000
 00438,-0.00002147,-0.00002837,-0.00000569,-0.00003351,-0.00003117,0.00
 002031,-0.00004722,-0.00002180,-0.00000143,0.00001227,-0.00001004,0.00
 002140,0.00001730,0.00003433,0.00004646,-0.00005238,-0.00004973,-0.000
 03589,0.00001541,0.00008750,0.00003165,0.00000038,-0.00003111,-0.00001
 436,0.00000275,0.00002309,0.00000125,-0.00003386,-0.00000048,0.0000028
 4,0.00000800,-0.00001080,-0.00000423,0.00002352,0.00001913,0.00000092,
 -0.00000812,-0.00001884,0.00001897,-0.00000364,-0.00000448,-0.00001193
 ,-0.00000534,0.00000322,-0.00000938,0.00000534,-0.00000524,0.00001216,
 0.00000551,-0.00001767,-0.00000726,-0.00001589,-0.00000767,0.00000400,
 0.00000720,0.00000741,-0.00000521,-0.00001435,-0.00000832,-0.00024530,
 -0.00011108,0.00000778,0.00002511,0.00002633,0.00003791,-0.00030688,0.
 00023232,-0.00014294,0.00045474,-0.00030573,-0.00060638,0.00035403,0.0
 0335523,0.00167361,0.00475464,-0.00022492,-0.01081781,0.06877181,0.038
 39602,-0.31685682,0.00162006,0.00425331,-0.00996667,0.00254976,-0.0020
 1901,0.00105614,-0.00025618,-0.00013243,0.00044535,0.00000959,0.000007
 86,-0.00001879,-0.00003166,-0.00002615,-0.00001169,0.00001245,-0.00000
 418,-0.00001907,-0.00001598,0.00002782,-0.00002185,0.00001282,-0.00000
 652,-0.00002114,0.00000040,-0.00000625,-0.00000398,-0.00000075,-0.0000
 0092,0.00000019,-0.00000087,-0.00000589,0.00000188,-0.00000036,0.00000
 263,-0.00000372,-0.00000069,-0.00000110,-0.00000821,0.00002803,0.00001
 921,-0.00002067,0.00001149,0.00001242,-0.00008712,0.00001542,0.0000505
 8,0.00002251,-0.00141906,-0.00054124,0.00050356,-0.07581474,-0.0425880
 4,0.33488371,0.00007027,0.00002370,0.00003229,-0.00001393,0.00000280,-
 0.00000086,-0.00005069,-0.00003288,-0.00003091,0.00015997,0.00013615,0
 .00011171,-0.00001703,-0.00003147,-0.00003255,-0.00002891,-0.00002469,
 0.00007694,0.00000428,0.00001377,-0.00001174,-0.00002537,0.00000792,0.
 00000892,-0.00000154,-0.00000478,-0.00001519,-0.00000347,-0.00000645,0
 .00000352,0.00000473,0.00001042,0.00000187,0.00000085,-0.00000022,-0.0
 0000039,-0.00000609,0.00000250,0.00000760,-0.00000095,0.00000115,-0.00
 000075,0.00000519,0.00000454,-0.00000053,-0.00000255,-0.00000984,-0.00
 000218,0.00000002,-0.00001419,-0.00000227,-0.00000004,-0.00000048,-0.0
 0000365,0.00000058,-0.00000941,-0.00001444,-0.00000616,0.00000237,0.00
 001116,0.00000389,0.00000471,-0.00000508,0.00050151,-0.00017584,0.0000
 2306,-0.00050722,-0.00036747,-0.00009241,0.00006961,0.00010130,0.00009
 442,-0.00057984,-0.00033698,-0.00032936,-0.00049441,-0.00032022,0.0004
 1388,0.00201064,0.00378702,0.00351256,-0.00178661,0.01340301,-0.009848
 01,-0.06931893,0.07995650,-0.03657253,0.00574934,-0.00675378,0.0046394
 9,0.00564214,0.00294501,0.00353635,-0.00002724,-0.00001190,-0.00000684
 ,-0.00000502,-0.00000680,0.00000808,0.00000707,0.00001050,0.00000238,0
 .00002496,0.00002191,-0.00001879,-0.00000632,0.00000235,0.00000164,0.0
 0000440,-0.00000580,-0.00000388,-0.00000006,0.00000053,0.00000109,0.00
 000272,-0.00000085,0.00000106,0.00000136,0.00000264,-0.00000213,0.0000
 0071,-0.00000255,-0.00000511,-0.00000878,-0.00004728,0.00001122,0.0000
 6321,0.00003793,0.00000730,0.00004272,-0.00002361,0.00002361,-0.000086
 03,0.00077380,-0.00043548,-0.00166687,-0.00167282,-0.00070509,0.063480
 49,0.00002374,-0.00014312,-0.00004824,-0.00000423,0.00002938,0.0000173
 7,-0.00001372,0.00001997,0.00000188,0.00008773,0.00009955,0.00007060,0
 .00000637,0.00000124,0.00001311,-0.00003498,-0.00000618,0.00001754,-0.
 00004572,0.00003835,0.00001376,0.00001354,-0.00000863,-0.00005359,-0.0
 0002158,-0.00000486,0.00001576,0.00001137,0.00002288,0.00000540,-0.000
 00541,-0.00002948,-0.00001442,-0.00000074,-0.00000517,-0.00000243,0.00
 000786,0.00001148,-0.00000247,-0.00000376,0.00000261,-0.00000508,-0.00
 000381,-0.00001118,0.00000814,-0.00000070,0.00000812,-0.00000013,0.000
 00723,0.00001377,0.00000688,-0.00000598,-0.00000063,0.00000451,0.00000
 653,0.00000161,0.00000088,-0.00000785,0.,-0.00000428,0.00000208,0.0000
 0938,0.00001189,0.00034314,-0.00019281,0.00000116,-0.00044198,-0.00001
 532,0.00006091,0.00011976,0.00001124,-0.00008507,-0.00036898,-0.000257
 88,0.00003830,-0.00027256,0.00030967,-0.00069002,0.00409601,-0.0003573
 5,-0.00271202,0.00481502,-0.01299331,0.01255102,0.07991872,-0.24138427
 ,0.11365975,0.00175710,0.00030557,0.00009565,0.00256494,0.00336860,0.0
 0096183,-0.00002162,-0.00000659,0.00000745,0.00001843,-0.00000703,0.00
 000732,-0.00000508,0.00000525,0.00000571,0.00001780,0.00000241,0.00002
 517,-0.00001765,0.00000495,0.00002275,0.00000270,0.00000243,0.00000264
 ,0.00000006,-0.00000494,0.00000114,-0.00000049,-0.00000048,-0.00000100
 ,-0.00000090,-0.00000278,0.00000207,0.00000066,0.00000164,0.00000316,-
 0.00000794,-0.00002405,0.00002043,0.00003616,0.00000556,0.00002794,0.0
 0000590,0.00003774,-0.00001982,0.00034263,-0.00073739,0.00067458,-0.00
 143872,0.00007692,-0.00067517,-0.08904707,0.25219097,0.00004412,0.0002
 7739,-0.00006355,-0.00001106,-0.00005020,0.00001719,-0.00002306,-0.000
 06725,0.00002551,0.00004076,0.00002081,0.00008169,-0.00007136,-0.00001
 403,-0.00003239,0.00005083,0.00005361,-0.00011039,-0.00001923,-0.00005
 280,0.00003981,0.00001876,0.00000475,-0.00001638,-0.00000104,-0.000021
 63,0.00001108,0.00000051,0.00000265,0.00000026,0.00000369,0.00001090,-
 0.00000353,-0.00000031,-0.00000273,0.00000333,-0.00000136,-0.00000069,
 0.00000083,-0.00000051,0.00000281,0.00000518,-0.00000172,0.00000250,0.
 00000280,0.00000094,-0.00000569,-0.00000371,-0.00000109,-0.00000115,0.
 00000007,-0.00000550,-0.00000504,0.00001105,0.00000112,-0.00000486,-0.
 00001863,0.00000043,-0.00000362,0.00001348,-0.00000390,0.00000906,0.00
 000977,-0.00074089,0.00126640,0.00035222,-0.00010185,0.00007216,-0.000
 59381,0.00020322,-0.00013808,-0.00019424,-0.00023056,-0.00024997,0.000
 29034,0.00027841,-0.00032211,-0.00083928,0.00298655,-0.00184160,-0.000
 65202,0.00496015,-0.01359478,0.01111599,-0.03614992,0.11320011,-0.1226
 0085,-0.01036553,0.02633385,-0.01054394,0.00409846,0.00003988,-0.00422
 088,0.00001745,-0.00002549,-0.00004802,-0.00003099,0.00002113,-0.00000
 057,0.00002369,-0.00002278,0.00001018,0.00000314,-0.00002919,0.0000304
 2,0.00000690,-0.00002135,0.00002024,0.00002181,-0.00002354,-0.00002267
 ,-0.00000269,0.00000019,0.00000180,0.00000075,0.00000070,-0.00000049,-
 0.00000031,0.00000043,0.00000004,0.00000044,-0.00000139,-0.00000120,-0
 .00006070,0.00013378,-0.00010427,0.00001242,0.00002477,0.00000910,-0.0
 0002687,0.00006901,-0.00000483,0.00036198,-0.00070187,0.00041057,-0.00
 110230,0.00001682,0.00052100,0.03711320,-0.12341780,0.12654506,0.00139
 728,0.00018985,-0.00180467,-0.00029038,-0.00010214,0.00037357,-0.00002
 175,-0.00008572,0.00076650,0.00018297,-0.00017180,0.00033363,-0.000515
 68,-0.00054440,0.00095710,-0.00092576,-0.00006340,0.00134139,-0.000073
 92,0.00004334,-0.00003219,-0.00012583,-0.00003242,-0.00020150,-0.00008
 189,-0.00003505,0.00001342,0.00001195,-0.00000674,0.00001498,-0.000009
 48,0.00000191,-0.00001165,-0.00000621,-0.00000186,0.00000622,0.0000046
 9,-0.00001494,-0.00001643,-0.00000066,-0.00000084,0.00001088,-0.000016
 91,0.00000082,-0.00000314,0.00001147,0.00001072,-0.00000080,0.00002686
 ,-0.00000694,0.00000056,-0.00001572,-0.00001516,0.00000053,0.00001129,
 -0.00000531,-0.00001822,-0.00003250,0.00000209,0.00000733,0.00005375,0
 .00002573,-0.00000582,-0.00195451,-0.00117607,0.00002757,-0.00011977,0
 .00006836,-0.00004683,-0.00015048,-0.00012359,-0.00016377,-0.00008274,
 0.00011979,0.00052431,0.00380478,0.00264906,-0.00050536,-0.00036683,-0
 .00057892,-0.00037691,0.00606781,0.00219678,0.00298032,-0.00022902,0.0
 0618058,0.00251912,-0.12746683,0.12051502,0.07622182,-0.00205819,0.005
 49930,0.00454814,-0.00020144,-0.00025474,-0.00011858,-0.00061734,-0.00
 055235,0.00066268,-0.00012968,0.00013177,-0.00003045,-0.00050085,0.000
 94380,0.00017261,-0.00005786,-0.00007027,-0.00015546,0.00007238,-0.000
 06724,-0.00004928,0.00000120,-0.00000011,0.00000476,0.00000042,0.00000
 284,-0.00000044,0.,-0.00000400,0.00000517,0.00000155,0.00000316,0.0000
 0997,0.00017409,0.00011710,0.00001320,0.00003612,0.00001841,-0.0000130
 0,0.00011167,0.00021235,-0.00002343,-0.00081406,-0.00042279,-0.0002204
 6,-0.00005045,0.00033808,0.00010608,-0.00320661,-0.00243400,-0.0012969
 8,0.12815307,-0.00024424,0.00052617,0.00012873,0.00001805,-0.00007513,
 -0.00016668,-0.00020909,-0.00017126,-0.00068991,0.00011205,0.00031724,
 0.00047195,-0.00003033,0.00016453,0.00042801,0.00051395,0.00061535,-0.
 00080846,0.00001133,-0.00007528,0.00008266,0.00002822,0.00002258,0.000
 03397,0.00000809,-0.00004309,-0.00006658,-0.00002870,-0.00002624,0.000
 04220,-0.00000933,-0.00002344,-0.00000249,-0.00000544,0.00000983,-0.00
 000542,-0.00000038,0.00000335,0.00000548,0.00000252,-0.00001204,-0.000
 01096,0.00001025,0.00000120,-0.00001506,-0.00000374,0.00000559,0.00000
 592,-0.00000159,0.00001299,-0.00000888,0.00000669,0.00000283,-0.000023
 01,-0.00000920,-0.00001429,-0.00000377,0.00000707,0.00000582,0.0000097
 0,-0.00000144,-0.00002814,0.00001122,-0.00077586,-0.00041071,-0.001505
 56,-0.00011555,0.00013884,-0.00006646,-0.00006889,-0.00014274,-0.00010
 633,0.00072756,-0.00046611,-0.00110232,0.00209767,-0.00137745,0.004437
 46,-0.00051002,-0.00029378,0.00072492,0.00238270,0.00293184,0.00203211
 ,-0.00235864,0.00624409,0.00362824,0.12028699,-0.19601755,-0.08810810,
 0.01331243,-0.01311317,-0.01336412,-0.00007291,0.00016231,-0.00008562,
 -0.00075724,-0.00075530,0.00009513,0.00001963,-0.00020589,-0.00032992,
 0.00057079,-0.00004933,-0.00020606,0.00008668,-0.00003978,-0.00002590,
 -0.00000096,-0.00006581,-0.00008937,0.00000363,0.00000446,0.00000320,-
 0.00000203,-0.00000391,0.00000288,0.00000056,-0.00000024,-0.00000066,-
 0.00000063,0.00000198,-0.00000035,0.00008234,0.00005775,0.00011964,-0.
 00000271,0.00001244,0.00005663,0.00025976,-0.00029161,0.00024104,-0.00
 040091,-0.00026503,-0.00027789,-0.00009389,0.00018629,0.00025356,-0.00
 234518,-0.00038787,-0.00094405,-0.13250004,0.20292770,-0.00073651,-0.0
 0057144,-0.00223111,0.00003786,0.00001684,-0.00002484,0.00000345,0.000
 08519,-0.00017758,0.00008392,-0.00018686,-0.00052677,0.00157072,0.0007
 9956,-0.00104342,0.00066857,-0.00028721,-0.00046005,-0.00008743,0.0000
 1355,0.00006435,0.00003292,0.00000340,-0.00014713,-0.00006147,-0.00001
 047,0.00002997,0.00002563,0.00002139,0.00000061,-0.00000914,-0.0000274
 4,-0.00001381,-0.00000585,-0.00000638,0.00000443,0.00001724,-0.0000052
 1,-0.00002074,-0.00000337,0.00000339,0.00000592,-0.00001975,-0.0000122
 7,0.00000657,0.00000879,0.00002069,0.00000125,0.00000860,0.00002552,0.
 00000548,-0.00000826,-0.00000233,0.00001148,0.00000899,0.00001958,0.00
 002065,-0.00000672,-0.00000125,-0.00002173,0.00000835,-0.00000715,0.00
 003508,-0.00063650,-0.00018806,0.00003251,0.00012220,-0.00034250,0.000
 13812,-0.00018957,0.00000126,0.00022687,-0.00050240,0.00063769,0.00049
 422,0.00007686,0.00326177,-0.00124638,-0.00045482,0.00065019,-0.000590
 56,0.00249522,0.00307546,-0.00453791,0.01790918,-0.02335884,-0.0103402
 0,0.07566928,-0.08765371,-0.11482703,-0.00910730,0.01075391,0.01145883
 ,-0.00013745,-0.00008307,0.00009197,0.00026230,0.00007690,-0.00034396,
 0.00001563,-0.00011358,-0.00011515,0.00028768,-0.00026813,0.00003263,-
 0.00001687,0.00009110,0.00005877,0.00000312,0.00001721,0.00002390,0.00
 000097,-0.00000267,0.00000254,-0.00000346,0.00000338,-0.00000272,-0.00
 000186,-0.00000680,0.00000712,0.00000065,0.00000547,0.00001388,0.00006
 638,0.00001421,0.00003535,0.00002168,-0.00000528,-0.00000641,-0.000026
 24,0.00029946,-0.00008545,-0.00024462,-0.00025165,0.00001841,0.0008830
 5,-0.00107889,-0.00060717,-0.00150316,-0.00062517,0.00054665,-0.086526
 49,0.09519925,0.12400258\\-0.00000145,-0.00000184,0.00000367,-0.000000
 75,0.00000368,0.00000124,-0.00000089,0.00000043,0.00000117,0.00001533,
 0.00000692,0.00000797,-0.00000876,0.00000489,-0.00000355,-0.00000096,-
 0.00000697,-0.00000451,0.00000218,0.00000236,-0.00000006,-0.00000388,-
 0.00000580,0.00000103,0.00000123,-0.00000061,-0.00000378,-0.00000470,-
 0.00000046,0.00000314,-0.00000424,-0.00000122,-0.00000174,-0.00000394,
 -0.00000646,-0.00000291,-0.00000111,-0.00000124,-0.00000256,-0.0000038
 5,-0.00000123,0.00000081,-0.00000693,-0.00000581,-0.00000255,-0.000003
 99,0.00000106,0.00000036,-0.00000375,-0.00000197,-0.00000191,-0.000004
 16,-0.00000084,-0.00000084,-0.00000470,0.00000233,0.00000037,-0.000005
 67,-0.00000009,0.00000111,-0.00000146,0.00000220,0.00000049,-0.0000048
 9,-0.00000178,-0.00000626,0.00000330,0.00000262,0.00000196,0.00000440,
 0.00000171,0.00000095,0.00000412,0.00000164,0.00000113,0.00000354,0.00
 000467,0.00000254,0.00000495,0.00000109,0.00000114,0.00000382,0.000000
 85,0.00000102,0.00000240,0.00000233,0.00000054,0.00000290,0.00000027,0
 .00000029,0.00000427,0.00000080,0.00000212,0.00000045,-0.00000115,-0.0
 0000303,0.00000365,-0.00000186,-0.00000056,0.00000305,0.00000026,0.000
 00075,-0.00000215,-0.00000009,0.00000087,-0.00000084,-0.00000195,-0.00
 000097,-0.00000318,-0.00000097,0.00000067,-0.00000144,-0.00000220,-0.0
 0000198,-0.00000142,-0.00000246,-0.00000125,-0.00000315,-0.00000326,-0
 .00000199,-0.00000566,-0.00000222,-0.00000210,0.00000318,0.00000125,0.
 00000105,0.00000450,0.00000243,0.00000157,0.00000570,0.00000289,0.0000
 0200,0.00000564,0.00000316,0.00000179,0.00000445,0.00000264,0.00000121
 ,0.00000174,0.00000066,0.00000050,0.00000313,-0.00000067,-0.00000093\\
 \@


 LAWS OF PROGRAMMING DEFINITION:  A WORKING PROGRAM
                                  IS ONE THAT HAS
                                  ONLY UNOBSERVED
                                  BUGS.
 Job cpu time:  1 days  5 hours 37 minutes 18.2 seconds.
 File lengths (MBytes):  RWF=   2224 Int=      0 D2E=      0 Chk=     35 Scr=      1
 Normal termination of Gaussian 09 at Sun Dec 29 08:56:26 2013.
