 Entering Gaussian System, Link 0=g09
 Initial command:
 /opt/gaussian/g09/l1.exe /panfs/panfs.cluster/home/shuo/Gau-5530.inp -scrdir=/panfs/panfs.cluster/home/shuo/
 Default is to use a total of  12 processors:
                               12 via shared-memory
                                1 via Linda
 Entering Link 1 = /opt/gaussian/g09/l1.exe PID=      5531.
  
 Copyright (c) 1988,1990,1992,1993,1995,1998,2003,2009,2011,
            Gaussian, Inc.  All Rights Reserved.
  
 This is part of the Gaussian(R) 09 program.  It is based on
 the Gaussian(R) 03 system (copyright 2003, Gaussian, Inc.),
 the Gaussian(R) 98 system (copyright 1998, Gaussian, Inc.),
 the Gaussian(R) 94 system (copyright 1995, Gaussian, Inc.),
 the Gaussian 92(TM) system (copyright 1992, Gaussian, Inc.),
 the Gaussian 90(TM) system (copyright 1990, Gaussian, Inc.),
 the Gaussian 88(TM) system (copyright 1988, Gaussian, Inc.),
 the Gaussian 86(TM) system (copyright 1986, Carnegie Mellon
 University), and the Gaussian 82(TM) system (copyright 1983,
 Carnegie Mellon University). Gaussian is a federally registered
 trademark of Gaussian, Inc.
  
 This software contains proprietary and confidential information,
 including trade secrets, belonging to Gaussian, Inc.
  
 This software is provided under written license and may be
 used, copied, transmitted, or stored only in accord with that
 written license.
  
 The following legend is applicable only to US Government
 contracts under FAR:
  
                    RESTRICTED RIGHTS LEGEND
  
 Use, reproduction and disclosure by the US Government is
 subject to restrictions as set forth in subparagraphs (a)
 and (c) of the Commercial Computer Software - Restricted
 Rights clause in FAR 52.227-19.
  
 Gaussian, Inc.
 340 Quinnipiac St., Bldg. 40, Wallingford CT 06492
  
  
 ---------------------------------------------------------------
 Warning -- This program may not be used in any manner that
 competes with the business of Gaussian, Inc. or will provide
 assistance to any competitor of Gaussian, Inc.  The licensee
 of this program is prohibited from giving any competitor of
 Gaussian, Inc. access to this program.  By using this program,
 the user acknowledges that Gaussian, Inc. is engaged in the
 business of creating and licensing software in the field of
 computational chemistry and represents and warrants to the
 licensee that it is not a competitor of Gaussian, Inc. and that
 it will not use this program in any manner prohibited above.
 ---------------------------------------------------------------
  

 Cite this work as:
 Gaussian 09, Revision C.01,
 M. J. Frisch, G. W. Trucks, H. B. Schlegel, G. E. Scuseria, 
 M. A. Robb, J. R. Cheeseman, G. Scalmani, V. Barone, B. Mennucci, 
 G. A. Petersson, H. Nakatsuji, M. Caricato, X. Li, H. P. Hratchian, 
 A. F. Izmaylov, J. Bloino, G. Zheng, J. L. Sonnenberg, M. Hada, 
 M. Ehara, K. Toyota, R. Fukuda, J. Hasegawa, M. Ishida, T. Nakajima, 
 Y. Honda, O. Kitao, H. Nakai, T. Vreven, J. A. Montgomery, Jr., 
 J. E. Peralta, F. Ogliaro, M. Bearpark, J. J. Heyd, E. Brothers, 
 K. N. Kudin, V. N. Staroverov, T. Keith, R. Kobayashi, J. Normand, 
 K. Raghavachari, A. Rendell, J. C. Burant, S. S. Iyengar, J. Tomasi, 
 M. Cossi, N. Rega, J. M. Millam, M. Klene, J. E. Knox, J. B. Cross, 
 V. Bakken, C. Adamo, J. Jaramillo, R. Gomperts, R. E. Stratmann, 
 O. Yazyev, A. J. Austin, R. Cammi, C. Pomelli, J. W. Ochterski, 
 R. L. Martin, K. Morokuma, V. G. Zakrzewski, G. A. Voth, 
 P. Salvador, J. J. Dannenberg, S. Dapprich, A. D. Daniels, 
 O. Farkas, J. B. Foresman, J. V. Ortiz, J. Cioslowski, 
 and D. J. Fox, Gaussian, Inc., Wallingford CT, 2010.
 
 ******************************************
 Gaussian 09:  EM64L-G09RevC.01 23-Sep-2011
                30-Dec-2013 
 ******************************************
 %chk=96_C21H13N3OS3Si2.chk
 %NProcShared=12
 Will use up to   12 processors via shared memory.
 %Mem=8000MB
 Default route:  MaxDisk=100GB
 --------------------------------------------
 #B3LYP/6-31++G(d,p) opt scf=direct freq test
 --------------------------------------------
 1/14=-1,18=20,19=15,26=3,38=1/1,3;
 2/9=110,12=2,17=6,18=5,40=1/2;
 3/5=1,6=6,7=1111,11=2,16=1,25=1,30=1,71=1,74=-5/1,2,3;
 4//1;
 5/5=2,38=5/2;
 6/7=2,8=2,9=2,10=2,28=1/1;
 7//1,2,3,16;
 1/14=-1,18=20,19=15/3(2);
 2/9=110/2;
 99//99;
 2/9=110/2;
 3/5=1,6=6,7=1111,11=2,16=1,25=1,30=1,71=1,74=-5/1,2,3;
 4/5=5,16=3/1;
 5/5=2,38=5/2;
 7//1,2,3,16;
 1/14=-1,18=20,19=15/3(-5);
 2/9=110/2;
 6/7=2,8=2,9=2,10=2,19=2,28=1/1;
 99/9=1/99;
 ----------------------------------------------------------------------
 Geom opt of No.96 candidate from the CEPDB database with SMILE code of
  [SiH2]1C=c2c3C=C[SiH2]c3c3cc4oc(cc4cc3c2=C1)-c1nccc2nsnc12, HPC, 2013
 1227, Shuo Dai, Gaussian09
 ----------------------------------------------------------------------
 Charge =  0 Multiplicity = 1
 Symbolic Z-Matrix:
 Si                    6.34745   0.04715  -3.20714 
 H                     5.77413  -1.24517  -2.78074 
 H                     5.69335   0.48034  -4.52042 
 C                     8.39106  -0.14508  -2.41596 
 C                     8.73825   1.12096  -2.09347 
 C                     9.94283   1.90343  -1.49765 
 C                     11.00071   2.08105  -2.51079 
 C                     11.98347   2.76143  -1.73208 
 Si                    11.56979   4.56369  -2.10455 
 H                     10.6211   4.86135  -3.25321 
 H                     12.96426   5.01366  -2.14102 
 C                     9.93385   3.56535  -0.81085 
 C                     8.88229   4.45647  -1.31458 
 C                     8.60565   5.97309  -0.54651 
 C                     7.79034   6.45772  -1.67498 
 O                     7.14105   7.74411  -1.77481 
 C                     6.07227   7.34003  -2.65877 
 C                     5.65387   6.13514  -1.69893 
 C                     6.70729   5.31157  -2.1561 
 C                     6.60968   3.82772  -1.82032 
 C                     7.91033   3.47364  -2.44298 
 C                     8.04679   1.9901   -2.99577 
 C                     7.65668   1.3277   -4.15781 
 C                     6.81039   7.20403  -4.32504 
 N                     6.62312   5.90004  -5.00502 
 C                     7.57458   5.38555  -5.97715 
 C                     9.03411   5.25581  -5.51623 
 C                     9.4299    6.68506  -5.16313 
 N                     10.75231   6.98635  -4.53906 
 S                     10.69614   8.42292  -3.66429 
 N                     9.07811   8.76351  -3.99975 
 C                     8.36863   7.51866  -4.39622 
 H                     9.02733  -0.80045  -3.07141 
 H                     10.3523   1.16842  -0.80548 
 H                     10.74264   2.48157  -3.47866 
 H                     11.91819   2.60576  -0.64484 
 H                     10.47102   3.93099   0.08042 
 H                     9.36768   5.04848  -2.05606 
 H                     9.45843   6.73845  -0.53839 
 H                     8.25372   6.12943   0.48182 
 H                     8.71717   6.71128  -2.16506 
 H                     5.22503   8.01439  -2.70047 
 H                     4.66516   5.68167  -1.71176 
 H                     5.94226   6.17573  -0.61799 
 H                     6.45844   5.1939   -3.19196 
 H                     5.77131   3.33882  -2.34276 
 H                     6.48895   3.60837  -0.75721 
 H                     7.90741   3.92087  -3.44221 
 H                     7.91478   0.33385  -4.6597 
 H                     6.29327   7.9662   -4.90842 
 H                     5.67196   5.55812  -5.08374 
 H                     7.56315   6.09141  -6.80833 
 H                     7.24118   4.41672  -6.3616 
 H                     9.66157   4.96492  -6.37054 
 H                     9.20324   4.42839  -4.81004 
 H                     9.52417   7.13246  -6.13502 
 H                     11.3675   7.18615  -5.32755 
 H                     8.64253   9.17639  -3.17781 
 H                     8.48479   6.92436  -3.60909 
 

 GradGradGradGradGradGradGradGradGradGradGradGradGradGradGradGradGradGrad
 Berny optimization.
 Initialization pass.
                           ----------------------------
                           !    Initial Parameters    !
                           ! (Angstroms and Degrees)  !
 --------------------------                            --------------------------
 ! Name  Definition              Value          Derivative Info.                !
 --------------------------------------------------------------------------------
 ! R1    R(1,2)                  1.4767         estimate D2E/DX2                !
 ! R2    R(1,3)                  1.5298         estimate D2E/DX2                !
 ! R3    R(1,4)                  2.1998         estimate D2E/DX2                !
 ! R4    R(1,23)                 2.0634         estimate D2E/DX2                !
 ! R5    R(4,5)                  1.3518         estimate D2E/DX2                !
 ! R6    R(4,33)                 1.1243         estimate D2E/DX2                !
 ! R7    R(5,6)                  1.5551         estimate D2E/DX2                !
 ! R8    R(5,22)                 1.431          estimate D2E/DX2                !
 ! R9    R(6,7)                  1.4755         estimate D2E/DX2                !
 ! R10   R(6,12)                 1.7983         estimate D2E/DX2                !
 ! R11   R(6,34)                 1.0895         estimate D2E/DX2                !
 ! R12   R(7,8)                  1.4266         estimate D2E/DX2                !
 ! R13   R(7,35)                 1.0788         estimate D2E/DX2                !
 ! R14   R(8,9)                  1.8863         estimate D2E/DX2                !
 ! R15   R(8,36)                 1.1003         estimate D2E/DX2                !
 ! R16   R(9,10)                 1.5192         estimate D2E/DX2                !
 ! R17   R(9,11)                 1.4657         estimate D2E/DX2                !
 ! R18   R(12,13)                1.4675         estimate D2E/DX2                !
 ! R19   R(12,37)                1.103          estimate D2E/DX2                !
 ! R20   R(13,14)                1.7224         estimate D2E/DX2                !
 ! R21   R(13,21)                1.7844         estimate D2E/DX2                !
 ! R22   R(13,38)                1.0658         estimate D2E/DX2                !
 ! R23   R(14,15)                1.4741         estimate D2E/DX2                !
 ! R24   R(14,39)                1.1459         estimate D2E/DX2                !
 ! R25   R(14,40)                1.0981         estimate D2E/DX2                !
 ! R26   R(15,16)                1.4444         estimate D2E/DX2                !
 ! R27   R(15,19)                1.6487         estimate D2E/DX2                !
 ! R28   R(15,41)                1.0786         estimate D2E/DX2                !
 ! R29   R(16,17)                1.4446         estimate D2E/DX2                !
 ! R30   R(17,18)                1.5963         estimate D2E/DX2                !
 ! R31   R(17,24)                1.8275         estimate D2E/DX2                !
 ! R32   R(17,42)                1.0837         estimate D2E/DX2                !
 ! R33   R(18,19)                1.4131         estimate D2E/DX2                !
 ! R34   R(18,43)                1.0878         estimate D2E/DX2                !
 ! R35   R(18,44)                1.1195         estimate D2E/DX2                !
 ! R36   R(19,20)                1.5245         estimate D2E/DX2                !
 ! R37   R(19,45)                1.0718         estimate D2E/DX2                !
 ! R38   R(20,21)                1.4848         estimate D2E/DX2                !
 ! R39   R(20,46)                1.1022         estimate D2E/DX2                !
 ! R40   R(20,47)                1.0922         estimate D2E/DX2                !
 ! R41   R(21,22)                1.5891         estimate D2E/DX2                !
 ! R42   R(21,48)                1.0948         estimate D2E/DX2                !
 ! R43   R(22,23)                1.3933         estimate D2E/DX2                !
 ! R44   R(23,49)                1.1429         estimate D2E/DX2                !
 ! R45   R(24,25)                1.4825         estimate D2E/DX2                !
 ! R46   R(24,32)                1.5913         estimate D2E/DX2                !
 ! R47   R(24,50)                1.0903         estimate D2E/DX2                !
 ! R48   R(25,26)                1.4543         estimate D2E/DX2                !
 ! R49   R(25,51)                1.0138         estimate D2E/DX2                !
 ! R50   R(26,27)                1.5361         estimate D2E/DX2                !
 ! R51   R(26,52)                1.0905         estimate D2E/DX2                !
 ! R52   R(26,53)                1.0943         estimate D2E/DX2                !
 ! R53   R(27,28)                1.5245         estimate D2E/DX2                !
 ! R54   R(27,54)                1.0992         estimate D2E/DX2                !
 ! R55   R(27,55)                1.1009         estimate D2E/DX2                !
 ! R56   R(28,29)                1.493          estimate D2E/DX2                !
 ! R57   R(28,32)                1.5522         estimate D2E/DX2                !
 ! R58   R(28,56)                1.0741         estimate D2E/DX2                !
 ! R59   R(29,30)                1.6829         estimate D2E/DX2                !
 ! R60   R(29,57)                1.0199         estimate D2E/DX2                !
 ! R61   R(30,31)                1.6872         estimate D2E/DX2                !
 ! R62   R(31,32)                1.4867         estimate D2E/DX2                !
 ! R63   R(31,58)                1.0177         estimate D2E/DX2                !
 ! R64   R(32,59)                0.9931         estimate D2E/DX2                !
 ! A1    A(2,1,3)              109.2507         estimate D2E/DX2                !
 ! A2    A(2,1,4)              100.3902         estimate D2E/DX2                !
 ! A3    A(2,1,23)             157.2936         estimate D2E/DX2                !
 ! A4    A(3,1,4)              136.9465         estimate D2E/DX2                !
 ! A5    A(3,1,23)              72.5446         estimate D2E/DX2                !
 ! A6    A(4,1,23)              68.3149         estimate D2E/DX2                !
 ! A7    A(1,4,5)              104.0373         estimate D2E/DX2                !
 ! A8    A(1,4,33)             111.5315         estimate D2E/DX2                !
 ! A9    A(5,4,33)             122.6616         estimate D2E/DX2                !
 ! A10   A(4,5,6)              139.6048         estimate D2E/DX2                !
 ! A11   A(4,5,22)             107.1162         estimate D2E/DX2                !
 ! A12   A(6,5,22)             108.076          estimate D2E/DX2                !
 ! A13   A(5,6,7)              110.662          estimate D2E/DX2                !
 ! A14   A(5,6,12)             127.4078         estimate D2E/DX2                !
 ! A15   A(5,6,34)             101.2497         estimate D2E/DX2                !
 ! A16   A(7,6,12)              98.892          estimate D2E/DX2                !
 ! A17   A(7,6,34)             104.3582         estimate D2E/DX2                !
 ! A18   A(12,6,34)            112.5021         estimate D2E/DX2                !
 ! A19   A(6,7,8)              100.1668         estimate D2E/DX2                !
 ! A20   A(6,7,35)             119.2894         estimate D2E/DX2                !
 ! A21   A(8,7,35)             118.5198         estimate D2E/DX2                !
 ! A22   A(7,8,9)              101.3511         estimate D2E/DX2                !
 ! A23   A(7,8,36)             115.5339         estimate D2E/DX2                !
 ! A24   A(9,8,36)             108.4995         estimate D2E/DX2                !
 ! A25   A(8,9,10)             118.2587         estimate D2E/DX2                !
 ! A26   A(8,9,11)              95.1398         estimate D2E/DX2                !
 ! A27   A(10,9,11)            121.0067         estimate D2E/DX2                !
 ! A28   A(6,12,13)            115.7007         estimate D2E/DX2                !
 ! A29   A(6,12,37)            127.7735         estimate D2E/DX2                !
 ! A30   A(13,12,37)           115.153          estimate D2E/DX2                !
 ! A31   A(12,13,14)           119.7824         estimate D2E/DX2                !
 ! A32   A(12,13,21)           105.8381         estimate D2E/DX2                !
 ! A33   A(12,13,38)           104.4635         estimate D2E/DX2                !
 ! A34   A(14,13,21)           132.8057         estimate D2E/DX2                !
 ! A35   A(14,13,38)            83.9313         estimate D2E/DX2                !
 ! A36   A(21,13,38)            96.5503         estimate D2E/DX2                !
 ! A37   A(13,14,15)            92.1173         estimate D2E/DX2                !
 ! A38   A(13,14,39)           118.1481         estimate D2E/DX2                !
 ! A39   A(13,14,40)           126.474          estimate D2E/DX2                !
 ! A40   A(15,14,39)           101.3877         estimate D2E/DX2                !
 ! A41   A(15,14,40)           119.5268         estimate D2E/DX2                !
 ! A42   A(39,14,40)            97.8618         estimate D2E/DX2                !
 ! A43   A(14,15,16)           126.464          estimate D2E/DX2                !
 ! A44   A(14,15,19)           110.9882         estimate D2E/DX2                !
 ! A45   A(14,15,41)            87.1258         estimate D2E/DX2                !
 ! A46   A(16,15,19)           107.6781         estimate D2E/DX2                !
 ! A47   A(16,15,41)            98.3658         estimate D2E/DX2                !
 ! A48   A(19,15,41)           126.5334         estimate D2E/DX2                !
 ! A49   A(15,16,17)            97.2239         estimate D2E/DX2                !
 ! A50   A(16,17,18)            92.127          estimate D2E/DX2                !
 ! A51   A(16,17,24)           106.2549         estimate D2E/DX2                !
 ! A52   A(16,17,42)           115.3347         estimate D2E/DX2                !
 ! A53   A(18,17,24)           126.7225         estimate D2E/DX2                !
 ! A54   A(18,17,42)           106.7341         estimate D2E/DX2                !
 ! A55   A(24,17,42)           109.087          estimate D2E/DX2                !
 ! A56   A(17,18,19)            92.865          estimate D2E/DX2                !
 ! A57   A(17,18,43)           123.0786         estimate D2E/DX2                !
 ! A58   A(17,18,44)           119.0587         estimate D2E/DX2                !
 ! A59   A(19,18,43)           115.5165         estimate D2E/DX2                !
 ! A60   A(19,18,44)            98.133          estimate D2E/DX2                !
 ! A61   A(43,18,44)           105.1082         estimate D2E/DX2                !
 ! A62   A(15,19,18)            89.4348         estimate D2E/DX2                !
 ! A63   A(15,19,20)           130.8775         estimate D2E/DX2                !
 ! A64   A(15,19,45)           120.7224         estimate D2E/DX2                !
 ! A65   A(18,19,20)           116.6328         estimate D2E/DX2                !
 ! A66   A(18,19,45)           101.7458         estimate D2E/DX2                !
 ! A67   A(20,19,45)            95.2294         estimate D2E/DX2                !
 ! A68   A(19,20,21)            94.7988         estimate D2E/DX2                !
 ! A69   A(19,20,46)           112.0888         estimate D2E/DX2                !
 ! A70   A(19,20,47)           114.642          estimate D2E/DX2                !
 ! A71   A(21,20,46)           111.2069         estimate D2E/DX2                !
 ! A72   A(21,20,47)           117.2008         estimate D2E/DX2                !
 ! A73   A(46,20,47)           106.751          estimate D2E/DX2                !
 ! A74   A(13,21,20)            94.6235         estimate D2E/DX2                !
 ! A75   A(13,21,22)           133.4279         estimate D2E/DX2                !
 ! A76   A(13,21,48)           110.7103         estimate D2E/DX2                !
 ! A77   A(20,21,22)           116.3421         estimate D2E/DX2                !
 ! A78   A(20,21,48)           106.4393         estimate D2E/DX2                !
 ! A79   A(22,21,48)            93.6754         estimate D2E/DX2                !
 ! A80   A(5,22,21)            112.9043         estimate D2E/DX2                !
 ! A81   A(5,22,23)            111.8654         estimate D2E/DX2                !
 ! A82   A(21,22,23)           135.2299         estimate D2E/DX2                !
 ! A83   A(1,23,22)             95.0739         estimate D2E/DX2                !
 ! A84   A(1,23,49)             78.8107         estimate D2E/DX2                !
 ! A85   A(22,23,49)           135.7603         estimate D2E/DX2                !
 ! A86   A(17,24,25)           115.6352         estimate D2E/DX2                !
 ! A87   A(17,24,32)           114.9344         estimate D2E/DX2                !
 ! A88   A(17,24,50)           104.1394         estimate D2E/DX2                !
 ! A89   A(25,24,32)           106.0868         estimate D2E/DX2                !
 ! A90   A(25,24,50)           108.0323         estimate D2E/DX2                !
 ! A91   A(32,24,50)           107.5962         estimate D2E/DX2                !
 ! A92   A(24,25,26)           122.3523         estimate D2E/DX2                !
 ! A93   A(24,25,51)           116.7936         estimate D2E/DX2                !
 ! A94   A(26,25,51)           116.2692         estimate D2E/DX2                !
 ! A95   A(25,26,27)           116.8039         estimate D2E/DX2                !
 ! A96   A(25,26,52)           105.8811         estimate D2E/DX2                !
 ! A97   A(25,26,53)           110.4082         estimate D2E/DX2                !
 ! A98   A(27,26,52)           107.0577         estimate D2E/DX2                !
 ! A99   A(27,26,53)           108.67           estimate D2E/DX2                !
 ! A100  A(52,26,53)           107.5825         estimate D2E/DX2                !
 ! A101  A(26,27,28)           103.7095         estimate D2E/DX2                !
 ! A102  A(26,27,54)           109.3622         estimate D2E/DX2                !
 ! A103  A(26,27,55)           113.6997         estimate D2E/DX2                !
 ! A104  A(28,27,54)           106.2559         estimate D2E/DX2                !
 ! A105  A(28,27,55)           121.0763         estimate D2E/DX2                !
 ! A106  A(54,27,55)           102.2378         estimate D2E/DX2                !
 ! A107  A(27,28,29)           121.0623         estimate D2E/DX2                !
 ! A108  A(27,28,32)           116.1307         estimate D2E/DX2                !
 ! A109  A(27,28,56)           101.7549         estimate D2E/DX2                !
 ! A110  A(29,28,32)           106.8999         estimate D2E/DX2                !
 ! A111  A(29,28,56)           102.4997         estimate D2E/DX2                !
 ! A112  A(32,28,56)           106.4621         estimate D2E/DX2                !
 ! A113  A(28,29,30)           111.099          estimate D2E/DX2                !
 ! A114  A(28,29,57)           104.5165         estimate D2E/DX2                !
 ! A115  A(30,29,57)           104.7605         estimate D2E/DX2                !
 ! A116  A(29,30,31)            95.7956         estimate D2E/DX2                !
 ! A117  A(30,31,32)           109.978          estimate D2E/DX2                !
 ! A118  A(30,31,58)           109.3761         estimate D2E/DX2                !
 ! A119  A(32,31,58)           110.5378         estimate D2E/DX2                !
 ! A120  A(24,32,28)           125.834          estimate D2E/DX2                !
 ! A121  A(24,32,31)           128.3854         estimate D2E/DX2                !
 ! A122  A(24,32,59)            87.7513         estimate D2E/DX2                !
 ! A123  A(28,32,31)           104.7831         estimate D2E/DX2                !
 ! A124  A(28,32,59)            89.4414         estimate D2E/DX2                !
 ! A125  A(31,32,59)           103.5265         estimate D2E/DX2                !
 ! D1    D(2,1,4,5)           -147.7146         estimate D2E/DX2                !
 ! D2    D(2,1,4,33)            78.1254         estimate D2E/DX2                !
 ! D3    D(3,1,4,5)             78.8717         estimate D2E/DX2                !
 ! D4    D(3,1,4,33)           -55.2882         estimate D2E/DX2                !
 ! D5    D(23,1,4,5)            52.831          estimate D2E/DX2                !
 ! D6    D(23,1,4,33)          -81.3289         estimate D2E/DX2                !
 ! D7    D(2,1,23,22)         -121.7545         estimate D2E/DX2                !
 ! D8    D(2,1,23,49)           13.9394         estimate D2E/DX2                !
 ! D9    D(3,1,23,22)          139.9723         estimate D2E/DX2                !
 ! D10   D(3,1,23,49)          -84.3338         estimate D2E/DX2                !
 ! D11   D(4,1,23,22)          -58.3385         estimate D2E/DX2                !
 ! D12   D(4,1,23,49)           77.3554         estimate D2E/DX2                !
 ! D13   D(1,4,5,6)           -179.9866         estimate D2E/DX2                !
 ! D14   D(1,4,5,22)           -30.346          estimate D2E/DX2                !
 ! D15   D(33,4,5,6)           -52.4231         estimate D2E/DX2                !
 ! D16   D(33,4,5,22)           97.2175         estimate D2E/DX2                !
 ! D17   D(4,5,6,7)             77.0725         estimate D2E/DX2                !
 ! D18   D(4,5,6,12)          -163.167          estimate D2E/DX2                !
 ! D19   D(4,5,6,34)           -33.1235         estimate D2E/DX2                !
 ! D20   D(22,5,6,7)           -72.3892         estimate D2E/DX2                !
 ! D21   D(22,5,6,12)           47.3713         estimate D2E/DX2                !
 ! D22   D(22,5,6,34)          177.4148         estimate D2E/DX2                !
 ! D23   D(4,5,22,21)          158.7953         estimate D2E/DX2                !
 ! D24   D(4,5,22,23)          -21.4126         estimate D2E/DX2                !
 ! D25   D(6,5,22,21)          -41.3588         estimate D2E/DX2                !
 ! D26   D(6,5,22,23)          138.4333         estimate D2E/DX2                !
 ! D27   D(5,6,7,8)           -178.0635         estimate D2E/DX2                !
 ! D28   D(5,6,7,35)            50.8823         estimate D2E/DX2                !
 ! D29   D(12,6,7,8)            46.1996         estimate D2E/DX2                !
 ! D30   D(12,6,7,35)          -84.8546         estimate D2E/DX2                !
 ! D31   D(34,6,7,8)           -69.8986         estimate D2E/DX2                !
 ! D32   D(34,6,7,35)          159.0471         estimate D2E/DX2                !
 ! D33   D(5,6,12,13)          -25.7869         estimate D2E/DX2                !
 ! D34   D(5,6,12,37)          140.0784         estimate D2E/DX2                !
 ! D35   D(7,6,12,13)           98.9125         estimate D2E/DX2                !
 ! D36   D(7,6,12,37)          -95.2222         estimate D2E/DX2                !
 ! D37   D(34,6,12,13)        -151.424          estimate D2E/DX2                !
 ! D38   D(34,6,12,37)          14.4413         estimate D2E/DX2                !
 ! D39   D(6,7,8,9)            -93.4828         estimate D2E/DX2                !
 ! D40   D(6,7,8,36)            23.5535         estimate D2E/DX2                !
 ! D41   D(35,7,8,9)            38.0552         estimate D2E/DX2                !
 ! D42   D(35,7,8,36)          155.0915         estimate D2E/DX2                !
 ! D43   D(7,8,9,10)           -12.6456         estimate D2E/DX2                !
 ! D44   D(7,8,9,11)          -142.1063         estimate D2E/DX2                !
 ! D45   D(36,8,9,10)         -134.703          estimate D2E/DX2                !
 ! D46   D(36,8,9,11)           95.8363         estimate D2E/DX2                !
 ! D47   D(6,12,13,14)         169.712          estimate D2E/DX2                !
 ! D48   D(6,12,13,21)           2.244          estimate D2E/DX2                !
 ! D49   D(6,12,13,38)         -99.0376         estimate D2E/DX2                !
 ! D50   D(37,12,13,14)          2.0247         estimate D2E/DX2                !
 ! D51   D(37,12,13,21)       -165.4432         estimate D2E/DX2                !
 ! D52   D(37,12,13,38)         93.2751         estimate D2E/DX2                !
 ! D53   D(12,13,14,15)        165.6754         estimate D2E/DX2                !
 ! D54   D(12,13,14,39)         61.5607         estimate D2E/DX2                !
 ! D55   D(12,13,14,40)        -64.4861         estimate D2E/DX2                !
 ! D56   D(21,13,14,15)        -30.8552         estimate D2E/DX2                !
 ! D57   D(21,13,14,39)       -134.97           estimate D2E/DX2                !
 ! D58   D(21,13,14,40)         98.9832         estimate D2E/DX2                !
 ! D59   D(38,13,14,15)         62.4637         estimate D2E/DX2                !
 ! D60   D(38,13,14,39)        -41.6511         estimate D2E/DX2                !
 ! D61   D(38,13,14,40)       -167.6979         estimate D2E/DX2                !
 ! D62   D(12,13,21,20)        129.2363         estimate D2E/DX2                !
 ! D63   D(12,13,21,22)         -4.3574         estimate D2E/DX2                !
 ! D64   D(12,13,21,48)       -121.2451         estimate D2E/DX2                !
 ! D65   D(14,13,21,20)        -35.8898         estimate D2E/DX2                !
 ! D66   D(14,13,21,22)       -169.4836         estimate D2E/DX2                !
 ! D67   D(14,13,21,48)         73.6288         estimate D2E/DX2                !
 ! D68   D(38,13,21,20)       -123.6721         estimate D2E/DX2                !
 ! D69   D(38,13,21,22)        102.7341         estimate D2E/DX2                !
 ! D70   D(38,13,21,48)        -14.1535         estimate D2E/DX2                !
 ! D71   D(13,14,15,16)        179.3056         estimate D2E/DX2                !
 ! D72   D(13,14,15,19)         45.8401         estimate D2E/DX2                !
 ! D73   D(13,14,15,41)        -82.413          estimate D2E/DX2                !
 ! D74   D(39,14,15,16)        -61.4194         estimate D2E/DX2                !
 ! D75   D(39,14,15,19)        165.1151         estimate D2E/DX2                !
 ! D76   D(39,14,15,41)         36.862          estimate D2E/DX2                !
 ! D77   D(40,14,15,16)         44.509          estimate D2E/DX2                !
 ! D78   D(40,14,15,19)        -88.9565         estimate D2E/DX2                !
 ! D79   D(40,14,15,41)        142.7904         estimate D2E/DX2                !
 ! D80   D(14,15,16,17)       -153.0038         estimate D2E/DX2                !
 ! D81   D(19,15,16,17)        -18.3382         estimate D2E/DX2                !
 ! D82   D(41,15,16,17)        114.3795         estimate D2E/DX2                !
 ! D83   D(14,15,19,18)        112.6656         estimate D2E/DX2                !
 ! D84   D(14,15,19,20)        -13.0919         estimate D2E/DX2                !
 ! D85   D(14,15,19,45)       -143.9812         estimate D2E/DX2                !
 ! D86   D(16,15,19,18)        -29.5544         estimate D2E/DX2                !
 ! D87   D(16,15,19,20)       -155.3119         estimate D2E/DX2                !
 ! D88   D(16,15,19,45)         73.7988         estimate D2E/DX2                !
 ! D89   D(41,15,19,18)       -144.7794         estimate D2E/DX2                !
 ! D90   D(41,15,19,20)         89.4631         estimate D2E/DX2                !
 ! D91   D(41,15,19,45)        -41.4262         estimate D2E/DX2                !
 ! D92   D(15,16,17,18)         52.7095         estimate D2E/DX2                !
 ! D93   D(15,16,17,24)        -76.6434         estimate D2E/DX2                !
 ! D94   D(15,16,17,42)        162.3656         estimate D2E/DX2                !
 ! D95   D(16,17,18,19)        -78.886          estimate D2E/DX2                !
 ! D96   D(16,17,18,43)        157.9296         estimate D2E/DX2                !
 ! D97   D(16,17,18,44)         22.0583         estimate D2E/DX2                !
 ! D98   D(24,17,18,19)         33.2721         estimate D2E/DX2                !
 ! D99   D(24,17,18,43)        -89.9123         estimate D2E/DX2                !
 ! D100  D(24,17,18,44)        134.2163         estimate D2E/DX2                !
 ! D101  D(42,17,18,19)        163.8364         estimate D2E/DX2                !
 ! D102  D(42,17,18,43)         40.652          estimate D2E/DX2                !
 ! D103  D(42,17,18,44)        -95.2194         estimate D2E/DX2                !
 ! D104  D(16,17,24,25)        125.2099         estimate D2E/DX2                !
 ! D105  D(16,17,24,32)          1.0131         estimate D2E/DX2                !
 ! D106  D(16,17,24,50)       -116.433          estimate D2E/DX2                !
 ! D107  D(18,17,24,25)         19.7991         estimate D2E/DX2                !
 ! D108  D(18,17,24,32)       -104.3977         estimate D2E/DX2                !
 ! D109  D(18,17,24,50)        138.1562         estimate D2E/DX2                !
 ! D110  D(42,17,24,25)       -109.8624         estimate D2E/DX2                !
 ! D111  D(42,17,24,32)        125.9407         estimate D2E/DX2                !
 ! D112  D(42,17,24,50)          8.4946         estimate D2E/DX2                !
 ! D113  D(17,18,19,15)         58.5578         estimate D2E/DX2                !
 ! D114  D(17,18,19,20)       -164.7889         estimate D2E/DX2                !
 ! D115  D(17,18,19,45)        -62.7596         estimate D2E/DX2                !
 ! D116  D(43,18,19,15)       -172.4345         estimate D2E/DX2                !
 ! D117  D(43,18,19,20)        -35.7813         estimate D2E/DX2                !
 ! D118  D(43,18,19,45)         66.248          estimate D2E/DX2                !
 ! D119  D(44,18,19,15)        -61.3367         estimate D2E/DX2                !
 ! D120  D(44,18,19,20)         75.3166         estimate D2E/DX2                !
 ! D121  D(44,18,19,45)        177.3458         estimate D2E/DX2                !
 ! D122  D(15,19,20,21)        -63.0031         estimate D2E/DX2                !
 ! D123  D(15,19,20,46)       -178.2066         estimate D2E/DX2                !
 ! D124  D(15,19,20,47)         59.8979         estimate D2E/DX2                !
 ! D125  D(18,19,20,21)       -177.8034         estimate D2E/DX2                !
 ! D126  D(18,19,20,46)         66.9932         estimate D2E/DX2                !
 ! D127  D(18,19,20,47)        -54.9024         estimate D2E/DX2                !
 ! D128  D(45,19,20,21)         76.2595         estimate D2E/DX2                !
 ! D129  D(45,19,20,46)        -38.9439         estimate D2E/DX2                !
 ! D130  D(45,19,20,47)       -160.8394         estimate D2E/DX2                !
 ! D131  D(19,20,21,13)         63.8049         estimate D2E/DX2                !
 ! D132  D(19,20,21,22)       -152.134          estimate D2E/DX2                !
 ! D133  D(19,20,21,48)        -49.3851         estimate D2E/DX2                !
 ! D134  D(46,20,21,13)        179.74           estimate D2E/DX2                !
 ! D135  D(46,20,21,22)        -36.199          estimate D2E/DX2                !
 ! D136  D(46,20,21,48)         66.55           estimate D2E/DX2                !
 ! D137  D(47,20,21,13)        -57.0981         estimate D2E/DX2                !
 ! D138  D(47,20,21,22)         86.9629         estimate D2E/DX2                !
 ! D139  D(47,20,21,48)       -170.2881         estimate D2E/DX2                !
 ! D140  D(13,21,22,5)          27.2075         estimate D2E/DX2                !
 ! D141  D(13,21,22,23)       -152.5185         estimate D2E/DX2                !
 ! D142  D(20,21,22,5)         -99.1304         estimate D2E/DX2                !
 ! D143  D(20,21,22,23)         81.1436         estimate D2E/DX2                !
 ! D144  D(48,21,22,5)         150.4894         estimate D2E/DX2                !
 ! D145  D(48,21,22,23)        -29.2366         estimate D2E/DX2                !
 ! D146  D(5,22,23,1)           64.7869         estimate D2E/DX2                !
 ! D147  D(5,22,23,49)         -14.3734         estimate D2E/DX2                !
 ! D148  D(21,22,23,1)        -115.4851         estimate D2E/DX2                !
 ! D149  D(21,22,23,49)        165.3546         estimate D2E/DX2                !
 ! D150  D(17,24,25,26)       -151.3745         estimate D2E/DX2                !
 ! D151  D(17,24,25,51)         53.556          estimate D2E/DX2                !
 ! D152  D(32,24,25,26)        -22.6885         estimate D2E/DX2                !
 ! D153  D(32,24,25,51)       -177.758          estimate D2E/DX2                !
 ! D154  D(50,24,25,26)         92.447          estimate D2E/DX2                !
 ! D155  D(50,24,25,51)        -62.6225         estimate D2E/DX2                !
 ! D156  D(17,24,32,28)        134.9961         estimate D2E/DX2                !
 ! D157  D(17,24,32,31)        -58.2055         estimate D2E/DX2                !
 ! D158  D(17,24,32,59)         47.3109         estimate D2E/DX2                !
 ! D159  D(25,24,32,28)          5.8997         estimate D2E/DX2                !
 ! D160  D(25,24,32,31)        172.6981         estimate D2E/DX2                !
 ! D161  D(25,24,32,59)        -81.7855         estimate D2E/DX2                !
 ! D162  D(50,24,32,28)       -109.5325         estimate D2E/DX2                !
 ! D163  D(50,24,32,31)         57.2659         estimate D2E/DX2                !
 ! D164  D(50,24,32,59)        162.7823         estimate D2E/DX2                !
 ! D165  D(24,25,26,27)         55.7212         estimate D2E/DX2                !
 ! D166  D(24,25,26,52)        -63.319          estimate D2E/DX2                !
 ! D167  D(24,25,26,53)       -179.4835         estimate D2E/DX2                !
 ! D168  D(51,25,26,27)       -149.0879         estimate D2E/DX2                !
 ! D169  D(51,25,26,52)         91.8719         estimate D2E/DX2                !
 ! D170  D(51,25,26,53)        -24.2926         estimate D2E/DX2                !
 ! D171  D(25,26,27,28)        -60.764          estimate D2E/DX2                !
 ! D172  D(25,26,27,54)       -173.7894         estimate D2E/DX2                !
 ! D173  D(25,26,27,55)         72.6556         estimate D2E/DX2                !
 ! D174  D(52,26,27,28)         57.6415         estimate D2E/DX2                !
 ! D175  D(52,26,27,54)        -55.3839         estimate D2E/DX2                !
 ! D176  D(52,26,27,55)       -168.9389         estimate D2E/DX2                !
 ! D177  D(53,26,27,28)        173.5672         estimate D2E/DX2                !
 ! D178  D(53,26,27,54)         60.5419         estimate D2E/DX2                !
 ! D179  D(53,26,27,55)        -53.0131         estimate D2E/DX2                !
 ! D180  D(26,27,28,29)        174.0456         estimate D2E/DX2                !
 ! D181  D(26,27,28,32)         41.7093         estimate D2E/DX2                !
 ! D182  D(26,27,28,56)        -73.4088         estimate D2E/DX2                !
 ! D183  D(54,27,28,29)        -70.7021         estimate D2E/DX2                !
 ! D184  D(54,27,28,32)        156.9615         estimate D2E/DX2                !
 ! D185  D(54,27,28,56)         41.8435         estimate D2E/DX2                !
 ! D186  D(55,27,28,29)         44.9895         estimate D2E/DX2                !
 ! D187  D(55,27,28,32)        -87.3468         estimate D2E/DX2                !
 ! D188  D(55,27,28,56)        157.5351         estimate D2E/DX2                !
 ! D189  D(27,28,29,30)       -155.3398         estimate D2E/DX2                !
 ! D190  D(27,28,29,57)         92.2027         estimate D2E/DX2                !
 ! D191  D(32,28,29,30)        -19.2559         estimate D2E/DX2                !
 ! D192  D(32,28,29,57)       -131.7134         estimate D2E/DX2                !
 ! D193  D(56,28,29,30)         92.5039         estimate D2E/DX2                !
 ! D194  D(56,28,29,57)        -19.9537         estimate D2E/DX2                !
 ! D195  D(27,28,32,24)        -19.2697         estimate D2E/DX2                !
 ! D196  D(27,28,32,31)        171.3997         estimate D2E/DX2                !
 ! D197  D(27,28,32,59)         67.5521         estimate D2E/DX2                !
 ! D198  D(29,28,32,24)       -157.8335         estimate D2E/DX2                !
 ! D199  D(29,28,32,31)         32.836          estimate D2E/DX2                !
 ! D200  D(29,28,32,59)        -71.0116         estimate D2E/DX2                !
 ! D201  D(56,28,32,24)         93.1616         estimate D2E/DX2                !
 ! D202  D(56,28,32,31)        -76.1689         estimate D2E/DX2                !
 ! D203  D(56,28,32,59)        179.9835         estimate D2E/DX2                !
 ! D204  D(28,29,30,31)         -0.3604         estimate D2E/DX2                !
 ! D205  D(57,29,30,31)        111.9423         estimate D2E/DX2                !
 ! D206  D(29,30,31,32)         21.1603         estimate D2E/DX2                !
 ! D207  D(29,30,31,58)        142.731          estimate D2E/DX2                !
 ! D208  D(30,31,32,24)        157.0051         estimate D2E/DX2                !
 ! D209  D(30,31,32,28)        -34.0346         estimate D2E/DX2                !
 ! D210  D(30,31,32,59)         59.0101         estimate D2E/DX2                !
 ! D211  D(58,31,32,24)         36.1303         estimate D2E/DX2                !
 ! D212  D(58,31,32,28)       -154.9093         estimate D2E/DX2                !
 ! D213  D(58,31,32,59)        -61.8647         estimate D2E/DX2                !
 --------------------------------------------------------------------------------
 Trust Radius=3.00D-01 FncErr=1.00D-07 GrdErr=1.00D-06
 Number of steps in this run=    354 maximum allowed number of steps=    354.
 GradGradGradGradGradGradGradGradGradGradGradGradGradGradGradGradGradGrad

 Stoichiometry    C21H31N3OSSi2
 Framework group  C1[X(C21H31N3OSSi2)]
 Deg. of freedom   171
 Full point group                 C1      NOp   1
 Largest Abelian subgroup         C1      NOp   1
 Largest concise Abelian subgroup C1      NOp   1
                         Standard orientation:                         
 ---------------------------------------------------------------------
 Center     Atomic      Atomic             Coordinates (Angstroms)
 Number     Number       Type             X           Y           Z
 ---------------------------------------------------------------------
      1         14           0        4.790624   -1.949450   -0.661880
      2          1           0        6.185334   -2.345373   -0.381465
      3          1           0        4.202867   -2.886933   -1.718228
      4          6           0        4.920902    0.221822   -0.333451
      5          6           0        3.701691    0.554606    0.146316
      6          6           0        2.922219    1.809485    0.632091
      7          6           0        2.474181    2.620812   -0.516004
      8          6           0        1.847185    3.703169    0.169927
      9         14           0        0.055225    3.117148    0.228768
     10          1           0       -0.343494    1.934227   -0.637117
     11          1           0       -0.524499    4.444893    0.006590
     12          6           0        1.410967    1.847525    1.605961
     13          6           0        0.550507    0.664201    1.492078
     14          6           0       -0.778957    0.466288    2.569089
     15          6           0       -1.370215   -0.593045    1.731670
     16          8           0       -2.587247   -1.322351    2.002389
     17          6           0       -2.241077   -2.526651    1.283512
     18          6           0       -0.855413   -2.665194    2.063802
     19          6           0       -0.225977   -1.684276    1.264693
     20          6           0        1.295929   -1.623543    1.329510
     21          6           0        1.413172   -0.462971    0.410764
     22          6           0        2.760366   -0.358958   -0.425501
     23          6           0        3.247872   -0.943654   -1.592448
     24          6           0       -2.463131   -2.145474   -0.489951
     25          7           0       -1.283106   -2.394447   -1.352149
     26          6           0       -1.035314   -1.638341   -2.569489
     27          6           0       -0.967512   -0.109781   -2.433788
     28          6           0       -2.346139    0.267370   -1.903477
     29          7           0       -2.660076    1.671076   -1.503402
     30         16           0       -3.913665    1.715293   -0.381497
     31          7           0       -4.151717    0.045915   -0.326133
     32          6           0       -2.931608   -0.657227   -0.802712
     33          1           0        5.390980    0.744386   -1.210900
     34          1           0        3.722751    2.396159    1.081499
     35          1           0        1.940083    2.143874   -1.322886
     36          1           0        2.192280    3.875103    1.200429
     37          1           0        1.154150    2.536561    2.428081
     38          1           0       -0.203085    0.949202    0.794406
     39          1           0       -1.608969    1.256183    2.554181
     40          1           0       -0.722748    0.327991    3.656965
     41          1           0       -1.790696    0.194968    1.126925
     42          1           0       -2.829198   -3.401614    1.534249
     43          1           0       -0.319174   -3.606865    2.158938
     44          1           0       -0.737393   -2.160661    3.056156
     45          1           0       -0.264436   -2.136340    0.293643
     46          1           0        1.765360   -2.522612    0.898070
     47          1           0        1.704594   -1.507083    2.335652
     48          1           0        0.803704   -0.700048   -0.467203
     49          1           0        4.112040   -0.738666   -2.311781
     50          1           0       -3.261454   -2.816145   -0.808587
     51          1           0       -0.871105   -3.319660   -1.306902
     52          1           0       -1.868812   -1.863691   -3.235617
     53          1           0       -0.119482   -1.987810   -3.056019
     54          1           0       -0.888090    0.341596   -3.432848
     55          1           0       -0.051170    0.250527   -1.941418
     56          1           0       -2.960306    0.130869   -2.773989
     57          1           0       -3.049408    2.095743   -2.344932
     58          1           0       -4.374505   -0.231947    0.627251
     59          1           0       -2.224986   -0.345278   -0.178507
 ---------------------------------------------------------------------
 Rotational constants (GHZ):      0.2257247      0.1286418      0.1102495
 Standard basis: 6-31++G(d,p) (6D, 7F)
 There are   730 symmetry adapted basis functions of A   symmetry.
 Integral buffers will be    131072 words long.
 Raffenetti 2 integral format.
 Two-electron integral symmetry is turned on.
   730 basis functions,  1216 primitive gaussians,   730 cartesian basis functions
   115 alpha electrons      115 beta electrons
       nuclear repulsion energy      3473.5883180138 Hartrees.
 NAtoms=   59 NActive=   59 NUniq=   59 SFac= 1.00D+00 NAtFMM=   60 NAOKFM=F Big=F
 One-electron integrals computed using PRISM.
 NBasis=   730 RedAO= T  NBF=   730
 NBsUse=   725 1.00D-06 NBFU=   725
 Harris functional with IExCor=  402 diagonalized for initial guess.
 ExpMin= 3.31D-02 ExpMax= 2.19D+04 ExpMxC= 3.30D+03 IAcc=3 IRadAn=         5 AccDes= 0.00D+00
 HarFok:  IExCor=  402 AccDes= 0.00D+00 IRadAn=         5 IDoV= 1
 ScaDFX=  1.000000  1.000000  1.000000  1.000000
 FoFCou: FMM=F IPFlag=           0 FMFlag=      100000 FMFlg1=           0
         NFxFlg=           0 DoJE=T BraDBF=F KetDBF=T FulRan=T
         Omega=  0.000000  0.000000  1.000000  0.000000  0.000000 ICntrl=     500 IOpCl=  0
         NMat0=    1 NMatS0=    1 NMatT0=    0 NMatD0=    1 NMtDS0=    0 NMtDT0=    0
         I1Cent=           4 NGrid=           0.
 Petite list used in FoFCou.
 Initial guess orbital symmetries:
       Occupied  (A) (A) (A) (A) (A) (A) (A) (A) (A) (A) (A) (A)
                 (A) (A) (A) (A) (A) (A) (A) (A) (A) (A) (A) (A)
                 (A) (A) (A) (A) (A) (A) (A) (A) (A) (A) (A) (A)
                 (A) (A) (A) (A) (A) (A) (A) (A) (A) (A) (A) (A)
                 (A) (A) (A) (A) (A) (A) (A) (A) (A) (A) (A) (A)
                 (A) (A) (A) (A) (A) (A) (A) (A) (A) (A) (A) (A)
                 (A) (A) (A) (A) (A) (A) (A) (A) (A) (A) (A) (A)
                 (A) (A) (A) (A) (A) (A) (A) (A) (A) (A) (A) (A)
                 (A) (A) (A) (A) (A) (A) (A) (A) (A) (A) (A) (A)
                 (A) (A) (A) (A) (A) (A) (A)
       Virtual   (A) (A) (A) (A) (A) (A) (A) (A) (A) (A) (A) (A)
                 (A) (A) (A) (A) (A) (A) (A) (A) (A) (A) (A) (A)
                 (A) (A) (A) (A) (A) (A) (A) (A) (A) (A) (A) (A)
                 (A) (A) (A) (A) (A) (A) (A) (A) (A) (A) (A) (A)
                 (A) (A) (A) (A) (A) (A) (A) (A) (A) (A) (A) (A)
                 (A) (A) (A) (A) (A) (A) (A) (A) (A) (A) (A) (A)
                 (A) (A) (A) (A) (A) (A) (A) (A) (A) (A) (A) (A)
                 (A) (A) (A) (A) (A) (A) (A) (A) (A) (A) (A) (A)
                 (A) (A) (A) (A) (A) (A) (A) (A) (A) (A) (A) (A)
                 (A) (A) (A) (A) (A) (A) (A) (A) (A) (A) (A) (A)
                 (A) (A) (A) (A) (A) (A) (A) (A) (A) (A) (A) (A)
                 (A) (A) (A) (A) (A) (A) (A) (A) (A) (A) (A) (A)
                 (A) (A) (A) (A) (A) (A) (A) (A) (A) (A) (A) (A)
                 (A) (A) (A) (A) (A) (A) (A) (A) (A) (A) (A) (A)
                 (A) (A) (A) (A) (A) (A) (A) (A) (A) (A) (A) (A)
                 (A) (A) (A) (A) (A) (A) (A) (A) (A) (A) (A) (A)
                 (A) (A) (A) (A) (A) (A) (A) (A) (A) (A) (A) (A)
                 (A) (A) (A) (A) (A) (A) (A) (A) (A) (A) (A) (A)
                 (A) (A) (A) (A) (A) (A) (A) (A) (A) (A) (A) (A)
                 (A) (A) (A) (A) (A) (A) (A) (A) (A) (A) (A) (A)
                 (A) (A) (A) (A) (A) (A) (A) (A) (A) (A) (A) (A)
                 (A) (A) (A) (A) (A) (A) (A) (A) (A) (A) (A) (A)
                 (A) (A) (A) (A) (A) (A) (A) (A) (A) (A) (A) (A)
                 (A) (A) (A) (A) (A) (A) (A) (A) (A) (A) (A) (A)
                 (A) (A) (A) (A) (A) (A) (A) (A) (A) (A) (A) (A)
                 (A) (A) (A) (A) (A) (A) (A) (A) (A) (A) (A) (A)
                 (A) (A) (A) (A) (A) (A) (A) (A) (A) (A) (A) (A)
                 (A) (A) (A) (A) (A) (A) (A) (A) (A) (A) (A) (A)
                 (A) (A) (A) (A) (A) (A) (A) (A) (A) (A) (A) (A)
                 (A) (A) (A) (A) (A) (A) (A) (A) (A) (A) (A) (A)
                 (A) (A) (A) (A) (A) (A) (A) (A) (A) (A) (A) (A)
                 (A) (A) (A) (A) (A) (A) (A) (A) (A) (A) (A) (A)
                 (A) (A) (A) (A) (A) (A) (A) (A) (A) (A) (A) (A)
                 (A) (A) (A) (A) (A) (A) (A) (A) (A) (A) (A) (A)
                 (A) (A) (A) (A) (A) (A) (A) (A) (A) (A) (A) (A)
                 (A) (A) (A) (A) (A) (A) (A) (A) (A) (A) (A) (A)
                 (A) (A) (A) (A) (A) (A) (A) (A) (A) (A) (A) (A)
                 (A) (A) (A) (A) (A) (A) (A) (A) (A) (A) (A) (A)
                 (A) (A) (A) (A) (A) (A) (A) (A) (A) (A) (A) (A)
                 (A) (A) (A) (A) (A) (A) (A) (A) (A) (A) (A) (A)
                 (A) (A) (A) (A) (A) (A) (A) (A) (A) (A) (A) (A)
                 (A) (A) (A) (A) (A) (A) (A) (A) (A) (A) (A) (A)
                 (A) (A) (A) (A) (A) (A) (A) (A) (A) (A) (A) (A)
                 (A) (A) (A) (A) (A) (A) (A) (A) (A) (A) (A) (A)
                 (A) (A) (A) (A) (A) (A) (A) (A) (A) (A) (A) (A)
                 (A) (A) (A) (A) (A) (A) (A) (A) (A) (A) (A) (A)
                 (A) (A) (A) (A) (A) (A) (A) (A) (A) (A) (A) (A)
                 (A) (A) (A) (A) (A) (A) (A) (A) (A) (A) (A) (A)
                 (A) (A) (A) (A) (A) (A) (A) (A) (A) (A) (A) (A)
                 (A) (A) (A) (A) (A) (A) (A) (A) (A) (A) (A) (A)
                 (A) (A) (A) (A) (A) (A) (A) (A) (A) (A)
 The electronic state of the initial guess is 1-A.
 Requested convergence on RMS density matrix=1.00D-08 within 128 cycles.
 Requested convergence on MAX density matrix=1.00D-06.
 Requested convergence on             energy=1.00D-06.
 No special actions if energy rises.
 EnCoef did     6 forward-backward iterations
 EnCoef did   100 forward-backward iterations
 Restarting incremental Fock formation.
 SCF Done:  E(RB3LYP) =  -2034.46421152     A.U. after   27 cycles
             Convg  =    0.9587D-08             -V/T =  2.0061

 **********************************************************************

            Population analysis using the SCF density.

 **********************************************************************

 Orbital symmetries:
       Occupied  (A) (A) (A) (A) (A) (A) (A) (A) (A) (A) (A) (A)
                 (A) (A) (A) (A) (A) (A) (A) (A) (A) (A) (A) (A)
                 (A) (A) (A) (A) (A) (A) (A) (A) (A) (A) (A) (A)
                 (A) (A) (A) (A) (A) (A) (A) (A) (A) (A) (A) (A)
                 (A) (A) (A) (A) (A) (A) (A) (A) (A) (A) (A) (A)
                 (A) (A) (A) (A) (A) (A) (A) (A) (A) (A) (A) (A)
                 (A) (A) (A) (A) (A) (A) (A) (A) (A) (A) (A) (A)
                 (A) (A) (A) (A) (A) (A) (A) (A) (A) (A) (A) (A)
                 (A) (A) (A) (A) (A) (A) (A) (A) (A) (A) (A) (A)
                 (A) (A) (A) (A) (A) (A) (A)
       Virtual   (A) (A) (A) (A) (A) (A) (A) (A) (A) (A) (A) (A)
                 (A) (A) (A) (A) (A) (A) (A) (A) (A) (A) (A) (A)
                 (A) (A) (A) (A) (A) (A) (A) (A) (A) (A) (A) (A)
                 (A) (A) (A) (A) (A) (A) (A) (A) (A) (A) (A) (A)
                 (A) (A) (A) (A) (A) (A) (A) (A) (A) (A) (A) (A)
                 (A) (A) (A) (A) (A) (A) (A) (A) (A) (A) (A) (A)
                 (A) (A) (A) (A) (A) (A) (A) (A) (A) (A) (A) (A)
                 (A) (A) (A) (A) (A) (A) (A) (A) (A) (A) (A) (A)
                 (A) (A) (A) (A) (A) (A) (A) (A) (A) (A) (A) (A)
                 (A) (A) (A) (A) (A) (A) (A) (A) (A) (A) (A) (A)
                 (A) (A) (A) (A) (A) (A) (A) (A) (A) (A) (A) (A)
                 (A) (A) (A) (A) (A) (A) (A) (A) (A) (A) (A) (A)
                 (A) (A) (A) (A) (A) (A) (A) (A) (A) (A) (A) (A)
                 (A) (A) (A) (A) (A) (A) (A) (A) (A) (A) (A) (A)
                 (A) (A) (A) (A) (A) (A) (A) (A) (A) (A) (A) (A)
                 (A) (A) (A) (A) (A) (A) (A) (A) (A) (A) (A) (A)
                 (A) (A) (A) (A) (A) (A) (A) (A) (A) (A) (A) (A)
                 (A) (A) (A) (A) (A) (A) (A) (A) (A) (A) (A) (A)
                 (A) (A) (A) (A) (A) (A) (A) (A) (A) (A) (A) (A)
                 (A) (A) (A) (A) (A) (A) (A) (A) (A) (A) (A) (A)
                 (A) (A) (A) (A) (A) (A) (A) (A) (A) (A) (A) (A)
                 (A) (A) (A) (A) (A) (A) (A) (A) (A) (A) (A) (A)
                 (A) (A) (A) (A) (A) (A) (A) (A) (A) (A) (A) (A)
                 (A) (A) (A) (A) (A) (A) (A) (A) (A) (A) (A) (A)
                 (A) (A) (A) (A) (A) (A) (A) (A) (A) (A) (A) (A)
                 (A) (A) (A) (A) (A) (A) (A) (A) (A) (A) (A) (A)
                 (A) (A) (A) (A) (A) (A) (A) (A) (A) (A) (A) (A)
                 (A) (A) (A) (A) (A) (A) (A) (A) (A) (A) (A) (A)
                 (A) (A) (A) (A) (A) (A) (A) (A) (A) (A) (A) (A)
                 (A) (A) (A) (A) (A) (A) (A) (A) (A) (A) (A) (A)
                 (A) (A) (A) (A) (A) (A) (A) (A) (A) (A) (A) (A)
                 (A) (A) (A) (A) (A) (A) (A) (A) (A) (A) (A) (A)
                 (A) (A) (A) (A) (A) (A) (A) (A) (A) (A) (A) (A)
                 (A) (A) (A) (A) (A) (A) (A) (A) (A) (A) (A) (A)
                 (A) (A) (A) (A) (A) (A) (A) (A) (A) (A) (A) (A)
                 (A) (A) (A) (A) (A) (A) (A) (A) (A) (A) (A) (A)
                 (A) (A) (A) (A) (A) (A) (A) (A) (A) (A) (A) (A)
                 (A) (A) (A) (A) (A) (A) (A) (A) (A) (A) (A) (A)
                 (A) (A) (A) (A) (A) (A) (A) (A) (A) (A) (A) (A)
                 (A) (A) (A) (A) (A) (A) (A) (A) (A) (A) (A) (A)
                 (A) (A) (A) (A) (A) (A) (A) (A) (A) (A) (A) (A)
                 (A) (A) (A) (A) (A) (A) (A) (A) (A) (A) (A) (A)
                 (A) (A) (A) (A) (A) (A) (A) (A) (A) (A) (A) (A)
                 (A) (A) (A) (A) (A) (A) (A) (A) (A) (A) (A) (A)
                 (A) (A) (A) (A) (A) (A) (A) (A) (A) (A) (A) (A)
                 (A) (A) (A) (A) (A) (A) (A) (A) (A) (A) (A) (A)
                 (A) (A) (A) (A) (A) (A) (A) (A) (A) (A) (A) (A)
                 (A) (A) (A) (A) (A) (A) (A) (A) (A) (A) (A) (A)
                 (A) (A) (A) (A) (A) (A) (A) (A) (A) (A) (A) (A)
                 (A) (A) (A) (A) (A) (A) (A) (A) (A) (A) (A) (A)
                 (A) (A) (A) (A) (A) (A) (A) (A) (A) (A)
 The electronic state is 1-A.
 Alpha  occ. eigenvalues --  -88.92729 -66.16605 -66.14437 -19.17487 -14.36393
 Alpha  occ. eigenvalues --  -14.35258 -14.34562 -10.27217 -10.27155 -10.24962
 Alpha  occ. eigenvalues --  -10.24627 -10.24259 -10.23688 -10.23200 -10.23146
 Alpha  occ. eigenvalues --  -10.22675 -10.22600 -10.22548 -10.22486 -10.22192
 Alpha  occ. eigenvalues --  -10.22055 -10.21218 -10.20488 -10.19237 -10.18586
 Alpha  occ. eigenvalues --  -10.18369 -10.18004 -10.17953  -7.98237  -5.94957
 Alpha  occ. eigenvalues --   -5.94478  -5.93504  -5.30795  -5.28949  -3.67049
 Alpha  occ. eigenvalues --   -3.66549  -3.66375  -3.65018  -3.64752  -3.64616
 Alpha  occ. eigenvalues --   -1.06442  -0.98551  -0.92491  -0.88678  -0.88224
 Alpha  occ. eigenvalues --   -0.85719  -0.82809  -0.81169  -0.80462  -0.78038
 Alpha  occ. eigenvalues --   -0.77172  -0.74146  -0.71826  -0.68641  -0.67891
 Alpha  occ. eigenvalues --   -0.66135  -0.64771  -0.63881  -0.63303  -0.61609
 Alpha  occ. eigenvalues --   -0.59315  -0.58345  -0.58079  -0.56364  -0.55455
 Alpha  occ. eigenvalues --   -0.54278  -0.53242  -0.52541  -0.51468  -0.50885
 Alpha  occ. eigenvalues --   -0.50042  -0.49583  -0.49266  -0.47921  -0.47579
 Alpha  occ. eigenvalues --   -0.46961  -0.46354  -0.45337  -0.44676  -0.44092
 Alpha  occ. eigenvalues --   -0.43516  -0.42997  -0.42395  -0.41969  -0.41586
 Alpha  occ. eigenvalues --   -0.40620  -0.39820  -0.39484  -0.38530  -0.37946
 Alpha  occ. eigenvalues --   -0.37732  -0.37323  -0.36449  -0.36316  -0.36013
 Alpha  occ. eigenvalues --   -0.35615  -0.35260  -0.34567  -0.33859  -0.33237
 Alpha  occ. eigenvalues --   -0.33070  -0.32342  -0.32098  -0.31193  -0.29572
 Alpha  occ. eigenvalues --   -0.28242  -0.27342  -0.24791  -0.24256  -0.23680
 Alpha  occ. eigenvalues --   -0.21974  -0.21849  -0.18777  -0.17705  -0.17398
 Alpha virt. eigenvalues --   -0.12570  -0.09923  -0.08001  -0.06835  -0.02555
 Alpha virt. eigenvalues --   -0.02176  -0.01915  -0.01513  -0.01078  -0.00268
 Alpha virt. eigenvalues --   -0.00171   0.00373   0.00604   0.01111   0.01383
 Alpha virt. eigenvalues --    0.01522   0.01971   0.02163   0.02350   0.02917
 Alpha virt. eigenvalues --    0.03130   0.03315   0.03461   0.04264   0.04286
 Alpha virt. eigenvalues --    0.04800   0.04984   0.05163   0.05512   0.05665
 Alpha virt. eigenvalues --    0.05891   0.06006   0.06282   0.06481   0.06635
 Alpha virt. eigenvalues --    0.06845   0.07104   0.07772   0.07861   0.07965
 Alpha virt. eigenvalues --    0.08272   0.08479   0.08528   0.08998   0.09229
 Alpha virt. eigenvalues --    0.09389   0.09456   0.09753   0.10061   0.10152
 Alpha virt. eigenvalues --    0.10464   0.10667   0.10825   0.10926   0.11030
 Alpha virt. eigenvalues --    0.11272   0.11479   0.11585   0.12039   0.12429
 Alpha virt. eigenvalues --    0.12502   0.12604   0.12693   0.12963   0.13066
 Alpha virt. eigenvalues --    0.13112   0.13304   0.13409   0.13660   0.13876
 Alpha virt. eigenvalues --    0.13951   0.14175   0.14427   0.14543   0.14859
 Alpha virt. eigenvalues --    0.14988   0.15051   0.15290   0.15589   0.15768
 Alpha virt. eigenvalues --    0.15902   0.16100   0.16235   0.16364   0.16716
 Alpha virt. eigenvalues --    0.16973   0.17243   0.17396   0.17513   0.17684
 Alpha virt. eigenvalues --    0.18047   0.18143   0.18154   0.18365   0.18580
 Alpha virt. eigenvalues --    0.18792   0.19109   0.19134   0.19536   0.19740
 Alpha virt. eigenvalues --    0.19872   0.20159   0.20233   0.20326   0.20453
 Alpha virt. eigenvalues --    0.20909   0.21271   0.21422   0.21653   0.21744
 Alpha virt. eigenvalues --    0.21947   0.22058   0.22479   0.22778   0.22985
 Alpha virt. eigenvalues --    0.23255   0.23541   0.23729   0.23917   0.24052
 Alpha virt. eigenvalues --    0.24426   0.24491   0.25019   0.25085   0.25391
 Alpha virt. eigenvalues --    0.25582   0.25728   0.26044   0.26357   0.26460
 Alpha virt. eigenvalues --    0.26737   0.26840   0.27150   0.27635   0.27814
 Alpha virt. eigenvalues --    0.28052   0.28258   0.28532   0.28685   0.28889
 Alpha virt. eigenvalues --    0.29123   0.29163   0.29361   0.29700   0.29839
 Alpha virt. eigenvalues --    0.30172   0.30588   0.30893   0.31183   0.31549
 Alpha virt. eigenvalues --    0.31777   0.32062   0.32220   0.32600   0.32671
 Alpha virt. eigenvalues --    0.32984   0.33315   0.33468   0.33818   0.33977
 Alpha virt. eigenvalues --    0.34317   0.34479   0.34543   0.35069   0.35407
 Alpha virt. eigenvalues --    0.35688   0.35887   0.36169   0.36356   0.36774
 Alpha virt. eigenvalues --    0.37086   0.37344   0.37739   0.37901   0.38085
 Alpha virt. eigenvalues --    0.38404   0.38661   0.39179   0.39718   0.39905
 Alpha virt. eigenvalues --    0.40135   0.40899   0.41252   0.41380   0.41665
 Alpha virt. eigenvalues --    0.42060   0.42233   0.42591   0.43408   0.43554
 Alpha virt. eigenvalues --    0.43636   0.44273   0.44898   0.44929   0.45493
 Alpha virt. eigenvalues --    0.45996   0.46280   0.47180   0.47738   0.47823
 Alpha virt. eigenvalues --    0.48786   0.49164   0.49561   0.49797   0.50847
 Alpha virt. eigenvalues --    0.51107   0.51743   0.53352   0.54012   0.54586
 Alpha virt. eigenvalues --    0.54888   0.56419   0.56868   0.57851   0.59771
 Alpha virt. eigenvalues --    0.62104   0.63128   0.64401   0.65059   0.65416
 Alpha virt. eigenvalues --    0.66203   0.66610   0.68616   0.69609   0.70806
 Alpha virt. eigenvalues --    0.71511   0.71857   0.71964   0.72482   0.73192
 Alpha virt. eigenvalues --    0.73451   0.74308   0.74630   0.75186   0.75951
 Alpha virt. eigenvalues --    0.76310   0.77334   0.77604   0.77972   0.78643
 Alpha virt. eigenvalues --    0.78722   0.79358   0.79590   0.79714   0.81088
 Alpha virt. eigenvalues --    0.81273   0.81871   0.82345   0.83202   0.83573
 Alpha virt. eigenvalues --    0.83965   0.84265   0.84799   0.85661   0.86254
 Alpha virt. eigenvalues --    0.86561   0.86785   0.87350   0.87753   0.88186
 Alpha virt. eigenvalues --    0.88312   0.88532   0.89278   0.89608   0.90030
 Alpha virt. eigenvalues --    0.90608   0.91165   0.91549   0.92520   0.93083
 Alpha virt. eigenvalues --    0.93404   0.93736   0.95458   0.96293   0.96763
 Alpha virt. eigenvalues --    0.96872   0.97297   0.97695   0.99397   0.99873
 Alpha virt. eigenvalues --    1.00372   1.00927   1.01763   1.02111   1.02632
 Alpha virt. eigenvalues --    1.02933   1.03921   1.04502   1.04932   1.05608
 Alpha virt. eigenvalues --    1.06147   1.06964   1.07306   1.07581   1.08203
 Alpha virt. eigenvalues --    1.09189   1.09602   1.09804   1.10587   1.10947
 Alpha virt. eigenvalues --    1.11262   1.12050   1.12092   1.12815   1.13137
 Alpha virt. eigenvalues --    1.13658   1.13790   1.14600   1.14770   1.15565
 Alpha virt. eigenvalues --    1.16397   1.16610   1.17205   1.17495   1.19033
 Alpha virt. eigenvalues --    1.19268   1.19897   1.20653   1.21255   1.21555
 Alpha virt. eigenvalues --    1.22138   1.22977   1.23157   1.23561   1.24370
 Alpha virt. eigenvalues --    1.24613   1.25176   1.26561   1.27168   1.27967
 Alpha virt. eigenvalues --    1.29105   1.29440   1.31724   1.32604   1.33275
 Alpha virt. eigenvalues --    1.34751   1.35273   1.35800   1.37746   1.38346
 Alpha virt. eigenvalues --    1.39504   1.40749   1.41218   1.41525   1.43470
 Alpha virt. eigenvalues --    1.44044   1.44449   1.46142   1.47044   1.47207
 Alpha virt. eigenvalues --    1.49263   1.50113   1.50778   1.51824   1.52534
 Alpha virt. eigenvalues --    1.52633   1.54369   1.54499   1.55813   1.56569
 Alpha virt. eigenvalues --    1.58123   1.58603   1.59224   1.60041   1.61553
 Alpha virt. eigenvalues --    1.62048   1.63033   1.63515   1.64873   1.65708
 Alpha virt. eigenvalues --    1.66361   1.68811   1.69012   1.69833   1.70458
 Alpha virt. eigenvalues --    1.71831   1.72349   1.72834   1.74551   1.75711
 Alpha virt. eigenvalues --    1.76492   1.76790   1.77519   1.78072   1.79158
 Alpha virt. eigenvalues --    1.79538   1.80444   1.81060   1.81651   1.82725
 Alpha virt. eigenvalues --    1.84265   1.84623   1.85647   1.87085   1.87617
 Alpha virt. eigenvalues --    1.88088   1.89117   1.90055   1.91057   1.91536
 Alpha virt. eigenvalues --    1.92195   1.92230   1.93903   1.94814   1.95857
 Alpha virt. eigenvalues --    1.96481   1.97418   1.97984   1.99192   1.99818
 Alpha virt. eigenvalues --    2.00368   2.01216   2.02246   2.04080   2.04659
 Alpha virt. eigenvalues --    2.04816   2.06115   2.07110   2.08163   2.08277
 Alpha virt. eigenvalues --    2.09147   2.09966   2.10420   2.11778   2.12539
 Alpha virt. eigenvalues --    2.12956   2.13526   2.14065   2.14800   2.15008
 Alpha virt. eigenvalues --    2.15692   2.16209   2.16373   2.17151   2.17453
 Alpha virt. eigenvalues --    2.18092   2.18535   2.19327   2.19677   2.20868
 Alpha virt. eigenvalues --    2.21443   2.21949   2.22249   2.22791   2.22934
 Alpha virt. eigenvalues --    2.23853   2.24572   2.24926   2.25192   2.26113
 Alpha virt. eigenvalues --    2.27075   2.28549   2.28785   2.29270   2.30157
 Alpha virt. eigenvalues --    2.30929   2.32457   2.33329   2.33932   2.34006
 Alpha virt. eigenvalues --    2.34926   2.35517   2.36489   2.39558   2.39832
 Alpha virt. eigenvalues --    2.40138   2.41696   2.42084   2.42194   2.43260
 Alpha virt. eigenvalues --    2.45265   2.45414   2.45847   2.46369   2.47202
 Alpha virt. eigenvalues --    2.48206   2.48598   2.49548   2.50299   2.50898
 Alpha virt. eigenvalues --    2.51583   2.51972   2.52611   2.53543   2.53727
 Alpha virt. eigenvalues --    2.54385   2.54488   2.55446   2.56420   2.57016
 Alpha virt. eigenvalues --    2.57755   2.58042   2.59107   2.59724   2.60061
 Alpha virt. eigenvalues --    2.60706   2.61419   2.62153   2.62205   2.63012
 Alpha virt. eigenvalues --    2.64152   2.64940   2.66113   2.66552   2.67362
 Alpha virt. eigenvalues --    2.67744   2.68029   2.69433   2.71035   2.71334
 Alpha virt. eigenvalues --    2.71822   2.72951   2.74363   2.75076   2.75570
 Alpha virt. eigenvalues --    2.75997   2.76431   2.76700   2.77965   2.78351
 Alpha virt. eigenvalues --    2.79253   2.80320   2.80834   2.80969   2.81816
 Alpha virt. eigenvalues --    2.82431   2.83207   2.83611   2.84824   2.86923
 Alpha virt. eigenvalues --    2.87261   2.88491   2.89246   2.90264   2.90656
 Alpha virt. eigenvalues --    2.93070   2.93584   2.94469   2.95024   2.97392
 Alpha virt. eigenvalues --    2.98205   3.00131   3.00656   3.01144   3.03611
 Alpha virt. eigenvalues --    3.05142   3.06382   3.08832   3.10285   3.10749
 Alpha virt. eigenvalues --    3.12426   3.13337   3.14720   3.15380   3.15879
 Alpha virt. eigenvalues --    3.18630   3.29388   3.34226   3.34731   3.35473
 Alpha virt. eigenvalues --    3.36378   3.37407   3.38358   3.41156   3.41873
 Alpha virt. eigenvalues --    3.42606   3.43585   3.44852   3.45560   3.46152
 Alpha virt. eigenvalues --    3.47704   3.49424   3.52903   3.53423   3.53929
 Alpha virt. eigenvalues --    3.55742   3.56075   3.59038   3.59685   3.61592
 Alpha virt. eigenvalues --    3.64484   3.69357   3.72429   3.83038   4.06986
 Alpha virt. eigenvalues --    4.28443   4.35534   4.38054   4.41680   4.45456
 Alpha virt. eigenvalues --    4.48464   4.49585   4.54327   4.57490   4.59201
 Alpha virt. eigenvalues --    4.62051   4.64888   4.67393   4.69263   4.71980
 Alpha virt. eigenvalues --    4.73372   4.76309   4.80393   4.82284   4.86223
 Alpha virt. eigenvalues --    4.86413   4.90797   4.95702   5.00421   5.13187
          Condensed to atoms (all electrons):
 Mulliken atomic charges:
              1
     1  Si   0.161804
     2  H   -0.102129
     3  H    0.002608
     4  C   -0.517911
     5  C    0.188747
     6  C   -0.457461
     7  C    0.394042
     8  C   -0.968494
     9  Si   1.061001
    10  H   -0.426367
    11  H   -0.276851
    12  C   -0.069218
    13  C   -0.137900
    14  C   -0.508235
    15  C   -0.281218
    16  O   -0.200271
    17  C   -0.321832
    18  C   -0.602852
    19  C    0.593900
    20  C   -0.689956
    21  C    0.525089
    22  C    0.123309
    23  C   -0.362233
    24  C    0.520023
    25  N   -0.513624
    26  C   -0.336475
    27  C   -0.073809
    28  C   -0.662770
    29  N   -0.512746
    30  S    0.542305
    31  N   -0.428975
    32  C   -0.117799
    33  H    0.188420
    34  H    0.235930
    35  H    0.186436
    36  H    0.088426
    37  H    0.227675
    38  H   -0.294233
    39  H    0.183426
    40  H    0.143256
    41  H    0.207677
    42  H    0.108452
    43  H    0.136866
    44  H    0.178908
    45  H    0.111490
    46  H    0.164848
    47  H    0.164348
    48  H    0.020710
    49  H    0.227245
    50  H    0.178894
    51  H    0.352671
    52  H    0.146424
    53  H    0.114010
    54  H    0.156531
    55  H    0.586511
    56  H    0.198606
    57  H    0.381807
    58  H    0.387229
    59  H   -0.326266
 Sum of Mulliken atomic charges =  -0.00000
 Mulliken charges with hydrogens summed into heavy atoms:
              1
     1  Si   0.062284
     4  C   -0.329491
     5  C    0.188747
     6  C   -0.221531
     7  C    0.580478
     8  C   -0.880068
     9  Si   0.357783
    12  C    0.158458
    13  C   -0.432133
    14  C   -0.181552
    15  C   -0.073541
    16  O   -0.200271
    17  C   -0.213380
    18  C   -0.287078
    19  C    0.705390
    20  C   -0.360760
    21  C    0.545798
    22  C    0.123309
    23  C   -0.134988
    24  C    0.698917
    25  N   -0.160953
    26  C   -0.076042
    27  C    0.669233
    28  C   -0.464165
    29  N   -0.130939
    30  S    0.542305
    31  N   -0.041746
    32  C   -0.444064
 Sum of Mulliken charges with hydrogens summed into heavy atoms =  -0.00000
 Electronic spatial extent (au):  <R**2>=          10885.6317
 Charge=              0.0000 electrons
 Dipole moment (field-independent basis, Debye):
    X=             -0.4137    Y=             -2.4487    Z=              0.0224  Tot=              2.4835
 Quadrupole moment (field-independent basis, Debye-Ang):
   XX=           -216.6791   YY=           -201.6951   ZZ=           -191.0827
   XY=              2.0419   XZ=              4.4782   YZ=              2.1093
 Traceless Quadrupole moment (field-independent basis, Debye-Ang):
   XX=            -13.5269   YY=              1.4572   ZZ=             12.0696
   XY=              2.0419   XZ=              4.4782   YZ=              2.1093
 Octapole moment (field-independent basis, Debye-Ang**2):
  XXX=            -50.2798  YYY=            -98.5077  ZZZ=            -16.0346  XYY=            -68.1976
  XXY=              4.2655  XXZ=              0.7122  XZZ=            -32.9417  YZZ=             22.8371
  YYZ=             24.5618  XYZ=             -0.2443
 Hexadecapole moment (field-independent basis, Debye-Ang**3):
 XXXX=          -9613.1557 YYYY=          -4560.7291 ZZZZ=          -2467.6155 XXXY=            190.5327
 XXXZ=           -134.8787 YYYX=              8.0591 YYYZ=             25.3397 ZZZX=             96.6167
 ZZZY=            -31.3148 XXYY=          -2346.8657 XXZZ=          -1897.0676 YYZZ=          -1138.1190
 XXYZ=            -50.9152 YYXZ=            120.3995 ZZXY=            -11.1034
 N-N= 3.473588318014D+03 E-N=-1.172177573474D+04  KE= 2.022043571103D+03
 Calling FoFJK, ICntrl=      2127 FMM=F ISym2X=0 I1Cent= 0 IOpClX= 0 NMat=1 NMatS=1 NMatT=0.
 ***** Axes restored to original set *****
 -------------------------------------------------------------------
 Center     Atomic                   Forces (Hartrees/Bohr)
 Number     Number              X              Y              Z
 -------------------------------------------------------------------
      1       14           0.022299376   -0.014128089   -0.004897612
      2        1          -0.013625167   -0.003541638    0.002501531
      3        1          -0.006862034   -0.025336505    0.003840031
      4        6          -0.019025289   -0.029009711   -0.028068756
      5        6           0.008213031    0.054875172    0.004610534
      6        6           0.000354597   -0.029668891    0.020312609
      7        6           0.053167214    0.023254405    0.044935211
      8        6          -0.016922521   -0.011993008   -0.056212458
      9       14           0.015368144   -0.037304858    0.000524656
     10        1           0.019384274   -0.000294189    0.007789453
     11        1           0.004246461    0.029471416    0.001190085
     12        6           0.007776662    0.004045177   -0.010112479
     13        6           0.031512207   -0.005833201   -0.021189963
     14        6          -0.009711839   -0.002111379    0.042561009
     15        6           0.024622192   -0.016379716   -0.029109706
     16        8          -0.006209603    0.004533924   -0.003789523
     17        6          -0.002500990    0.008763099    0.023721813
     18        6          -0.049691710    0.009228687    0.005984419
     19        6          -0.009926130   -0.012183898   -0.014813718
     20        6           0.000805319    0.002732047    0.007916430
     21        6          -0.006439190   -0.003185541   -0.022135560
     22        6           0.020576558    0.001080988    0.054217673
     23        6           0.000330198    0.052076210    0.001373895
     24        6          -0.017446927    0.006795330   -0.026625661
     25        7           0.004225097    0.001349944    0.023477448
     26        6          -0.004381576    0.000292894   -0.012425318
     27        6           0.001234883   -0.004275519    0.003338121
     28        6          -0.008855814    0.026303350   -0.033766946
     29        7           0.006921215   -0.032177666   -0.024189216
     30       16           0.026799029    0.015646423    0.039081586
     31        7          -0.060206621    0.030916768   -0.032170477
     32        6           0.012279451   -0.011454195    0.011155322
     33        1           0.000337768   -0.006046474    0.035790183
     34        1           0.003261796    0.009553079    0.016492877
     35        1           0.001687039   -0.006916784   -0.010957251
     36        1           0.012747482   -0.014334188   -0.008611790
     37        1          -0.019666357   -0.030892743    0.011511565
     38        1          -0.004985823   -0.009658573   -0.021039172
     39        1           0.000901711   -0.036485697    0.001924545
     40        1          -0.011890478   -0.022209994    0.001816802
     41        1          -0.010217155   -0.015281497   -0.038277124
     42        1           0.007822780    0.020163806   -0.006253610
     43        1          -0.008884721    0.003635832   -0.012918347
     44        1          -0.024753200    0.031967128   -0.005194835
     45        1           0.027518405    0.008352175   -0.011444732
     46        1          -0.004437301    0.010193363    0.000273813
     47        1           0.006087702   -0.005000580    0.004185157
     48        1           0.005592080    0.020534124    0.012459582
     49        1          -0.006495623    0.026938196    0.002774105
     50        1          -0.010561315    0.007493698    0.004608366
     51        1           0.003489682    0.006207221   -0.003681636
     52        1           0.005398534   -0.000375544   -0.014119219
     53        1          -0.005247716    0.001213532    0.003154768
     54        1          -0.004510744   -0.000319972   -0.002280297
     55        1          -0.005113723    0.012794128    0.005642922
     56        1          -0.001831698    0.007576864   -0.019430947
     57        1           0.000038235   -0.005757572    0.001584930
     58        1          -0.001056849   -0.003678713    0.001343295
     59        1           0.016458992   -0.042152641    0.071621617
 -------------------------------------------------------------------
 Cartesian Forces:  Max     0.071621617 RMS     0.020048924

 GradGradGradGradGradGradGradGradGradGradGradGradGradGradGradGradGradGrad
 Berny optimization.
 Internal  Forces:  Max     0.111289502 RMS     0.022024707
 Search for a local minimum.
 Step number   1 out of a maximum of  354
 All quantities printed in internal units (Hartrees-Bohrs-Radians)
 Mixed Optimization -- RFO/linear search
 Second derivative matrix not updated -- first step.
 ITU=  0
     Eigenvalues ---    0.00230   0.00315   0.00402   0.00453   0.00550
     Eigenvalues ---    0.00587   0.00707   0.00739   0.00867   0.00883
     Eigenvalues ---    0.00949   0.00953   0.01090   0.01115   0.01158
     Eigenvalues ---    0.01228   0.01281   0.01405   0.01524   0.01550
     Eigenvalues ---    0.01737   0.01775   0.02002   0.02003   0.02247
     Eigenvalues ---    0.02388   0.02610   0.02701   0.02857   0.03063
     Eigenvalues ---    0.03142   0.03265   0.03335   0.03420   0.03491
     Eigenvalues ---    0.03666   0.03805   0.03884   0.03983   0.04100
     Eigenvalues ---    0.04303   0.04387   0.04419   0.04541   0.04549
     Eigenvalues ---    0.04678   0.04924   0.04993   0.04993   0.05241
     Eigenvalues ---    0.05297   0.05403   0.05677   0.05742   0.05852
     Eigenvalues ---    0.05884   0.05891   0.06028   0.06182   0.06202
     Eigenvalues ---    0.06387   0.06761   0.07102   0.07184   0.07242
     Eigenvalues ---    0.07338   0.07560   0.07828   0.08036   0.08042
     Eigenvalues ---    0.08234   0.08280   0.08620   0.08869   0.09504
     Eigenvalues ---    0.09665   0.10057   0.10435   0.10767   0.11025
     Eigenvalues ---    0.11179   0.11354   0.11429   0.11520   0.12417
     Eigenvalues ---    0.13051   0.13067   0.13536   0.13948   0.14246
     Eigenvalues ---    0.14791   0.15066   0.15144   0.15196   0.15618
     Eigenvalues ---    0.16000   0.16000   0.16045   0.16487   0.16656
     Eigenvalues ---    0.16782   0.17196   0.17714   0.17930   0.18463
     Eigenvalues ---    0.18591   0.18726   0.19245   0.20030   0.20085
     Eigenvalues ---    0.20349   0.20795   0.20849   0.20934   0.21405
     Eigenvalues ---    0.22132   0.22207   0.22613   0.22671   0.23326
     Eigenvalues ---    0.24251   0.24260   0.25689   0.26532   0.28017
     Eigenvalues ---    0.28125   0.28902   0.29077   0.29350   0.31136
     Eigenvalues ---    0.31616   0.31760   0.32035   0.32971   0.33277
     Eigenvalues ---    0.33353   0.33441   0.33585   0.33596   0.33653
     Eigenvalues ---    0.33774   0.33896   0.34269   0.34315   0.34560
     Eigenvalues ---    0.34753   0.34784   0.34871   0.34902   0.34961
     Eigenvalues ---    0.35066   0.35089   0.35556   0.35853   0.36141
     Eigenvalues ---    0.36158   0.36201   0.36456   0.36536   0.36721
     Eigenvalues ---    0.37002   0.37140   0.37769   0.41107   0.41485
     Eigenvalues ---    0.42588   0.44362   0.44701   0.45340   0.48921
     Eigenvalues ---    0.51564
 RFO step:  Lambda=-3.69696696D-01 EMin= 2.30000000D-03
 Linear search not attempted -- first point.
 Maximum step size (   0.300) exceeded in Quadratic search.
    -- Step size scaled by   0.487
 Iteration  1 RMS(Cart)=  0.23116534 RMS(Int)=  0.00549263
 Iteration  2 RMS(Cart)=  0.02957059 RMS(Int)=  0.00027969
 Iteration  3 RMS(Cart)=  0.00026226 RMS(Int)=  0.00027111
 Iteration  4 RMS(Cart)=  0.00000010 RMS(Int)=  0.00027111
 Variable       Old X    -DE/DX   Delta X   Delta X   Delta X     New X
                                 (Linear)    (Quad)   (Total)
    R1        2.79053   0.00911   0.00000   0.00808   0.00808   2.79862
[...]
 2787,-0.00136359,-0.01563824,0.00062858,-0.20930014,0.20531800,-0.1149
 8240,0.00493747,-0.00850277,0.00828918,0.00151845,-0.00162372,0.002183
 52,-0.00110735,-0.00285005,0.00003504,-0.00000036,-0.00000156,-0.00000
 111,-0.00000033,0.00000037,-0.00000101,-0.00000090,-0.00000041,0.00000
 008,0.00000041,-0.00000057,-0.00000081,0.00000036,-0.00000023,-0.00000
 076,0.00000164,-0.00000098,-0.00000071,-0.00000010,-0.00000153,0.00000
 214,0.00000011,0.00000117,-0.00000251,0.00000850,-0.00000184,-0.000000
 22,0.00001269,0.00000483,-0.00001799,-0.00000480,-0.00000106,-0.000008
 48,-0.00000116,-0.00001467,-0.00000421,0.00000324,-0.00000651,0.000000
 76,-0.00000012,0.00000070,-0.00000052,-0.00000029,0.00000090,-0.000000
 06,0.00000085,0.00000134,0.00000134,-0.00000169,0.00000101,-0.00000351
 ,-0.00006786,0.00005758,-0.00005960,0.00002497,-0.00004071,0.00000830,
 0.00001624,0.00010492,0.00000576,0.00004557,0.00015658,0.00004207,-0.0
 0002336,0.00014181,0.00027345,0.00024878,-0.00024094,-0.00022351,0.002
 65613,-0.00153081,0.00077682,0.20316544,-0.00000661,-0.00001903,0.0000
 0916,0.00000044,0.00000597,-0.00000261,0.00000187,0.00000577,-0.000003
 22,-0.00000194,0.00000591,-0.00000136,0.00000241,0.00000435,-0.0000044
 0,-0.00000014,-0.00000875,0.00000074,-0.00000882,0.00000636,0.00000272
 ,0.00001103,-0.00000038,-0.00000092,0.00000329,-0.00000010,0.00000033,
 -0.00000266,0.00000210,0.00000099,-0.00000415,0.00000116,0.00000018,0.
 00000250,-0.00000075,-0.00000224,0.00000665,-0.00000402,0.00000282,-0.
 00001163,0.00000012,-0.00000583,0.00003957,-0.00005959,-0.00000216,-0.
 00000584,0.00014332,-0.00001125,-0.00015588,-0.00035308,-0.00037397,-0
 .00003958,-0.00002641,0.00012941,-0.00001652,-0.00000612,-0.00000437,0
 .00001548,-0.00000305,0.00000573,-0.00000940,0.00000292,-0.00000794,-0
 .00000194,-0.00001444,0.00001266,0.00000623,0.00001508,0.00000025,0.00
 017850,-0.00026739,0.00143258,-0.00006292,0.00021166,0.00005110,0.0008
 0829,0.00000646,-0.00035138,-0.00174977,-0.00253436,-0.00040045,0.0230
 3260,-0.02187433,0.01185617,0.15637290,-0.19234837,0.08015326,-0.00141
 053,0.00447167,-0.00335319,0.00162605,-0.00052293,0.00009407,-0.001444
 42,-0.00472106,-0.00324354,-0.00000015,-0.00000343,-0.00000043,0.00000
 056,-0.00000011,-0.00000065,-0.00000173,0.00000058,0.00000040,0.000000
 50,-0.00000087,-0.00000019,0.00000346,0.00000054,-0.00000078,0.0000001
 9,0.00000022,-0.00000066,0.00001006,-0.00000178,0.00000654,0.00000048,
 -0.00000375,0.00000026,-0.00000539,-0.00000105,-0.00000181,-0.00003774
 ,-0.00001005,0.00002377,0.00000445,0.00001349,-0.00000226,0.00000224,-
 0.00003990,-0.00000899,0.00000212,0.00000387,0.00000540,0.00000064,0.0
 0000382,-0.00000071,-0.00000203,-0.00000182,0.00000064,0.00000227,0.00
 000437,0.00000215,-0.00000161,0.00000169,-0.00000352,-0.00015231,-0.00
 006437,-0.00007678,-0.00000419,0.00001424,0.00001196,-0.00008881,-0.00
 006190,-0.00011710,-0.00013861,-0.00017473,-0.00012874,0.00010563,0.00
 012875,-0.00000602,-0.00018481,0.00008249,0.00014656,-0.00059650,0.002
 09330,-0.00008545,-0.17599336,0.21582246,0.00000138,0.00000388,-0.0000
 1625,0.00000011,-0.00000207,0.00000331,-0.00000005,-0.00000194,0.00000
 307,0.00000340,0.00000113,0.00000211,-0.00000670,-0.00000431,0.0000068
 5,0.00000075,0.00000276,-0.00000029,0.00000486,-0.00000067,0.00000061,
 -0.00000358,0.00000027,0.00000122,-0.00000205,-0.00000254,-0.00000210,
 0.00000121,0.00000019,0.00000035,0.00000181,0.00000038,0.00000042,-0.0
 0000282,-0.00000477,-0.00000403,0.00000629,0.00000285,0.00000535,-0.00
 001439,-0.00001797,-0.00000787,-0.00002041,0.00005120,-0.00000521,0.00
 008009,-0.00004579,0.00013091,-0.00004851,-0.00003586,-0.00030946,-0.0
 0003013,-0.00003340,0.00008801,-0.00001485,0.00000180,-0.00000218,0.00
 000113,0.00000743,-0.00000200,0.00000066,-0.00001010,0.00001143,0.0000
 0688,0.00001149,-0.00001505,-0.00000495,-0.00000620,0.00000595,-0.0001
 8571,-0.00005161,0.00050587,0.00005744,0.00019379,0.00001514,0.0000546
 2,-0.00008947,-0.00053946,-0.00010554,-0.00151247,0.00020384,0.0080242
 1,-0.01420932,0.00727694,-0.09434949,0.08929741,-0.09487220,-0.0161677
 9,0.01424415,-0.02742209,0.00064872,0.00137764,0.00120942,0.00079727,-
 0.00120043,-0.00270653,0.00000148,0.,0.00000235,0.00000116,-0.00000167
 ,0.00000201,0.00000059,0.00000179,-0.00000022,0.00000012,0.00000054,0.
 00000084,0.00000348,-0.00000001,0.00000056,-0.00000417,0.00000184,0.00
 000186,0.00001679,0.00000066,0.00000262,-0.00000317,-0.00000574,0.0000
 0409,-0.00000911,0.00000255,-0.00000846,-0.00001716,-0.00001941,0.0000
 2593,0.00001164,0.00001869,0.00000529,-0.00000216,-0.00003529,0.000001
 32,0.00000084,0.00000393,0.00000184,0.00000087,0.00000177,0.00000108,-
 0.00000071,-0.00000084,0.00000077,-0.00000050,0.00000071,-0.00000073,0
 .00000162,-0.00000160,0.00000450,0.00001372,-0.00004572,-0.00001948,-0
 .00000252,0.00002180,-0.00004522,-0.00004756,-0.00007790,-0.00003152,-
 0.00001000,-0.00011151,-0.00006390,0.00019366,0.00009102,-0.00044184,-
 0.00012674,0.00019167,0.00007811,0.00026432,-0.00244751,0.00049823,0.1
 0159495,-0.08550390,0.11592159,0.00011177,-0.00002594,-0.00002243,-0.0
 0002908,0.00001453,0.00000323,-0.00002168,0.00000260,0.00000406,-0.000
 03592,-0.00000039,0.00000750,0.00004059,0.00000717,-0.00000119,-0.0000
 2403,-0.00000135,0.00001619,0.00001421,0.00000610,-0.00002073,-0.00001
 532,-0.00001149,0.00001103,-0.00000248,0.00000410,0.00000495,0.0000016
 5,-0.00000268,-0.00000256,0.00000361,-0.00000100,-0.00000324,0.0000088
 6,-0.00001547,-0.00001642,-0.00004595,0.00003262,0.00000571,0.00005578
 ,0.00002624,-0.00000190,-0.00045725,0.00031188,-0.00004221,-0.00039321
 ,-0.00099275,-0.00033992,0.00245027,0.00013277,0.00020729,-0.00032016,
 -0.00011490,-0.00008780,0.00007648,0.00000074,0.00000916,-0.00005209,-
 0.00001867,-0.00004536,0.00004266,0.00001338,0.00001041,-0.00000971,0.
 00004697,-0.00002988,-0.00004611,-0.00002510,0.00002481,0.00079012,0.0
 0042498,-0.00062609,-0.00014387,-0.00062805,-0.00015577,-0.00003523,0.
 00001677,0.00006692,0.00050820,-0.00048812,0.00088869,-0.00273460,-0.0
 0006571,0.00207970,-0.00286399,-0.00095811,0.00290134,-0.00148217,-0.0
 1001679,0.01242631,-0.01880622,0.02889593,-0.04956166,-0.00488110,-0.0
 0961643,0.02206198,0.00000329,0.00000280,-0.00000022,-0.00000425,-0.00
 000151,0.00000121,0.00000325,-0.00000343,-0.00000118,-0.00000008,0.000
 00285,-0.00000506,-0.00001606,-0.00000187,-0.00000217,-0.00000026,-0.0
 0000215,0.00000723,-0.00007361,0.00000944,-0.00003592,0.00000335,-0.00
 000518,0.00001624,-0.00001074,0.00004468,0.00003600,-0.00073565,-0.000
 48032,0.00007973,-0.00001683,0.00002175,0.00000332,-0.00002255,-0.0000
 6028,-0.00000232,-0.00005848,-0.00001504,-0.00003136,-0.00000495,-0.00
 002426,0.00000827,0.00001120,0.00000368,0.00001619,-0.00001325,-0.0000
 1466,-0.00000389,-0.00000633,-0.00000721,0.00000033,-0.00006243,-0.000
 02664,-0.00020193,-0.00004011,0.00002368,-0.00017378,-0.00004117,0.000
 01632,-0.00001657,0.00000883,-0.00000594,0.00001631,-0.00019270,0.0001
 7833,0.00015255,-0.00000355,-0.00005410,-0.00012297,0.00027515,-0.0001
 9957,0.00049163,-0.00075009,-0.00029106,-0.00030700,0.02930016,-0.0000
 3803,-0.00005233,0.00006429,0.00000590,0.00001847,-0.00001499,0.000007
 70,0.00001875,-0.00001573,-0.00001039,0.00001002,-0.00000825,0.0000211
 5,0.00001872,-0.00003032,0.00000147,-0.00003107,0.00000541,-0.00004038
 ,0.00001287,0.00000084,0.00003591,0.00000041,-0.00000473,0.00000629,0.
 00000802,0.00000454,-0.00000714,0.00000345,0.00000131,-0.00001229,0.00
 000139,0.00000021,0.00002006,0.00003598,0.00002126,-0.00000388,-0.0000
 3963,-0.00006419,-0.00003042,0.00009214,0.00008480,0.00107288,-0.00053
 752,-0.00003542,-0.00073039,0.00076689,0.00058572,-0.00013047,-0.00088
 062,-0.00158009,-0.00033863,-0.00004395,0.00009619,-0.00010605,0.00019
 353,0.00013264,0.00000564,-0.00000717,0.00006400,-0.00002308,0.0000287
 9,-0.00005677,-0.00002732,-0.00006794,0.00007122,0.00003591,0.00005526
 ,-0.00001522,0.00021693,0.00086771,-0.00024134,-0.00003958,-0.00046765
 ,0.00029336,0.00004418,0.00034926,0.00012526,0.00018880,0.00115569,-0.
 00071458,0.00212170,-0.00353580,-0.00351918,-0.00293166,-0.00390476,0.
 00179058,0.00122993,-0.01153595,0.02177986,0.00324803,-0.13339052,0.15
 766522,0.00217576,0.01043695,-0.01979885,-0.00000446,-0.00000758,-0.00
 000690,-0.00000297,0.00000727,-0.00000712,-0.00000483,-0.00000207,0.00
 000135,0.00000087,-0.00000365,-0.00000306,-0.00000036,-0.00000134,-0.0
 0000660,0.00000112,0.00000578,0.00000310,-0.00001216,-0.00000807,-0.00
 001805,0.00000960,-0.00003335,0.00001942,-0.00020487,0.00010417,0.0000
 7525,-0.00066076,-0.00088198,-0.00010770,0.00003142,0.00012314,0.00009
 814,0.00001436,-0.00003850,-0.00000819,-0.00000899,0.00011716,0.000047
 92,0.00000029,0.00001737,-0.00000992,-0.00001031,-0.00002464,0.0000061
 7,0.00000713,0.00001420,0.00000812,-0.00000598,0.00000896,-0.00001800,
 -0.00002198,-0.00006762,0.00005186,-0.00004075,0.00001358,-0.00009759,
 -0.00001660,-0.00003279,0.00003935,-0.00001383,-0.00005673,0.00002927,
 0.00033068,-0.00012363,-0.00036055,0.00004187,-0.00003931,-0.00000775,
 0.00011310,-0.00042498,0.00020175,-0.00066960,-0.00023263,-0.00003984,
 -0.00507803,0.14202090,-0.00003081,0.00000544,0.00004696,0.00000776,-0
 .00000152,-0.00000908,0.00000516,0.00000220,-0.00000852,0.00000389,-0.
 00000571,-0.00000784,0.00000270,0.00000275,-0.00001860,0.00000676,-0.0
 0000177,-0.00000179,-0.00001380,-0.00000225,-0.00000122,0.00000943,0.0
 0000206,-0.00000515,0.00000237,0.00000372,0.00000258,-0.00000189,-0.00
 000019,-0.00000023,-0.00000314,-0.00000059,-0.00000006,0.00000269,0.00
 002001,0.00001969,-0.00001101,-0.00000299,-0.00004814,-0.00003845,0.00
 003535,0.00008020,0.00040798,-0.00013738,-0.00008040,-0.00046918,0.000
 55314,0.00007532,0.00052982,-0.00083752,-0.00053342,-0.00032895,-0.000
 06116,0.00000167,-0.00002473,0.00013728,0.00004904,-0.00002617,-0.0000
 0053,0.00004887,0.00000194,0.00002356,-0.00003833,-0.00001871,-0.00003
 437,0.00004246,0.00002287,0.00001711,-0.00002099,0.00014775,0.00000504
 ,-0.00094160,-0.00008474,-0.00002198,0.00041466,-0.00008534,0.00029013
 ,0.00004089,-0.00009576,0.00162336,-0.00084768,0.00418750,-0.00435617,
 -0.00305996,-0.00046410,-0.00323116,0.00219839,-0.00311963,-0.00391687
 ,0.00423633,-0.00356124,0.15088991,-0.33001258,-0.00636979,0.01555236,
 -0.02086484,-0.00000547,0.00000130,-0.00000620,-0.00000369,0.00000596,
 -0.00000513,-0.00000066,-0.00000296,0.00000027,-0.00000068,-0.00000156
 ,-0.00000048,-0.00000530,0.00000027,-0.00000166,0.00001072,-0.00000842
 ,-0.00000632,-0.00003203,-0.00000343,-0.00000512,0.00001720,0.00002592
 ,-0.00000729,-0.00005028,0.00000746,0.00001804,-0.00057160,-0.00021296
 ,0.00044245,0.00000294,0.00005701,0.00003914,0.00001558,0.00000648,-0.
 00000028,-0.00002598,0.00004743,0.00000990,0.00000194,0.00000286,-0.00
 000774,0.00000183,-0.00000582,-0.00000353,0.00000413,0.00000132,0.0000
 0243,-0.00000211,0.00000524,-0.00001054,0.00007673,0.00010538,0.000131
 33,0.00006462,-0.00002055,0.00007815,-0.00000123,-0.00003374,0.0000145
 5,-0.00001275,-0.00003425,0.00004128,0.00042580,-0.00027705,-0.0003458
 8,0.00010554,-0.00004750,-0.00002935,-0.00015338,-0.00007940,0.0004402
 5,-0.00025899,0.00006161,0.00052971,0.00987205,-0.15626469,0.34602805,
 -0.00006109,-0.00001519,0.00002603,0.00001376,0.00000265,-0.00000549,0
 .00001219,0.00000695,-0.00000710,0.00001174,0.00000807,-0.00000552,-0.
 00001097,-0.00000134,-0.00001073,0.00001001,-0.00001170,-0.00000480,-0
 .00002267,0.00000488,0.00000819,0.00002144,0.00000466,-0.00000621,0.00
 000364,0.00000048,-0.00000015,-0.00000379,0.00000281,0.00000180,-0.000
 00673,0.00000128,0.00000122,0.00000812,0.00002156,0.00001379,0.0000165
 2,-0.00002452,-0.00001952,0.00000379,0.00000782,0.00000588,0.00057316,
 -0.00068219,-0.00001194,0.00150261,0.00190840,0.00013822,-0.00140070,0
 .00062877,-0.00171183,0.00009298,-0.00007404,0.00011999,-0.00011732,0.
 00001403,0.00003697,0.00006345,-0.00000265,0.00004276,-0.00002993,-0.0
 0000844,-0.00002095,0.00000113,-0.00004076,0.00003771,0.00003133,0.000
 03405,-0.00001092,-0.01361789,0.00052975,-0.00735218,0.00163094,0.0021
 3067,0.00155609,0.00011087,-0.00024741,-0.00012689,0.00058618,-0.00013
 205,0.00091778,0.00249107,-0.00094105,0.00154794,0.00007001,0.00089535
 ,-0.00047071,0.00228261,-0.00123101,0.00000368,-0.02502836,0.01017302,
 0.00352753,-0.24030030,0.04038703,-0.09491405,-0.00000172,-0.00000547,
 -0.00000154,0.00000130,0.00000427,-0.00000361,-0.00000373,0.00000051,0
 .00000129,0.00000042,-0.00000276,0.00000121,0.00000846,0.00000074,-0.0
 0000103,0.00000504,-0.00000160,-0.00000430,0.00002377,-0.00000533,0.00
 002937,0.00000187,0.00000537,-0.00001849,0.00004288,-0.00019341,0.0000
 1040,0.00008681,0.00005019,-0.00008827,0.00000094,0.00006631,0.0000993
 5,0.00000928,-0.00002281,-0.00001159,0.00003710,0.00003364,0.00003711,
 0.00000160,0.00002662,-0.00000743,-0.00001093,-0.00001312,-0.00000660,
 0.00000828,0.00001319,0.00000475,0.00000053,0.00000593,-0.00000593,-0.
 00060974,-0.00192770,-0.00063435,0.00048680,-0.00012744,0.00035883,-0.
 00017521,0.00007141,0.00014639,-0.00000227,0.00001600,-0.00002952,0.00
 026569,-0.00000352,0.00011337,0.00037491,-0.00039181,0.00013382,0.0004
 7817,-0.00096771,0.00128931,-0.00017867,0.00019062,-0.00030828,0.00074
 387,0.00023754,-0.00006612,0.26946675,-0.00002352,-0.00001745,0.000010
 04,0.00000446,0.00000428,-0.00000292,0.00000463,0.00000576,-0.00000331
 ,0.00000189,0.00000632,-0.00000042,-0.00000295,0.00000365,-0.00000526,
 0.00000074,-0.00001337,-0.00000090,-0.00001839,0.00000560,0.00000136,0
 .00001661,0.00000022,-0.00000134,0.00000119,0.00000286,0.00000008,-0.0
 0000255,0.00000173,0.00000105,-0.00000519,0.00000069,0.00000046,0.0000
 1380,0.00002171,0.00001418,0.00001316,-0.00003689,-0.00002197,0.000040
 82,0.00002624,0.00000777,0.00004037,-0.00075820,0.00028593,0.00057134,
 -0.00045905,0.00084643,-0.00106107,0.00104736,-0.00123785,0.00024994,-
 0.00000666,0.00001269,-0.00003529,-0.00001566,-0.00001886,0.00009859,0
 .00001526,0.00005497,-0.00001798,-0.00002371,-0.00000299,0.00000970,-0
 .00002021,0.00001985,0.00001114,0.00002290,-0.00000279,-0.02541388,0.0
 0239862,-0.01371359,-0.00042736,0.00126961,0.00079397,-0.00014271,-0.0
 0003122,-0.00002475,0.00098169,0.00074298,-0.00113976,0.01861494,-0.00
 502773,0.01197314,-0.00021986,0.00076592,0.00041192,0.00227208,0.00208
 489,-0.00044584,0.01677175,-0.00656911,-0.00091531,0.04166734,-0.05823
 376,0.02070371,0.00000008,-0.00000395,-0.00000059,0.00000061,0.0000038
 8,-0.00000267,-0.00000269,0.00000038,0.00000075,0.00000086,-0.00000185
 ,-0.00000084,0.00000480,-0.00000065,-0.00000131,0.00000398,-0.00000220
 ,0.00000028,0.00001125,-0.00000839,0.00002837,-0.00000315,0.00001559,-
 0.00002664,0.00014825,-0.00015076,-0.00005922,0.00003059,-0.00004266,-
 0.00000633,0.00001849,0.00017109,0.00012668,0.00000155,0.00000582,0.00
 004488,-0.00000506,0.00002477,0.00001954,0.00000184,0.00002948,-0.0000
 1251,-0.00000838,-0.00001063,-0.00000226,0.00000487,0.00001124,0.00000
 317,-0.00000016,0.00000363,-0.00000420,-0.00170405,-0.00433647,-0.0020
 0723,0.00005931,0.00015630,0.00041568,0.00000059,-0.00015979,0.0000792
 6,0.00004054,0.00009408,-0.00002859,-0.00015157,-0.00010275,-0.0004375
 0,-0.00069352,0.00036107,-0.00003849,-0.00026645,-0.00233963,0.0025748
 2,-0.00011241,0.00030785,-0.00001347,-0.00098607,-0.00003303,0.0001128
 1,-0.05040952,0.06879396,0.00000728,0.00000953,-0.00001115,-0.00000072
 ,-0.00000326,0.00000313,-0.00000190,-0.00000296,0.00000271,0.00000405,
 -0.00000071,0.00000198,-0.00000704,-0.00000364,0.00000296,0.00000228,0
 .00000880,-0.00000161,0.00000794,-0.00000944,-0.00000014,-0.00000808,0
 .00000438,-0.00000158,-0.00000005,-0.00000339,-0.00000099,0.00000129,-
 0.00000061,-0.00000061,0.00000301,-0.00000023,0.00000010,-0.00000072,-
 0.00000687,-0.00000583,-0.00002370,0.00000035,0.00002626,0.00010227,-0
 .00001159,-0.00003476,-0.00030784,0.00023189,0.00020061,0.00056734,0.0
 0066397,-0.00023831,0.00037976,0.00029501,-0.00053008,-0.00001765,-0.0
 0011560,-0.00002785,-0.00006228,-0.00001334,-0.00000616,0.00002277,-0.
 00000496,-0.00000704,0.00000914,-0.00001491,0.00001169,0.00000861,0.00
 001179,-0.00001387,-0.00000694,-0.00001078,0.00000217,-0.01045508,-0.0
 0002878,-0.00403401,-0.00038193,-0.00006161,0.00051705,-0.00001178,0.0
 0011607,-0.00062949,-0.00206808,0.00008803,0.00044510,-0.02177803,0.00
 587925,-0.01368952,0.00021586,-0.00036511,-0.00002092,0.00162901,0.002
 04276,0.00093060,0.02877327,-0.01320233,0.00349581,-0.09516095,0.02181
 283,-0.09274394,0.00000038,0.00000109,0.00000128,-0.00000030,0.0000004
 2,0.00000036,0.00000114,-0.00000067,0.00000007,-0.00000093,0.00000028,
 0.00000121,-0.00000333,0.00000112,0.00000459,0.00000901,-0.00000636,-0
 .00000737,-0.00003092,0.00001171,-0.00000119,-0.00000728,0.00002064,-0
 .00002867,0.00011339,-0.00015630,0.00001098,-0.00002764,0.00000212,-0.
 00003148,-0.00001615,-0.00001088,0.00002949,-0.00001767,-0.00003985,-0
 .00000440,0.00000849,-0.00003201,-0.00001818,0.00000055,0.00000258,0.0
 0000131,0.00000150,0.00000506,-0.00000627,-0.00000259,-0.00000631,-0.0
 0000204,0.00000138,-0.00000155,0.00000344,-0.00027334,-0.00160854,-0.0
 0042359,0.00019858,0.00006483,0.00014970,0.00021543,0.00004297,0.00024
 275,0.00001943,-0.00006163,-0.00000717,0.00029212,-0.00003081,0.000434
 00,0.00111224,-0.00003062,-0.00023026,0.00066916,0.00350963,-0.0028582
 0,0.00020981,-0.00030462,-0.00003745,0.00043116,-0.00031278,0.00189734
 ,0.09565528,-0.01836407,0.10723744\\0.00001291,-0.00000218,-0.00001223
 ,-0.00000208,-0.00000337,-0.00000368,-0.00000149,-0.00000237,-0.000002
 55,-0.00001051,-0.00000576,-0.00000091,-0.00000324,-0.00001272,0.00000
 736,0.00001166,-0.00000783,-0.00002874,-0.00001579,0.00001624,0.000032
 13,0.00000283,-0.00000460,-0.00000281,-0.00000931,0.00001249,0.0000133
 4,0.00000919,0.00000682,0.00000083,0.00000089,0.00000530,0.00000847,-0
 .00000019,-0.00001094,0.00000409,-0.00000929,0.00001076,-0.00001187,0.
 00000195,-0.00000852,0.00000293,0.00000401,0.00000868,0.00000777,-0.00
 000083,-0.00001131,-0.00001120,-0.00001930,-0.00000165,0.00000002,0.00
 002431,-0.00001607,0.00001927,-0.00000473,0.00001975,-0.00002124,-0.00
 002187,0.00001236,-0.00001557,0.00002013,-0.00003023,0.00002903,0.0000
 2439,0.00003566,-0.00001002,-0.00001781,-0.00001249,0.00000894,0.00000
 272,-0.00000420,0.00000018,0.00000866,-0.00000521,0.00000375,-0.000000
 79,0.00000166,-0.00000754,-0.00000318,0.00001170,0.00000397,-0.0000046
 7,-0.00001037,-0.00001592,-0.00000074,0.00000581,-0.00000224,-0.000025
 85,-0.00003342,-0.00000634,0.00002934,0.00002454,0.00000005,-0.0000131
 7,-0.00000288,0.00001157,0.00000126,0.00000004,-0.00000227,0.00000213,
 0.00000733,0.00000005,0.00000367,0.00000633,0.00000067,0.00000450,0.00
 000476,0.00000223,0.,-0.00000116,0.00000821,-0.00000370,-0.00000163,0.
 00000370,0.00000053,-0.00000025,0.00000108,-0.00000359,0.00000107,-0.0
 0000161,-0.00000536,0.00000217,-0.00000095,-0.00000319,-0.00000522,-0.
 00000337,-0.00000184,0.00000170,-0.00000525,-0.00000155,-0.00000323,-0
 .00000665,0.00000317,0.00000042,0.00000181,0.00000414,-0.00000112,-0.0
 0000014,0.00000465,-0.00000082,-0.00000094,0.00000980,0.00000027,-0.00
 000040,0.00000643,-0.00000255,-0.00000542,-0.00000119,0.00000119,0.000
 00293,-0.00000111,0.00000024,0.00000141,0.00000478,-0.00000296,0.00000
 050,0.00000431,0.00000109,0.00000137,0.00000079,0.00000061,0.00000080,
 -0.00000124,0.00000377,0.00000173,0.00000203,0.00000340,-0.00000032,-0
 .00000632,-0.00000207,-0.00000065,-0.00001214,-0.00000450,-0.00000348,
 0.00000093,0.00000545,0.00000414\\\@


 WHAT THE SLIME CONTAINS, THE GLOWING REVEALS
 BY THE FLAME'S BRIGHT HUE WHEN YOU IGNITE IT.
   --  LEONARD THURNEYSSER, 1531-1596
 DESCRIBING HIS FLAME PHOTOLYSIS ANALYTIC METHOD
 Job cpu time:  1 days 22 hours 19 minutes 30.2 seconds.
 File lengths (MBytes):  RWF=   3132 Int=      0 D2E=      0 Chk=     42 Scr=      1
 Normal termination of Gaussian 09 at Tue Dec 31 00:59:05 2013.
