 Entering Gaussian System, Link 0=g09
 Initial command:
 /opt/gaussian/g09/l1.exe /panfs/panfs.cluster/home/shuo/Gau-22272.inp -scrdir=/panfs/panfs.cluster/home/shuo/
 Default is to use a total of  12 processors:
                               12 via shared-memory
                                1 via Linda
 Entering Link 1 = /opt/gaussian/g09/l1.exe PID=     22273.
  
 Copyright (c) 1988,1990,1992,1993,1995,1998,2003,2009,2011,
            Gaussian, Inc.  All Rights Reserved.
  
 This is part of the Gaussian(R) 09 program.  It is based on
 the Gaussian(R) 03 system (copyright 2003, Gaussian, Inc.),
 the Gaussian(R) 98 system (copyright 1998, Gaussian, Inc.),
 the Gaussian(R) 94 system (copyright 1995, Gaussian, Inc.),
 the Gaussian 92(TM) system (copyright 1992, Gaussian, Inc.),
 the Gaussian 90(TM) system (copyright 1990, Gaussian, Inc.),
 the Gaussian 88(TM) system (copyright 1988, Gaussian, Inc.),
 the Gaussian 86(TM) system (copyright 1986, Carnegie Mellon
 University), and the Gaussian 82(TM) system (copyright 1983,
 Carnegie Mellon University). Gaussian is a federally registered
 trademark of Gaussian, Inc.
  
 This software contains proprietary and confidential information,
 including trade secrets, belonging to Gaussian, Inc.
  
 This software is provided under written license and may be
 used, copied, transmitted, or stored only in accord with that
 written license.
  
 The following legend is applicable only to US Government
 contracts under FAR:
  
                    RESTRICTED RIGHTS LEGEND
  
 Use, reproduction and disclosure by the US Government is
 subject to restrictions as set forth in subparagraphs (a)
 and (c) of the Commercial Computer Software - Restricted
 Rights clause in FAR 52.227-19.
  
 Gaussian, Inc.
 340 Quinnipiac St., Bldg. 40, Wallingford CT 06492
  
  
 ---------------------------------------------------------------
 Warning -- This program may not be used in any manner that
 competes with the business of Gaussian, Inc. or will provide
 assistance to any competitor of Gaussian, Inc.  The licensee
 of this program is prohibited from giving any competitor of
 Gaussian, Inc. access to this program.  By using this program,
 the user acknowledges that Gaussian, Inc. is engaged in the
 business of creating and licensing software in the field of
 computational chemistry and represents and warrants to the
 licensee that it is not a competitor of Gaussian, Inc. and that
 it will not use this program in any manner prohibited above.
 ---------------------------------------------------------------
  

 Cite this work as:
 Gaussian 09, Revision C.01,
 M. J. Frisch, G. W. Trucks, H. B. Schlegel, G. E. Scuseria, 
 M. A. Robb, J. R. Cheeseman, G. Scalmani, V. Barone, B. Mennucci, 
 G. A. Petersson, H. Nakatsuji, M. Caricato, X. Li, H. P. Hratchian, 
 A. F. Izmaylov, J. Bloino, G. Zheng, J. L. Sonnenberg, M. Hada, 
 M. Ehara, K. Toyota, R. Fukuda, J. Hasegawa, M. Ishida, T. Nakajima, 
 Y. Honda, O. Kitao, H. Nakai, T. Vreven, J. A. Montgomery, Jr., 
 J. E. Peralta, F. Ogliaro, M. Bearpark, J. J. Heyd, E. Brothers, 
 K. N. Kudin, V. N. Staroverov, T. Keith, R. Kobayashi, J. Normand, 
 K. Raghavachari, A. Rendell, J. C. Burant, S. S. Iyengar, J. Tomasi, 
 M. Cossi, N. Rega, J. M. Millam, M. Klene, J. E. Knox, J. B. Cross, 
 V. Bakken, C. Adamo, J. Jaramillo, R. Gomperts, R. E. Stratmann, 
 O. Yazyev, A. J. Austin, R. Cammi, C. Pomelli, J. W. Ochterski, 
 R. L. Martin, K. Morokuma, V. G. Zakrzewski, G. A. Voth, 
 P. Salvador, J. J. Dannenberg, S. Dapprich, A. D. Daniels, 
 O. Farkas, J. B. Foresman, J. V. Ortiz, J. Cioslowski, 
 and D. J. Fox, Gaussian, Inc., Wallingford CT, 2010.
 
 ******************************************
 Gaussian 09:  EM64L-G09RevC.01 23-Sep-2011
                29-Dec-2013 
 ******************************************
 %chk=42_C24H9N7OS3.chk
 %NProcShared=12
 Will use up to   12 processors via shared memory.
 %Mem=8000MB
 Default route:  MaxDisk=100GB
 --------------------------------------------
 #B3LYP/6-31++G(d,p) opt scf=direct freq test
 --------------------------------------------
 1/14=-1,18=20,19=15,26=3,38=1/1,3;
 2/9=110,12=2,17=6,18=5,40=1/2;
 3/5=1,6=6,7=1111,11=2,16=1,25=1,30=1,71=1,74=-5/1,2,3;
 4//1;
 5/5=2,38=5/2;
 6/7=2,8=2,9=2,10=2,28=1/1;
 7//1,2,3,16;
 1/14=-1,18=20,19=15/3(2);
 2/9=110/2;
 99//99;
 2/9=110/2;
 3/5=1,6=6,7=1111,11=2,16=1,25=1,30=1,71=1,74=-5/1,2,3;
 4/5=5,16=3/1;
 5/5=2,38=5/2;
 7//1,2,3,16;
 1/14=-1,18=20,19=15/3(-5);
 2/9=110/2;
 6/7=2,8=2,9=2,10=2,19=2,28=1/1;
 99/9=1/99;
 ----------------------------------------------------------------------
 Geom opt of No.42 candidate from the CEPDB database with SMILE code of
  C1ccc2c1csc2-c1cnc(-c2ncc(s2)-c2scc3ccCc23)c2nsnc12, HPC, 20131227, S
 huo Dai, Gaussian09
 ----------------------------------------------------------------------
 Charge =  0 Multiplicity = 1
 Symbolic Z-Matrix:
 C                    -1.43628   1.37469   0.00392 
 C                    -2.19594   0.05538   0.00274 
 C                    -1.34554  -0.99637   0.00126 
 C                    -0.00419  -0.51528  -0.00149 
 C                    -0.03772   0.8965    0.00007 
 C                     1.19298   1.47662  -0.00094 
 S                     2.3973    0.29189  -0.00925 
 C                     1.26948  -1.02257  -0.00393 
 C                     1.74378  -2.38345  -0.00435 
 C                     0.86636  -3.46122  -0.0213 
 N                     1.21457  -4.75101  -0.02066 
 C                     2.52772  -5.11005  -0.00288 
 C                     2.83172  -6.49493   0.00181 
 N                     4.01503  -7.0544   -0.01996 
 C                     3.84802  -8.41143  -0.01256 
 C                     2.53891  -8.83124   0.01434 
 S                     1.49291  -7.51612   0.04162 
 C                     1.97599  -10.12505   0.02289 
 S                     2.98138  -11.51309   0.00073 
 C                     1.62735  -12.56316   0.02674 
 C                     0.47738  -11.85037   0.04968 
 C                    -0.91134  -12.13478   0.07778 
 C                    -1.61723  -10.98836   0.0937 
 C                    -0.69707  -9.77062   0.07682 
 C                     0.64407  -10.4562   0.04808 
 C                     3.5324   -4.15425   0.01295 
 N                     4.86373  -4.34524   0.03128 
 S                     5.5639   -2.86298   0.03936 
 N                     4.20931  -1.93394   0.0283 
 C                     3.13024  -2.7359    0.01209 
 H                    -1.6401    1.94486   0.91121 
 H                    -1.64381   1.95041  -0.89899 
 H                    -3.27104  -0.02152   0.00477 
 H                    -1.69176  -2.01948   0.00297 
 H                     1.48295   2.51275   0.00133 
 H                    -0.211    -3.35378  -0.03858 
 H                     4.72919  -9.03811  -0.03009 
 H                     1.79686  -13.62818   0.02329 
 H                    -1.31287  -13.13557   0.08561 
 H                    -2.69614  -10.90989   0.11678 
 H                    -0.85018  -9.16585   0.97839 
 H                    -0.88754  -9.16115  -0.81444 
 

 GradGradGradGradGradGradGradGradGradGradGradGradGradGradGradGradGradGrad
 Berny optimization.
 Initialization pass.
                           ----------------------------
                           !    Initial Parameters    !
                           ! (Angstroms and Degrees)  !
 --------------------------                            --------------------------
 ! Name  Definition              Value          Derivative Info.                !
 --------------------------------------------------------------------------------
 ! R1    R(1,2)                  1.5224         estimate D2E/DX2                !
 ! R2    R(1,5)                  1.4781         estimate D2E/DX2                !
 ! R3    R(1,31)                 1.0908         estimate D2E/DX2                !
 ! R4    R(1,32)                 1.0908         estimate D2E/DX2                !
 ! R5    R(2,3)                  1.3525         estimate D2E/DX2                !
 ! R6    R(2,33)                 1.0778         estimate D2E/DX2                !
 ! R7    R(3,4)                  1.425          estimate D2E/DX2                !
 ! R8    R(3,34)                 1.0801         estimate D2E/DX2                !
 ! R9    R(4,5)                  1.4122         estimate D2E/DX2                !
 ! R10   R(4,8)                  1.371          estimate D2E/DX2                !
 ! R11   R(5,6)                  1.3606         estimate D2E/DX2                !
 ! R12   R(6,7)                  1.6894         estimate D2E/DX2                !
 ! R13   R(6,35)                 1.0759         estimate D2E/DX2                !
 ! R14   R(7,8)                  1.732          estimate D2E/DX2                !
 ! R15   R(8,9)                  1.4412         estimate D2E/DX2                !
 ! R16   R(9,10)                 1.3899         estimate D2E/DX2                !
 ! R17   R(9,30)                 1.4307         estimate D2E/DX2                !
 ! R18   R(10,11)                1.336          estimate D2E/DX2                !
 ! R19   R(10,36)                1.0828         estimate D2E/DX2                !
 ! R20   R(11,12)                1.3615         estimate D2E/DX2                !
 ! R21   R(12,13)                1.4179         estimate D2E/DX2                !
 ! R22   R(12,26)                1.3868         estimate D2E/DX2                !
 ! R23   R(13,14)                1.3091         estimate D2E/DX2                !
 ! R24   R(13,17)                1.6843         estimate D2E/DX2                !
 ! R25   R(14,15)                1.3673         estimate D2E/DX2                !
 ! R26   R(15,16)                1.375          estimate D2E/DX2                !
 ! R27   R(15,37)                1.0814         estimate D2E/DX2                !
 ! R28   R(16,17)                1.6806         estimate D2E/DX2                !
 ! R29   R(16,18)                1.411          estimate D2E/DX2                !
 ! R30   R(18,19)                1.714          estimate D2E/DX2                !
 ! R31   R(18,25)                1.3727         estimate D2E/DX2                !
 ! R32   R(19,20)                1.7137         estimate D2E/DX2                !
 ! R33   R(20,21)                1.3532         estimate D2E/DX2                !
 ! R34   R(20,38)                1.0784         estimate D2E/DX2                !
 ! R35   R(21,22)                1.4178         estimate D2E/DX2                !
 ! R36   R(21,25)                1.4041         estimate D2E/DX2                !
 ! R37   R(22,23)                1.3464         estimate D2E/DX2                !
 ! R38   R(22,39)                1.0784         estimate D2E/DX2                !
 ! R39   R(23,24)                1.5264         estimate D2E/DX2                !
 ! R40   R(23,40)                1.082          estimate D2E/DX2                !
 ! R41   R(24,25)                1.5065         estimate D2E/DX2                !
 ! R42   R(24,41)                1.0964         estimate D2E/DX2                !
 ! R43   R(24,42)                1.0964         estimate D2E/DX2                !
 ! R44   R(26,27)                1.3451         estimate D2E/DX2                !
 ! R45   R(26,30)                1.4743         estimate D2E/DX2                !
 ! R46   R(27,28)                1.6393         estimate D2E/DX2                !
 ! R47   R(28,29)                1.6426         estimate D2E/DX2                !
 ! R48   R(29,30)                1.3445         estimate D2E/DX2                !
 ! A1    A(2,1,5)              101.0568         estimate D2E/DX2                !
 ! A2    A(2,1,31)             111.1243         estimate D2E/DX2                !
 ! A3    A(2,1,32)             111.2123         estimate D2E/DX2                !
 ! A4    A(5,1,31)             110.3702         estimate D2E/DX2                !
 ! A5    A(5,1,32)             110.4037         estimate D2E/DX2                !
 ! A6    A(31,1,32)            112.1528         estimate D2E/DX2                !
 ! A7    A(1,2,3)              111.1091         estimate D2E/DX2                !
 ! A8    A(1,2,33)             124.0245         estimate D2E/DX2                !
 ! A9    A(3,2,33)             124.8663         estimate D2E/DX2                !
 ! A10   A(2,3,4)              109.2267         estimate D2E/DX2                !
 ! A11   A(2,3,34)             122.3465         estimate D2E/DX2                !
 ! A12   A(4,3,34)             128.4268         estimate D2E/DX2                !
 ! A13   A(3,4,5)              108.3702         estimate D2E/DX2                !
 ! A14   A(3,4,8)              138.5522         estimate D2E/DX2                !
 ! A15   A(5,4,8)              113.0775         estimate D2E/DX2                !
 ! A16   A(1,5,4)              110.237          estimate D2E/DX2                !
 ! A17   A(1,5,6)              135.8856         estimate D2E/DX2                !
 ! A18   A(4,5,6)              113.8774         estimate D2E/DX2                !
 ! A19   A(5,6,7)              110.2318         estimate D2E/DX2                !
 ! A20   A(5,6,35)             130.8725         estimate D2E/DX2                !
 ! A21   A(7,6,35)             118.8957         estimate D2E/DX2                !
 ! A22   A(6,7,8)               93.8993         estimate D2E/DX2                !
 ! A23   A(4,8,7)              108.9132         estimate D2E/DX2                !
 ! A24   A(4,8,9)              130.9316         estimate D2E/DX2                !
 ! A25   A(7,8,9)              120.1552         estimate D2E/DX2                !
 ! A26   A(8,9,10)             121.6336         estimate D2E/DX2                !
 ! A27   A(8,9,30)             123.4749         estimate D2E/DX2                !
 ! A28   A(10,9,30)            114.8914         estimate D2E/DX2                !
 ! A29   A(9,10,11)            125.739          estimate D2E/DX2                !
 ! A30   A(9,10,36)            123.46           estimate D2E/DX2                !
 ! A31   A(11,10,36)           110.8009         estimate D2E/DX2                !
 ! A32   A(10,11,12)           120.3977         estimate D2E/DX2                !
 ! A33   A(11,12,13)           117.6729         estimate D2E/DX2                !
 ! A34   A(11,12,26)           121.141          estimate D2E/DX2                !
 ! A35   A(13,12,26)           121.1859         estimate D2E/DX2                !
 ! A36   A(12,13,14)           127.6753         estimate D2E/DX2                !
 ! A37   A(12,13,17)           114.9514         estimate D2E/DX2                !
 ! A38   A(14,13,17)           117.3732         estimate D2E/DX2                !
 ! A39   A(13,14,15)           108.2804         estimate D2E/DX2                !
 ! A40   A(14,15,16)           114.7975         estimate D2E/DX2                !
 ! A41   A(14,15,37)           118.3937         estimate D2E/DX2                !
 ! A42   A(16,15,37)           126.8086         estimate D2E/DX2                !
 ! A43   A(15,16,17)           110.7298         estimate D2E/DX2                !
 ! A44   A(15,16,18)           131.2919         estimate D2E/DX2                !
 ! A45   A(17,16,18)           117.9783         estimate D2E/DX2                !
 ! A46   A(13,17,16)            88.8159         estimate D2E/DX2                !
 ! A47   A(16,18,19)           120.5614         estimate D2E/DX2                !
 ! A48   A(16,18,25)           127.4752         estimate D2E/DX2                !
 ! A49   A(19,18,25)           111.9634         estimate D2E/DX2                !
 ! A50   A(18,19,20)            91.8658         estimate D2E/DX2                !
 ! A51   A(19,20,21)           110.4241         estimate D2E/DX2                !
 ! A52   A(19,20,38)           118.7437         estimate D2E/DX2                !
 ! A53   A(21,20,38)           130.8322         estimate D2E/DX2                !
 ! A54   A(20,21,22)           136.6412         estimate D2E/DX2                !
 ! A55   A(20,21,25)           114.9689         estimate D2E/DX2                !
 ! A56   A(22,21,25)           108.3898         estimate D2E/DX2                !
 ! A57   A(21,22,23)           110.0566         estimate D2E/DX2                !
 ! A58   A(21,22,39)           123.4369         estimate D2E/DX2                !
 ! A59   A(23,22,39)           126.5065         estimate D2E/DX2                !
 ! A60   A(22,23,24)           111.2912         estimate D2E/DX2                !
 ! A61   A(22,23,40)           125.7874         estimate D2E/DX2                !
 ! A62   A(24,23,40)           122.9213         estimate D2E/DX2                !
 ! A63   A(23,24,25)           100.0098         estimate D2E/DX2                !
 ! A64   A(23,24,41)           110.2911         estimate D2E/DX2                !
 ! A65   A(23,24,42)           110.3494         estimate D2E/DX2                !
 ! A66   A(25,24,41)           113.0195         estimate D2E/DX2                !
 ! A67   A(25,24,42)           113.0868         estimate D2E/DX2                !
 ! A68   A(41,24,42)           109.7292         estimate D2E/DX2                !
 ! A69   A(18,25,21)           110.7778         estimate D2E/DX2                !
 ! A70   A(18,25,24)           138.9696         estimate D2E/DX2                !
 ! A71   A(21,25,24)           110.2525         estimate D2E/DX2                !
 ! A72   A(12,26,27)           128.2686         estimate D2E/DX2                !
 ! A73   A(12,26,30)           117.7392         estimate D2E/DX2                !
 ! A74   A(27,26,30)           113.9922         estimate D2E/DX2                !
 ! A75   A(26,27,28)           107.1228         estimate D2E/DX2                !
 ! A76   A(27,28,29)            99.1574         estimate D2E/DX2                !
 ! A77   A(28,29,30)           108.9394         estimate D2E/DX2                !
 ! A78   A(9,30,26)            120.0914         estimate D2E/DX2                !
 ! A79   A(9,30,29)            129.1212         estimate D2E/DX2                !
 ! A80   A(26,30,29)           110.7874         estimate D2E/DX2                !
 ! D1    D(5,1,2,3)              0.1107         estimate D2E/DX2                !
 ! D2    D(5,1,2,33)          -179.9994         estimate D2E/DX2                !
 ! D3    D(31,1,2,3)          -117.0004         estimate D2E/DX2                !
 ! D4    D(31,1,2,33)           62.8895         estimate D2E/DX2                !
 ! D5    D(32,1,2,3)           117.2971         estimate D2E/DX2                !
 ! D6    D(32,1,2,33)          -62.813          estimate D2E/DX2                !
 ! D7    D(2,1,5,4)             -0.062          estimate D2E/DX2                !
 ! D8    D(2,1,5,6)           -179.9816         estimate D2E/DX2                !
 ! D9    D(31,1,5,4)           117.6005         estimate D2E/DX2                !
 ! D10   D(31,1,5,6)           -62.3191         estimate D2E/DX2                !
 ! D11   D(32,1,5,4)          -117.8392         estimate D2E/DX2                !
 ! D12   D(32,1,5,6)            62.2412         estimate D2E/DX2                !
 ! D13   D(1,2,3,4)             -0.1186         estimate D2E/DX2                !
 ! D14   D(1,2,3,34)           179.8295         estimate D2E/DX2                !
 ! D15   D(33,2,3,4)           179.9926         estimate D2E/DX2                !
 ! D16   D(33,2,3,34)           -0.0592         estimate D2E/DX2                !
 ! D17   D(2,3,4,5)              0.0756         estimate D2E/DX2                !
 ! D18   D(2,3,4,8)           -179.999          estimate D2E/DX2                !
 ! D19   D(34,3,4,5)          -179.8685         estimate D2E/DX2                !
 ! D20   D(34,3,4,8)             0.0569         estimate D2E/DX2                !
 ! D21   D(3,4,5,1)             -0.0018         estimate D2E/DX2                !
 ! D22   D(3,4,5,6)            179.937          estimate D2E/DX2                !
 ! D23   D(8,4,5,1)           -179.9481         estimate D2E/DX2                !
 ! D24   D(8,4,5,6)             -0.0093         estimate D2E/DX2                !
 ! D25   D(3,4,8,7)            179.9005         estimate D2E/DX2                !
 ! D26   D(3,4,8,9)             -0.0148         estimate D2E/DX2                !
 ! D27   D(5,4,8,7)             -0.1764         estimate D2E/DX2                !
 ! D28   D(5,4,8,9)            179.9083         estimate D2E/DX2                !
 ! D29   D(1,5,6,7)           -179.8858         estimate D2E/DX2                !
 ! D30   D(1,5,6,35)             0.0261         estimate D2E/DX2                !
 ! D31   D(4,5,6,7)              0.1966         estimate D2E/DX2                !
 ! D32   D(4,5,6,35)          -179.8914         estimate D2E/DX2                !
 ! D33   D(5,6,7,8)             -0.2542         estimate D2E/DX2                !
 ! D34   D(35,6,7,8)           179.8219         estimate D2E/DX2                !
 ! D35   D(6,7,8,4)              0.247          estimate D2E/DX2                !
 ! D36   D(6,7,8,9)           -179.8271         estimate D2E/DX2                !
 ! D37   D(4,8,9,10)             0.9309         estimate D2E/DX2                !
 ! D38   D(4,8,9,30)          -179.0791         estimate D2E/DX2                !
 ! D39   D(7,8,9,10)          -178.9763         estimate D2E/DX2                !
 ! D40   D(7,8,9,30)             1.0136         estimate D2E/DX2                !
 ! D41   D(8,9,10,11)         -179.8742         estimate D2E/DX2                !
 ! D42   D(8,9,10,36)            0.2234         estimate D2E/DX2                !
 ! D43   D(30,9,10,11)           0.135          estimate D2E/DX2                !
 ! D44   D(30,9,10,36)        -179.7674         estimate D2E/DX2                !
 ! D45   D(8,9,30,26)          179.8875         estimate D2E/DX2                !
 ! D46   D(8,9,30,29)           -0.1005         estimate D2E/DX2                !
 ! D47   D(10,9,30,26)          -0.1219         estimate D2E/DX2                !
 ! D48   D(10,9,30,29)         179.8901         estimate D2E/DX2                !
 ! D49   D(9,10,11,12)          -0.0292         estimate D2E/DX2                !
 ! D50   D(36,10,11,12)        179.8837         estimate D2E/DX2                !
 ! D51   D(10,11,12,13)        179.7712         estimate D2E/DX2                !
 ! D52   D(10,11,12,26)         -0.0951         estimate D2E/DX2                !
 ! D53   D(11,12,13,14)        177.9041         estimate D2E/DX2                !
 ! D54   D(11,12,13,17)         -2.1512         estimate D2E/DX2                !
 ! D55   D(26,12,13,14)         -2.2296         estimate D2E/DX2                !
 ! D56   D(26,12,13,17)        177.7151         estimate D2E/DX2                !
 ! D57   D(11,12,26,27)       -179.9995         estimate D2E/DX2                !
 ! D58   D(11,12,26,30)          0.0974         estimate D2E/DX2                !
 ! D59   D(13,12,26,27)          0.1389         estimate D2E/DX2                !
 ! D60   D(13,12,26,30)       -179.7643         estimate D2E/DX2                !
 ! D61   D(12,13,14,15)       -179.666          estimate D2E/DX2                !
 ! D62   D(17,13,14,15)          0.3904         estimate D2E/DX2                !
 ! D63   D(12,13,17,16)        179.5186         estimate D2E/DX2                !
 ! D64   D(14,13,17,16)         -0.5306         estimate D2E/DX2                !
 ! D65   D(13,14,15,16)          0.0144         estimate D2E/DX2                !
 ! D66   D(13,14,15,37)        179.8825         estimate D2E/DX2                !
 ! D67   D(14,15,16,17)         -0.394          estimate D2E/DX2                !
 ! D68   D(14,15,16,18)        179.6538         estimate D2E/DX2                !
 ! D69   D(37,15,16,17)        179.751          estimate D2E/DX2                !
 ! D70   D(37,15,16,18)         -0.2012         estimate D2E/DX2                !
 ! D71   D(15,16,17,13)          0.489          estimate D2E/DX2                !
 ! D72   D(18,16,17,13)       -179.5517         estimate D2E/DX2                !
 ! D73   D(15,16,18,19)          0.1217         estimate D2E/DX2                !
 ! D74   D(15,16,18,25)       -179.8718         estimate D2E/DX2                !
 ! D75   D(17,16,18,19)       -179.8277         estimate D2E/DX2                !
 ! D76   D(17,16,18,25)          0.1789         estimate D2E/DX2                !
 ! D77   D(16,18,19,20)        179.9464         estimate D2E/DX2                !
 ! D78   D(25,18,19,20)         -0.0593         estimate D2E/DX2                !
 ! D79   D(16,18,25,21)       -179.9605         estimate D2E/DX2                !
 ! D80   D(16,18,25,24)         -0.0883         estimate D2E/DX2                !
 ! D81   D(19,18,25,21)          0.0456         estimate D2E/DX2                !
 ! D82   D(19,18,25,24)        179.9178         estimate D2E/DX2                !
 ! D83   D(18,19,20,21)          0.0568         estimate D2E/DX2                !
 ! D84   D(18,19,20,38)       -179.9165         estimate D2E/DX2                !
 ! D85   D(19,20,21,22)       -179.9409         estimate D2E/DX2                !
 ! D86   D(19,20,21,25)         -0.0419         estimate D2E/DX2                !
 ! D87   D(38,20,21,22)          0.0282         estimate D2E/DX2                !
 ! D88   D(38,20,21,25)        179.9272         estimate D2E/DX2                !
 ! D89   D(20,21,22,23)        179.9056         estimate D2E/DX2                !
 ! D90   D(20,21,22,39)         -0.0391         estimate D2E/DX2                !
 ! D91   D(25,21,22,23)          0.0021         estimate D2E/DX2                !
 ! D92   D(25,21,22,39)       -179.9425         estimate D2E/DX2                !
 ! D93   D(20,21,25,18)         -0.0021         estimate D2E/DX2                !
 ! D94   D(20,21,25,24)       -179.9127         estimate D2E/DX2                !
 ! D95   D(22,21,25,18)        179.9248         estimate D2E/DX2                !
 ! D96   D(22,21,25,24)          0.0142         estimate D2E/DX2                !
 ! D97   D(21,22,23,24)         -0.0175         estimate D2E/DX2                !
 ! D98   D(21,22,23,40)       -179.9433         estimate D2E/DX2                !
 ! D99   D(39,22,23,24)        179.925          estimate D2E/DX2                !
 ! D100  D(39,22,23,40)         -0.0008         estimate D2E/DX2                !
 ! D101  D(22,23,24,25)          0.0241         estimate D2E/DX2                !
 ! D102  D(22,23,24,41)       -119.2259         estimate D2E/DX2                !
 ! D103  D(22,23,24,42)        119.3748         estimate D2E/DX2                !
 ! D104  D(40,23,24,25)        179.9524         estimate D2E/DX2                !
 ! D105  D(40,23,24,41)         60.7024         estimate D2E/DX2                !
 ! D106  D(40,23,24,42)        -60.6969         estimate D2E/DX2                !
 ! D107  D(23,24,25,18)       -179.8951         estimate D2E/DX2                !
 ! D108  D(23,24,25,21)         -0.0224         estimate D2E/DX2                !
 ! D109  D(41,24,25,18)        -62.662          estimate D2E/DX2                !
 ! D110  D(41,24,25,21)        117.2106         estimate D2E/DX2                !
 ! D111  D(42,24,25,18)         62.776          estimate D2E/DX2                !
 ! D112  D(42,24,25,21)       -117.3514         estimate D2E/DX2                !
 ! D113  D(12,26,27,28)        179.8379         estimate D2E/DX2                !
 ! D114  D(30,26,27,28)         -0.256          estimate D2E/DX2                !
 ! D115  D(12,26,30,9)           0.0149         estimate D2E/DX2                !
 ! D116  D(12,26,30,29)       -179.995          estimate D2E/DX2                !
 ! D117  D(27,26,30,9)        -179.9018         estimate D2E/DX2                !
 ! D118  D(27,26,30,29)          0.0882         estimate D2E/DX2                !
 ! D119  D(26,27,28,29)          0.2937         estimate D2E/DX2                !
 ! D120  D(27,28,29,30)         -0.2497         estimate D2E/DX2                !
 ! D121  D(28,29,30,9)        -179.884          estimate D2E/DX2                !
 ! D122  D(28,29,30,26)          0.1272         estimate D2E/DX2                !
 --------------------------------------------------------------------------------
 Trust Radius=3.00D-01 FncErr=1.00D-07 GrdErr=1.00D-06
 Number of steps in this run=    252 maximum allowed number of steps=    252.
 GradGradGradGradGradGradGradGradGradGradGradGradGradGradGradGradGradGrad

                          Input orientation:                          
 ---------------------------------------------------------------------
 Center     Atomic      Atomic             Coordinates (Angstroms)
 Number     Number       Type             X           Y           Z
 ---------------------------------------------------------------------
      1          6           0       -1.436280    1.374690    0.003920
      2          6           0       -2.195940    0.055380    0.002740
      3          6           0       -1.345540   -0.996370    0.001260
      4          6           0       -0.004190   -0.515280   -0.001490
      5          6           0       -0.037720    0.896500    0.000070
      6          6           0        1.192980    1.476620   -0.000940
      7         16           0        2.397300    0.291890   -0.009250
      8          6           0        1.269480   -1.022570   -0.003930
      9          6           0        1.743780   -2.383450   -0.004350
     10          6           0        0.866360   -3.461220   -0.021300
     11          7           0        1.214570   -4.751010   -0.020660
     12          6           0        2.527720   -5.110050   -0.002880
     13          6           0        2.831720   -6.494930    0.001810
     14          7           0        4.015030   -7.054400   -0.019960
     15          6           0        3.848020   -8.411430   -0.012560
     16          6           0        2.538910   -8.831240    0.014340
     17         16           0        1.492910   -7.516120    0.041620
     18          6           0        1.975990  -10.125050    0.022890
     19         16           0        2.981380  -11.513090    0.000730
     20          6           0        1.627350  -12.563160    0.026740
     21          6           0        0.477380  -11.850370    0.049680
     22          6           0       -0.911340  -12.134780    0.077780
     23          6           0       -1.617230  -10.988360    0.093700
     24          6           0       -0.697070   -9.770620    0.076820
     25          6           0        0.644070  -10.456200    0.048080
     26          6           0        3.532400   -4.154250    0.012950
     27          7           0        4.863730   -4.345240    0.031280
     28         16           0        5.563900   -2.862980    0.039360
     29          7           0        4.209310   -1.933940    0.028300
     30          6           0        3.130240   -2.735900    0.012090
     31          1           0       -1.640100    1.944860    0.911210
     32          1           0       -1.643810    1.950410   -0.898990
     33          1           0       -3.271040   -0.021520    0.004770
     34          1           0       -1.691760   -2.019480    0.002970
     35          1           0        1.482950    2.512750    0.001330
     36          1           0       -0.211000   -3.353780   -0.038580
     37          1           0        4.729190   -9.038110   -0.030090
     38          1           0        1.796860  -13.628180    0.023290
     39          1           0       -1.312870  -13.135570    0.085610
     40          1           0       -2.696140  -10.909890    0.116780
     41          1           0       -0.850180   -9.165850    0.978390
     42          1           0       -0.887540   -9.161150   -0.814440
 ---------------------------------------------------------------------
                    Distance matrix (angstroms):
                    1          2          3          4          5
     1  C    0.000000
     2  C    1.522387   0.000000
     3  C    2.372797   1.352539   0.000000
     4  C    2.371265   2.264826   1.425018   0.000000
     5  C    1.478056   2.316334   2.300728   1.412179   0.000000
     6  C    2.631240   3.674876   3.543976   2.323980   1.360574
     7  S    3.983587   4.599341   3.958355   2.533523   2.508976
     8  C    3.614976   3.629209   2.615156   1.370979   2.321986
     9  C    4.923055   4.633501   3.386432   2.558411   3.732537
    10  C    5.356194   4.663125   3.311872   3.071939   4.450566
    11  N    6.674714   5.893514   4.544443   4.407624   5.784724
    12  C    7.600342   6.999619   5.650179   5.246187   6.531473
    13  C    8.952472   8.257356   6.905336   6.618052   7.928867
    14  N   10.038272   9.440637   8.089245   7.675582   8.924236
    15  C   11.121701  10.402719   9.052976   8.785717  10.086461
    16  C   10.952774  10.069308   8.744959   8.696137  10.063208
    17  S    9.360987   8.422395   7.110947   7.159255   8.550832
    18  C   11.995331  11.002116   9.714208   9.811696  11.204022
    19  S   13.623898  12.674153  11.372055  11.395853  12.771566
    20  C   14.270600  13.185055  11.942753  12.157884  13.562287
    21  C   13.362874  12.202284  11.006121  11.345431  12.757370
    22  C   13.519867  12.257888  11.147132  11.655127  13.060762
    23  C   12.364700  11.059266   9.996110  10.596998  11.989725
    24  C   11.170035   9.939938   8.798505   9.281570  10.687754
    25  C   12.012484  10.888573   9.666909   9.962158  11.373255
    26  C    7.433508   7.108795   5.810907   5.074424   6.185143
    27  N    8.509317   8.318967   7.054847   6.194055   7.176421
    28  S    8.183008   8.290554   7.157237   6.042929   6.746361
    29  N    6.543723   6.707106   5.633483   4.446017   5.103866
    30  C    6.144113   6.013279   4.801946   3.841352   4.819797
    31  H    1.090785   2.168965   3.092832   3.092169   2.120579
    32  H    1.090765   2.170047   3.095630   3.094105   2.120981
    33  H    2.305590   1.077849   2.158216   3.303959   3.361122
    34  H    3.403772   2.135238   1.080104   2.260648   3.352431
    35  H    3.133224   4.424127   4.507136   3.373508   2.219167
    36  H    4.884828   3.945132   2.616515   2.846266   4.253986
    37  H   12.101264  11.430226  10.078339   9.749068  11.019111
    38  H   15.347302  14.254217  13.016827  13.236032  14.640101
    39  H   14.511015  13.220735  12.139537  12.688260  14.090150
    40  H   12.349530  10.977265  10.005766  10.738180  12.102548
    41  H   10.601702   9.369848   8.242607   8.746898  10.142391
    42  H   10.581812   9.344738   8.218197   8.728818  10.126300
                    6          7          8          9         10
     6  C    0.000000
     7  S    1.689391   0.000000
     8  C    2.500362   1.731996   0.000000
     9  C    3.899171   2.754007   1.441164   0.000000
    10  C    4.948672   4.053364   2.471805   1.389871   0.000000
    11  N    6.227699   5.179751   3.728882   2.426040   1.335967
    12  C    6.720547   5.403518   4.276758   2.837060   2.340747
    13  C    8.138248   6.800718   5.690989   4.252989   3.614771
    14  N    8.985690   7.522310   6.627313   5.193900   4.777559
    15  C   10.238306   8.823399   7.825867   6.384703   5.778837
    16  C   10.395371   9.124259   7.911202   6.496659   5.624572
    17  S    8.997841   7.860377   6.497552   5.139003   4.103503
    18  C   11.628088  10.425506   9.129897   7.745130   6.755728
    19  S   13.112244  11.819425  10.629282   9.213143   8.325047
    20  C   14.046525  12.878138  11.546178  10.180423   9.133823
    21  C   13.346284  12.293252  10.856866   9.551401   8.398463
    22  C   13.773328  12.859891  11.324481  10.106673   8.854416
    23  C   12.778183  11.973767  10.375914   9.238532   7.927123
    24  C   11.405207  10.527898   8.966728   7.780400   6.500959
    25  C   11.945539  10.890296   9.454481   8.147478   6.998855
    26  C    6.097522   4.588802   3.863743   2.516981   2.754856
    27  N    6.882550   5.252418   4.894896   3.685645   4.094292
    28  S    6.159439   4.470226   4.672368   3.850348   4.735869
    29  N    4.553133   2.870385   3.078024   2.506385   3.675644
    30  C    4.636644   3.115312   2.529463   1.430651   2.377469
    31  H    3.012907   4.458717   4.255441   5.569844   6.031386
    32  H    3.013030   4.457903   4.257582   5.573014   6.029679
    33  H    4.708708   5.677015   4.649570   5.543214   5.380548
    34  H    4.532599   4.697126   3.124551   3.454774   2.936525
    35  H    1.075943   2.401742   3.541763   4.903146   6.005748
    36  H    5.030441   4.482745   2.761804   2.182631   1.082842
    37  H   11.093475   9.617019   8.730358   7.293685   6.784043
    38  H   15.116886  13.933052  12.616667  11.244889  10.209549
    39  H   14.825750  13.930938  12.385529  11.178519   9.917334
    40  H   12.983249  12.306051  10.653629   9.613935   8.257915
    41  H   10.880981  10.048403   8.471772   7.327712   6.040587
    42  H   10.869797  10.039844   8.458496   7.315552   6.016181
                   11         12         13         14         15
    11  N    0.000000
    12  C    1.361466   0.000000
    13  C    2.378431   1.417861   0.000000
    14  N    3.626042   2.448036   1.309085   0.000000
    15  C    4.509301   3.555615   2.169342   1.367288   0.000000
    16  C    4.289916   3.721247   2.354621   2.310253   1.375039
    17  S    2.779782   2.619539   1.684288   2.564774   2.520131
    18  C    5.427888   5.045324   3.729677   3.686246   2.538158
    19  S    6.989120   6.419092   5.020391   4.576983   3.220487
    20  C    7.823191   7.507356   6.186642   6.004135   4.708480
    21  C    7.137878   7.045465   5.850295   5.959962   4.815745
    22  C    7.684351   7.821795   6.769356   7.077354   6.043427
    23  C    6.851037   7.193363   6.323963   6.871049   6.043246
    24  C    5.372183   5.668027   4.815406   5.439771   4.744811
    25  C    5.734055   5.668514   4.525441   4.789597   3.801323
    26  C    2.393656   1.386790   2.443330   2.940218   4.268940
    27  N    3.672018   2.458260   2.958226   2.839448   4.191359
    28  S    4.741828   3.777499   4.545028   4.468839   5.807946
    29  N    4.111782   3.593938   4.764566   5.124372   6.487687
    30  C    2.780563   2.449458   3.770879   4.408324   5.720792
    31  H    7.338406   8.244880   9.594490  10.669314  11.756936
    32  H    7.338312   8.249532   9.600290  10.671540  11.760684
    33  H    6.518391   7.714844   8.896557  10.126640  11.003268
    34  H    3.988555   5.230265   6.363295   7.610414   8.458512
    35  H    7.268750   7.694065   9.108100   9.896577  11.177274
    36  H    1.996202   3.253667   4.373397   5.617318   6.485071
    37  H    5.543633   4.502984   3.173196   2.108372   1.081432
    38  H    8.896355   8.549467   7.207958   6.938064   5.605624
    39  H    8.757859   8.897580   7.828330   8.085684   6.997280
    40  H    7.296872   7.806483   7.075474   7.741014   7.006073
    41  H    4.975149   5.368670   4.652302   5.396776   4.860475
    42  H    4.949575   5.360414   4.648429   5.394885   4.861134
                   16         17         18         19         20
    16  C    0.000000
    17  S    1.680595   0.000000
    18  C    1.410991   2.653344   0.000000
    19  S    2.718140   4.265323   1.714046   0.000000
    20  C    3.841656   5.048852   2.462914   1.713686   0.000000
    21  C    3.655995   4.451639   2.285449   2.527087   1.353154
    22  C    4.777199   5.207086   3.518338   3.942804   2.575085
    23  C    4.683264   4.661774   3.696153   4.629384   3.607184
    24  C    3.370149   3.143250   2.696994   4.070993   3.633692
    25  C    2.496408   3.060170   1.372700   2.565595   2.325204
    26  C    4.781345   3.932240   6.170329   7.379451   8.622017
    27  N    5.052650   4.627852   6.461062   7.410955   8.832236
    28  S    6.691137   6.182611   8.100064   9.027475  10.468528
    29  N    7.096702   6.208038   8.490114   9.657571  10.938320
    30  C    6.123957   5.052942   7.478766   8.778460   9.941526
    31  H   11.592792  10.004103  12.631229  14.258453  14.897690
    32  H   11.600573  10.016933  12.639998  14.264211  14.906414
    33  H   10.553046   8.880631  11.384769  13.082391  13.464302
    34  H    8.018652   6.352690   8.896800  10.581440  11.053789
    35  H   11.393039  10.028956  12.647432  14.105654  15.076623
    36  H    6.129223   4.498313   7.115954   8.761688   9.391298
    37  H    2.200476   3.577024   2.960465   3.030069   4.695809
    38  H    4.854004   6.119640   3.507707   2.424294   1.078431
    39  H    5.776551   6.281127   4.459122   4.591321   2.995999
    40  H    5.633563   5.391796   4.738522   5.710652   4.629684
    41  H    3.539391   3.014833   3.133733   4.598500   4.311091
    42  H    3.540660   3.017533   3.135288   4.600507   4.313459
                   21         22         23         24         25
    21  C    0.000000
    22  C    1.417823   0.000000
    23  C    2.265478   1.346407   0.000000
    24  C    2.388604   2.373850   1.526391   0.000000
    25  C    1.404100   2.288627   2.323522   1.506487   0.000000
    26  C    8.280384   9.134544   8.557469   7.031082   6.932406
    27  N    8.692950   9.696934   9.281044   7.769126   7.426281
    28  S   10.326954  11.309133  10.844048   9.322909   9.047751
    29  N   10.595440  11.414055  10.767329   9.245998   9.237978
    30  C    9.492768  10.231209   9.520936   8.008731   8.110818
    31  H   13.983359  14.123100  12.959052  11.782953  12.639174
    32  H   13.995033  14.138004  12.976822  11.799621  12.651297
    33  H   12.408641  12.341174  11.091194  10.083425  11.145067
    34  H   10.067460  10.145637   8.969649   7.815052   8.754221
    35  H   14.398358  14.842123  13.852784  12.475551  12.996137
    36  H    8.524887   8.809652   7.764135   6.436258   7.154231
    37  H    5.098339   6.435571   6.640470   5.476522   4.324962
    38  H    2.214121   3.093147   4.316204   4.593835   3.375055
    39  H    2.204093   1.078364   2.168689   3.420844   3.318139
    40  H    3.310624   2.165038   1.082006   2.301264   3.371581
    41  H    3.135533   3.103125   2.166237   1.096366   2.182490
    42  H    3.137135   3.104690   2.166994   1.096393   2.183329
                   26         27         28         29         30
    26  C    0.000000
    27  N    1.345085   0.000000
    28  S    2.407295   1.639329   0.000000
    29  N    2.321254   2.498528   1.642605   0.000000
    30  C    1.474263   2.365445   2.437128   1.344543   0.000000
    31  H    8.047408   9.090624   8.704772   7.073911   6.743447
    32  H    8.055536   9.102125   8.717816   7.085694   6.751527
    33  H    7.960296   9.212477   9.280693   7.720981   6.953006
    34  H    5.643509   6.955890   7.304616   5.901744   4.874938
    35  H    6.974903   7.646084   6.749376   5.216016   5.501091
    36  H    3.828374   5.171147   5.796243   4.643227   3.398268
    37  H    5.028543   4.695199   6.231677   7.123406   6.502021
    38  H    9.631592   9.776438  11.405279  11.940485  10.973595
    39  H   10.205196  10.743521  12.361966  12.488966  11.309278
    40  H    9.189351  10.012671  11.532000  11.325226  10.038515
    41  H    6.727200   7.535520   9.041481   8.877028   7.623761
    42  H    6.729747   7.548863   9.056324   8.883730   7.622962
                   31         32         33         34         35
    31  H    0.000000
    32  H    1.810212   0.000000
    33  H    2.710765   2.711672   0.000000
    34  H    4.067378   4.071346   2.546757   0.000000
    35  H    3.302094   3.302034   5.387296   5.533525   0.000000
    36  H    5.569561   5.561266   4.524343   1.993673   6.106327
    37  H   12.731046  12.732544  12.054202   9.512668  11.998393
    38  H   15.972497  15.980653  14.519819  12.121584  16.143997
    39  H   15.106557  15.121698  13.259686  11.122852  15.896340
    40  H   12.922497  12.943203  10.904112   8.947688  14.058641
    41  H   11.138957  11.301577   9.509325   7.261564  11.949387
    42  H   11.264443  11.137588   9.480771   7.233144  11.940044
                   36         37         38         39         40
    36  H    0.000000
    37  H    7.531079   0.000000
    38  H   10.468936   5.447031   0.000000
    39  H    9.844438   7.301305   3.149122   0.000000
    40  H    7.955806   7.659025   5.252132   2.620698   0.000000
    41  H    5.934891   5.671218   5.275550   4.095096   2.681719
    42  H    5.897899   5.672566   5.278461   4.097195   2.682591
                   41         42
    41  H    0.000000
    42  H    1.793225   0.000000
 Stoichiometry    C22H12N4S4
 Framework group  C1[X(C22H12N4S4)]
 Deg. of freedom   120
 Full point group                 C1      NOp   1
 Largest Abelian subgroup         C1      NOp   1
 Largest concise Abelian subgroup C1      NOp   1
                         Standard orientation:                         
 ---------------------------------------------------------------------
 Center     Atomic      Atomic             Coordinates (Angstroms)
 Number     Number       Type             X           Y           Z
 ---------------------------------------------------------------------
      1          6           0        6.689365    3.105512   -0.001317
      2          6           0        5.379193    3.880786   -0.009141
      3          6           0        4.317415    3.042942   -0.011412
      4          6           0        4.782526    1.695969   -0.008446
      5          6           0        6.194593    1.712727   -0.002395
      6          6           0        6.760037    0.475224    0.002292
      7         16           0        5.561103   -0.714954   -0.006146
      8          6           0        4.260137    0.428415   -0.008595
      9          6           0        2.893721   -0.029682   -0.011976
     10          6           0        1.826522    0.860425   -0.035149
     11          7           0        0.532687    0.527567   -0.037629
     12          6           0        0.158001   -0.781162   -0.016953
     13          6           0       -1.230404   -1.068670   -0.015830
     14          7           0       -1.803832   -2.245312   -0.035758
     15          6           0       -3.158797   -2.062168   -0.033291
     16          6           0       -3.563095   -0.748084   -0.011809
     17         16           0       -2.235724    0.282297    0.016513
     18          6           0       -4.850140   -0.169808   -0.009212
     19         16           0       -6.249959   -1.158699   -0.032778
     20          6           0       -7.283932    0.207786   -0.014376
     21          6           0       -6.557595    1.349273    0.007325
     22          6           0       -6.825559    2.741355    0.030201
     23          6           0       -5.670884    3.433620    0.047667
     24          6           0       -4.464124    2.499009    0.037598
     25          6           0       -5.165507    1.166025    0.010778
     26          6           0        1.101731   -1.797073    0.005096
     27          7           0        0.894865   -3.125976    0.026925
     28         16           0        2.368660   -3.843679    0.041996
     29          7           0        3.313774   -2.500264    0.029767
     30          6           0        2.524758   -1.411798    0.007608
     31          1           0        7.258997    3.305385    0.907189
     32          1           0        7.270415    3.303357   -0.902986
     33          1           0        5.315077    4.956725   -0.010689
     34          1           0        3.298494    3.401298   -0.014104
     35          1           0        7.792633    0.172973    0.008831
     36          1           0        1.946821    1.936372   -0.055413
     37          1           0       -3.795852   -2.935880   -0.050134
     38          1           0       -8.350875    0.050932   -0.020767
     39          1           0       -7.821524    3.154770    0.033531
     40          1           0       -5.579664    4.511589    0.067663
     41          1           0       -3.860480    2.647746    0.940654
     42          1           0       -3.849567    2.679430   -0.852259
 ---------------------------------------------------------------------
 Rotational constants (GHZ):      0.2620137      0.0544351      0.0450998
 Standard basis: 6-31++G(d,p) (6D, 7F)
 There are   658 symmetry adapted basis functions of A   symmetry.
 Integral buffers will be    131072 words long.
 Raffenetti 2 integral format.
 Two-electron integral symmetry is turned on.
   658 basis functions,  1152 primitive gaussians,   658 cartesian basis functions
   118 alpha electrons      118 beta electrons
       nuclear repulsion energy      3214.2579523610 Hartrees.
 NAtoms=   42 NActive=   42 NUniq=   42 SFac= 1.00D+00 NAtFMM=   60 NAOKFM=F Big=F
 One-electron integrals computed using PRISM.
 NBasis=   658 RedAO= T  NBF=   658
 NBsUse=   648 1.00D-06 NBFU=   648
 Harris functional with IExCor=  402 diagonalized for initial guess.
 ExpMin= 3.60D-02 ExpMax= 2.19D+04 ExpMxC= 3.30D+03 IAcc=3 IRadAn=         5 AccDes= 0.00D+00
 HarFok:  IExCor=  402 AccDes= 0.00D+00 IRadAn=         5 IDoV= 1
 ScaDFX=  1.000000  1.000000  1.000000  1.000000
 FoFCou: FMM=F IPFlag=           0 FMFlag=      100000 FMFlg1=           0
         NFxFlg=           0 DoJE=T BraDBF=F KetDBF=T FulRan=T
         Omega=  0.000000  0.000000  1.000000  0.000000  0.000000 ICntrl=     500 IOpCl=  0
         NMat0=    1 NMatS0=    1 NMatT0=    0 NMatD0=    1 NMtDS0=    0 NMtDT0=    0
         I1Cent=           4 NGrid=           0.
 Petite list used in FoFCou.
 Initial guess orbital symmetries:
       Occupied  (A) (A) (A) (A) (A) (A) (A) (A) (A) (A) (A) (A)
                 (A) (A) (A) (A) (A) (A) (A) (A) (A) (A) (A) (A)
                 (A) (A) (A) (A) (A) (A) (A) (A) (A) (A) (A) (A)
                 (A) (A) (A) (A) (A) (A) (A) (A) (A) (A) (A) (A)
                 (A) (A) (A) (A) (A) (A) (A) (A) (A) (A) (A) (A)
                 (A) (A) (A) (A) (A) (A) (A) (A) (A) (A) (A) (A)
                 (A) (A) (A) (A) (A) (A) (A) (A) (A) (A) (A) (A)
                 (A) (A) (A) (A) (A) (A) (A) (A) (A) (A) (A) (A)
                 (A) (A) (A) (A) (A) (A) (A) (A) (A) (A) (A) (A)
                 (A) (A) (A) (A) (A) (A) (A) (A) (A) (A)
       Virtual   (A) (A) (A) (A) (A) (A) (A) (A) (A) (A) (A) (A)
                 (A) (A) (A) (A) (A) (A) (A) (A) (A) (A) (A) (A)
                 (A) (A) (A) (A) (A) (A) (A) (A) (A) (A) (A) (A)
                 (A) (A) (A) (A) (A) (A) (A) (A) (A) (A) (A) (A)
                 (A) (A) (A) (A) (A) (A) (A) (A) (A) (A) (A) (A)
                 (A) (A) (A) (A) (A) (A) (A) (A) (A) (A) (A) (A)
                 (A) (A) (A) (A) (A) (A) (A) (A) (A) (A) (A) (A)
                 (A) (A) (A) (A) (A) (A) (A) (A) (A) (A) (A) (A)
                 (A) (A) (A) (A) (A) (A) (A) (A) (A) (A) (A) (A)
                 (A) (A) (A) (A) (A) (A) (A) (A) (A) (A) (A) (A)
                 (A) (A) (A) (A) (A) (A) (A) (A) (A) (A) (A) (A)
                 (A) (A) (A) (A) (A) (A) (A) (A) (A) (A) (A) (A)
                 (A) (A) (A) (A) (A) (A) (A) (A) (A) (A) (A) (A)
                 (A) (A) (A) (A) (A) (A) (A) (A) (A) (A) (A) (A)
                 (A) (A) (A) (A) (A) (A) (A) (A) (A) (A) (A) (A)
                 (A) (A) (A) (A) (A) (A) (A) (A) (A) (A) (A) (A)
                 (A) (A) (A) (A) (A) (A) (A) (A) (A) (A) (A) (A)
                 (A) (A) (A) (A) (A) (A) (A) (A) (A) (A) (A) (A)
                 (A) (A) (A) (A) (A) (A) (A) (A) (A) (A) (A) (A)
                 (A) (A) (A) (A) (A) (A) (A) (A) (A) (A) (A) (A)
                 (A) (A) (A) (A) (A) (A) (A) (A) (A) (A) (A) (A)
                 (A) (A) (A) (A) (A) (A) (A) (A) (A) (A) (A) (A)
                 (A) (A) (A) (A) (A) (A) (A) (A) (A) (A) (A) (A)
                 (A) (A) (A) (A) (A) (A) (A) (A) (A) (A) (A) (A)
                 (A) (A) (A) (A) (A) (A) (A) (A) (A) (A) (A) (A)
                 (A) (A) (A) (A) (A) (A) (A) (A) (A) (A) (A) (A)
                 (A) (A) (A) (A) (A) (A) (A) (A) (A) (A) (A) (A)
                 (A) (A) (A) (A) (A) (A) (A) (A) (A) (A) (A) (A)
                 (A) (A) (A) (A) (A) (A) (A) (A) (A) (A) (A) (A)
                 (A) (A) (A) (A) (A) (A) (A) (A) (A) (A) (A) (A)
                 (A) (A) (A) (A) (A) (A) (A) (A) (A) (A) (A) (A)
                 (A) (A) (A) (A) (A) (A) (A) (A) (A) (A) (A) (A)
                 (A) (A) (A) (A) (A) (A) (A) (A) (A) (A) (A) (A)
                 (A) (A) (A) (A) (A) (A) (A) (A) (A) (A) (A) (A)
                 (A) (A) (A) (A) (A) (A) (A) (A) (A) (A) (A) (A)
                 (A) (A) (A) (A) (A) (A) (A) (A) (A) (A) (A) (A)
                 (A) (A) (A) (A) (A) (A) (A) (A) (A) (A) (A) (A)
                 (A) (A) (A) (A) (A) (A) (A) (A) (A) (A) (A) (A)
                 (A) (A) (A) (A) (A) (A) (A) (A) (A) (A) (A) (A)
                 (A) (A) (A) (A) (A) (A) (A) (A) (A) (A) (A) (A)
                 (A) (A) (A) (A) (A) (A) (A) (A) (A) (A) (A) (A)
                 (A) (A) (A) (A) (A) (A) (A) (A) (A) (A) (A) (A)
                 (A) (A) (A) (A) (A) (A) (A) (A) (A) (A) (A) (A)
                 (A) (A) (A) (A) (A) (A) (A) (A) (A) (A) (A) (A)
                 (A) (A)
 The electronic state of the initial guess is 1-A.
 Requested convergence on RMS density matrix=1.00D-08 within 128 cycles.
 Requested convergence on MAX density matrix=1.00D-06.
 Requested convergence on             energy=1.00D-06.
 No special actions if energy rises.
 EnCoef did     6 forward-backward iterations
 Restarting incremental Fock formation.
 SCF Done:  E(RB3LYP) =  -2657.27712339     A.U. after   24 cycles
             Convg  =    0.6400D-08             -V/T =  2.0053

 **********************************************************************

            Population analysis using the SCF density.

 **********************************************************************

 Orbital symmetries:
       Occupied  (A) (A) (A) (A) (A) (A) (A) (A) (A) (A) (A) (A)
                 (A) (A) (A) (A) (A) (A) (A) (A) (A) (A) (A) (A)
                 (A) (A) (A) (A) (A) (A) (A) (A) (A) (A) (A) (A)
                 (A) (A) (A) (A) (A) (A) (A) (A) (A) (A) (A) (A)
                 (A) (A) (A) (A) (A) (A) (A) (A) (A) (A) (A) (A)
                 (A) (A) (A) (A) (A) (A) (A) (A) (A) (A) (A) (A)
                 (A) (A) (A) (A) (A) (A) (A) (A) (A) (A) (A) (A)
                 (A) (A) (A) (A) (A) (A) (A) (A) (A) (A) (A) (A)
                 (A) (A) (A) (A) (A) (A) (A) (A) (A) (A) (A) (A)
                 (A) (A) (A) (A) (A) (A) (A) (A) (A) (A)
       Virtual   (A) (A) (A) (A) (A) (A) (A) (A) (A) (A) (A) (A)
                 (A) (A) (A) (A) (A) (A) (A) (A) (A) (A) (A) (A)
                 (A) (A) (A) (A) (A) (A) (A) (A) (A) (A) (A) (A)
                 (A) (A) (A) (A) (A) (A) (A) (A) (A) (A) (A) (A)
                 (A) (A) (A) (A) (A) (A) (A) (A) (A) (A) (A) (A)
                 (A) (A) (A) (A) (A) (A) (A) (A) (A) (A) (A) (A)
                 (A) (A) (A) (A) (A) (A) (A) (A) (A) (A) (A) (A)
                 (A) (A) (A) (A) (A) (A) (A) (A) (A) (A) (A) (A)
                 (A) (A) (A) (A) (A) (A) (A) (A) (A) (A) (A) (A)
                 (A) (A) (A) (A) (A) (A) (A) (A) (A) (A) (A) (A)
                 (A) (A) (A) (A) (A) (A) (A) (A) (A) (A) (A) (A)
                 (A) (A) (A) (A) (A) (A) (A) (A) (A) (A) (A) (A)
                 (A) (A) (A) (A) (A) (A) (A) (A) (A) (A) (A) (A)
                 (A) (A) (A) (A) (A) (A) (A) (A) (A) (A) (A) (A)
                 (A) (A) (A) (A) (A) (A) (A) (A) (A) (A) (A) (A)
                 (A) (A) (A) (A) (A) (A) (A) (A) (A) (A) (A) (A)
                 (A) (A) (A) (A) (A) (A) (A) (A) (A) (A) (A) (A)
                 (A) (A) (A) (A) (A) (A) (A) (A) (A) (A) (A) (A)
                 (A) (A) (A) (A) (A) (A) (A) (A) (A) (A) (A) (A)
                 (A) (A) (A) (A) (A) (A) (A) (A) (A) (A) (A) (A)
                 (A) (A) (A) (A) (A) (A) (A) (A) (A) (A) (A) (A)
                 (A) (A) (A) (A) (A) (A) (A) (A) (A) (A) (A) (A)
                 (A) (A) (A) (A) (A) (A) (A) (A) (A) (A) (A) (A)
                 (A) (A) (A) (A) (A) (A) (A) (A) (A) (A) (A) (A)
                 (A) (A) (A) (A) (A) (A) (A) (A) (A) (A) (A) (A)
                 (A) (A) (A) (A) (A) (A) (A) (A) (A) (A) (A) (A)
                 (A) (A) (A) (A) (A) (A) (A) (A) (A) (A) (A) (A)
                 (A) (A) (A) (A) (A) (A) (A) (A) (A) (A) (A) (A)
                 (A) (A) (A) (A) (A) (A) (A) (A) (A) (A) (A) (A)
                 (A) (A) (A) (A) (A) (A) (A) (A) (A) (A) (A) (A)
                 (A) (A) (A) (A) (A) (A) (A) (A) (A) (A) (A) (A)
                 (A) (A) (A) (A) (A) (A) (A) (A) (A) (A) (A) (A)
                 (A) (A) (A) (A) (A) (A) (A) (A) (A) (A) (A) (A)
                 (A) (A) (A) (A) (A) (A) (A) (A) (A) (A) (A) (A)
                 (A) (A) (A) (A) (A) (A) (A) (A) (A) (A) (A) (A)
                 (A) (A) (A) (A) (A) (A) (A) (A) (A) (A) (A) (A)
                 (A) (A) (A) (A) (A) (A) (A) (A) (A) (A) (A) (A)
                 (A) (A) (A) (A) (A) (A) (A) (A) (A) (A) (A) (A)
                 (A) (A) (A) (A) (A) (A) (A) (A) (A) (A) (A) (A)
                 (A) (A) (A) (A) (A) (A) (A) (A) (A) (A) (A) (A)
                 (A) (A) (A) (A) (A) (A) (A) (A) (A) (A) (A) (A)
                 (A) (A) (A) (A) (A) (A) (A) (A) (A) (A) (A) (A)
                 (A) (A) (A) (A) (A) (A) (A) (A) (A) (A) (A) (A)
                 (A) (A) (A) (A) (A) (A) (A) (A) (A) (A) (A) (A)
                 (A) (A)
 The electronic state is 1-A.
 Alpha  occ. eigenvalues --  -88.99091 -88.91981 -88.91816 -88.91205 -14.38295
 Alpha  occ. eigenvalues --  -14.38138 -14.35496 -14.34305 -10.26131 -10.25364
 Alpha  occ. eigenvalues --  -10.25079 -10.24807 -10.23869 -10.23385 -10.23285
 Alpha  occ. eigenvalues --  -10.23202 -10.23011 -10.22416 -10.22036 -10.21703
 Alpha  occ. eigenvalues --  -10.21323 -10.20805 -10.20777 -10.20587 -10.20449
 Alpha  occ. eigenvalues --  -10.20359 -10.20245 -10.19935 -10.19932 -10.19775
 Alpha  occ. eigenvalues --   -8.04348  -7.98026  -7.98016  -7.97184  -6.00910
 Alpha  occ. eigenvalues --   -6.00311  -6.00128  -5.94446  -5.94407  -5.94051
 Alpha  occ. eigenvalues --   -5.94029  -5.93758  -5.93717  -5.93616  -5.93190
 Alpha  occ. eigenvalues --   -5.92906  -1.02943  -0.98656  -0.95671  -0.92036
 Alpha  occ. eigenvalues --   -0.91886  -0.90110  -0.85252  -0.84983  -0.83097
 Alpha  occ. eigenvalues --   -0.82013  -0.80915  -0.77640  -0.75493  -0.73868
 Alpha  occ. eigenvalues --   -0.72249  -0.71830  -0.70729  -0.69045  -0.67700
 Alpha  occ. eigenvalues --   -0.64755  -0.63239  -0.61824  -0.59491  -0.58613
 Alpha  occ. eigenvalues --   -0.57786  -0.56582  -0.56126  -0.53951  -0.53791
 Alpha  occ. eigenvalues --   -0.52543  -0.51906  -0.51338  -0.50680  -0.47126
 Alpha  occ. eigenvalues --   -0.46820  -0.46595  -0.46302  -0.45901  -0.43755
 Alpha  occ. eigenvalues --   -0.43552  -0.43077  -0.42857  -0.41965  -0.41592
 Alpha  occ. eigenvalues --   -0.40614  -0.40545  -0.40299  -0.39996  -0.39709
 Alpha  occ. eigenvalues --   -0.38877  -0.38436  -0.38233  -0.38192  -0.37670
 Alpha  occ. eigenvalues --   -0.36433  -0.34905  -0.34270  -0.34106  -0.33305
 Alpha  occ. eigenvalues --   -0.32473  -0.31427  -0.30189  -0.29781  -0.29348
 Alpha  occ. eigenvalues --   -0.28755  -0.28568  -0.27152  -0.26790  -0.24059
 Alpha  occ. eigenvalues --   -0.23576  -0.22215  -0.19725
 Alpha virt. eigenvalues --   -0.11740  -0.06101  -0.04672  -0.03216  -0.01703
 Alpha virt. eigenvalues --   -0.01296  -0.01036  -0.00823  -0.00685  -0.00436
 Alpha virt. eigenvalues --   -0.00102   0.00312   0.00647   0.01240   0.01477
 Alpha virt. eigenvalues --    0.01853   0.02145   0.02269   0.02516   0.02718
 Alpha virt. eigenvalues --    0.03117   0.03325   0.03676   0.03796   0.04342
 Alpha virt. eigenvalues --    0.04352   0.04845   0.05098   0.05113   0.05418
 Alpha virt. eigenvalues --    0.05858   0.06077   0.06269   0.07036   0.07114
 Alpha virt. eigenvalues --    0.07207   0.07747   0.07777   0.08046   0.08638
 Alpha virt. eigenvalues --    0.08924   0.09480   0.09658   0.09913   0.10082
 Alpha virt. eigenvalues --    0.10124   0.10189   0.10892   0.11288   0.11383
 Alpha virt. eigenvalues --    0.11444   0.11655   0.11818   0.11931   0.11967
 Alpha virt. eigenvalues --    0.12276   0.12543   0.12583   0.12606   0.12678
 Alpha virt. eigenvalues --    0.13132   0.13365   0.13581   0.13849   0.13954
 Alpha virt. eigenvalues --    0.14338   0.14363   0.14447   0.14700   0.14746
 Alpha virt. eigenvalues --    0.15298   0.15513   0.15584   0.15649   0.16163
 Alpha virt. eigenvalues --    0.16317   0.16646   0.16826   0.16907   0.17151
 Alpha virt. eigenvalues --    0.17493   0.17611   0.18004   0.18149   0.18371
 Alpha virt. eigenvalues --    0.18718   0.18863   0.19003   0.19501   0.19766
 Alpha virt. eigenvalues --    0.19776   0.19886   0.20155   0.20324   0.20499
 Alpha virt. eigenvalues --    0.20715   0.21113   0.21246   0.21820   0.22144
 Alpha virt. eigenvalues --    0.22159   0.22608   0.22910   0.22994   0.23241
 Alpha virt. eigenvalues --    0.23341   0.23603   0.23746   0.23962   0.24321
 Alpha virt. eigenvalues --    0.24493   0.25050   0.25246   0.25555   0.25895
 Alpha virt. eigenvalues --    0.26200   0.26419   0.26717   0.26758   0.26987
 Alpha virt. eigenvalues --    0.27197   0.27791   0.27871   0.27945   0.28098
 Alpha virt. eigenvalues --    0.28333   0.28752   0.29161   0.29660   0.29968
 Alpha virt. eigenvalues --    0.30307   0.30604   0.30730   0.30884   0.31197
 Alpha virt. eigenvalues --    0.31754   0.31809   0.31934   0.32205   0.32678
 Alpha virt. eigenvalues --    0.32716   0.33026   0.33368   0.33559   0.34057
 Alpha virt. eigenvalues --    0.34241   0.34751   0.35024   0.35561   0.35999
 Alpha virt. eigenvalues --    0.36806   0.37140   0.37425   0.38258   0.38296
 Alpha virt. eigenvalues --    0.38964   0.39219   0.39892   0.40010   0.40478
 Alpha virt. eigenvalues --    0.41294   0.41789   0.42145   0.42387   0.42932
 Alpha virt. eigenvalues --    0.43428   0.44274   0.44521   0.46175   0.46606
 Alpha virt. eigenvalues --    0.47199   0.47904   0.48634   0.48728   0.50235
 Alpha virt. eigenvalues --    0.50528   0.51182   0.51724   0.52113   0.52496
 Alpha virt. eigenvalues --    0.52989   0.53368   0.53812   0.55103   0.55645
 Alpha virt. eigenvalues --    0.57447   0.57997   0.59238   0.61129   0.61703
 Alpha virt. eigenvalues --    0.63533   0.64443   0.64606   0.64958   0.65410
 Alpha virt. eigenvalues --    0.65541   0.65982   0.66129   0.66341   0.66540
 Alpha virt. eigenvalues --    0.67426   0.67478   0.68420   0.68818   0.68930
 Alpha virt. eigenvalues --    0.70112   0.70755   0.70851   0.70968   0.71008
 Alpha virt. eigenvalues --    0.71553   0.71821   0.72705   0.72934   0.73217
 Alpha virt. eigenvalues --    0.73921   0.73973   0.74604   0.74872   0.75712
 Alpha virt. eigenvalues --    0.75773   0.75999   0.76465   0.77300   0.77711
 Alpha virt. eigenvalues --    0.78599   0.79117   0.79565   0.79830   0.80423
 Alpha virt. eigenvalues --    0.80714   0.81137   0.81384   0.81638   0.82019
 Alpha virt. eigenvalues --    0.82790   0.82829   0.82948   0.84567   0.85173
 Alpha virt. eigenvalues --    0.86287   0.87175   0.87473   0.88597   0.88842
 Alpha virt. eigenvalues --    0.89844   0.91642   0.91887   0.92559   0.93025
 Alpha virt. eigenvalues --    0.94201   0.95118   0.95292   0.96377   0.96625
 Alpha virt. eigenvalues --    0.96799   0.97423   0.98344   0.98761   0.99752
 Alpha virt. eigenvalues --    1.00017   1.00433   1.00615   1.01389   1.01728
 Alpha virt. eigenvalues --    1.02268   1.02395   1.02983   1.03080   1.03563
 Alpha virt. eigenvalues --    1.04497   1.05172   1.05650   1.07160   1.07890
 Alpha virt. eigenvalues --    1.08866   1.09012   1.09203   1.10443   1.11408
 Alpha virt. eigenvalues --    1.12652   1.12825   1.13085   1.14197   1.14767
 Alpha virt. eigenvalues --    1.15528   1.16333   1.16455   1.17290   1.17677
 Alpha virt. eigenvalues --    1.18508   1.19400   1.20857   1.21093   1.21380
 Alpha virt. eigenvalues --    1.21675   1.22124   1.23742   1.23907   1.24397
 Alpha virt. eigenvalues --    1.24668   1.25914   1.26097   1.26749   1.26888
 Alpha virt. eigenvalues --    1.27978   1.28559   1.29299   1.29864   1.30109
 Alpha virt. eigenvalues --    1.30218   1.30713   1.31228   1.31763   1.32469
 Alpha virt. eigenvalues --    1.32995   1.33273   1.33829   1.35580   1.36454
 Alpha virt. eigenvalues --    1.38248   1.38725   1.38911   1.39072   1.39161
 Alpha virt. eigenvalues --    1.39901   1.42253   1.43011   1.44174   1.44389
 Alpha virt. eigenvalues --    1.45200   1.45417   1.46897   1.48695   1.50883
 Alpha virt. eigenvalues --    1.51091   1.51571   1.51983   1.54093   1.55466
 Alpha virt. eigenvalues --    1.57670   1.58555   1.62475   1.64345   1.64512
 Alpha virt. eigenvalues --    1.65061   1.66097   1.67995   1.69438   1.72025
 Alpha virt. eigenvalues --    1.72229   1.74101   1.75827   1.76164   1.76541
 Alpha virt. eigenvalues --    1.76801   1.77852   1.78940   1.80191   1.81009
 Alpha virt. eigenvalues --    1.81277   1.81462   1.81681   1.82193   1.82716
 Alpha virt. eigenvalues --    1.82781   1.85972   1.86460   1.88850   1.89169
 Alpha virt. eigenvalues --    1.90231   1.90405   1.91399   1.91554   1.93739
 Alpha virt. eigenvalues --    1.94369   1.95794   1.96116   1.96248   1.97047
 Alpha virt. eigenvalues --    1.98117   1.98814   1.99274   1.99928   2.03582
 Alpha virt. eigenvalues --    2.05336   2.05862   2.05968   2.07032   2.08657
 Alpha virt. eigenvalues --    2.09173   2.10606   2.10794   2.11254   2.12594
 Alpha virt. eigenvalues --    2.13137   2.16156   2.16877   2.17841   2.19186
 Alpha virt. eigenvalues --    2.20873   2.21947   2.22613   2.24724   2.26376
 Alpha virt. eigenvalues --    2.26626   2.27900   2.28646   2.29262   2.30900
 Alpha virt. eigenvalues --    2.31395   2.31755   2.32602   2.33714   2.33824
 Alpha virt. eigenvalues --    2.35088   2.35184   2.36648   2.36931   2.37516
 Alpha virt. eigenvalues --    2.37852   2.38557   2.39819   2.40931   2.42654
 Alpha virt. eigenvalues --    2.42888   2.45061   2.45670   2.46371   2.48120
 Alpha virt. eigenvalues --    2.48199   2.48606   2.49483   2.50330   2.50674
 Alpha virt. eigenvalues --    2.52226   2.52531   2.53537   2.54662   2.55139
 Alpha virt. eigenvalues --    2.56235   2.57533   2.60426   2.61361   2.61915
 Alpha virt. eigenvalues --    2.62211   2.63286   2.63322   2.63887   2.64715
 Alpha virt. eigenvalues --    2.65671   2.66008   2.69021   2.69729   2.69884
 Alpha virt. eigenvalues --    2.71248   2.71346   2.71629   2.71686   2.73263
 Alpha virt. eigenvalues --    2.75977   2.76912   2.78524   2.79517   2.81197
 Alpha virt. eigenvalues --    2.82219   2.83089   2.85732   2.88646   2.90592
 Alpha virt. eigenvalues --    2.92004   2.92038   2.94411   2.96307   2.97672
 Alpha virt. eigenvalues --    3.01321   3.04002   3.04774   3.07678   3.10033
 Alpha virt. eigenvalues --    3.12077   3.12266   3.16116   3.17990   3.25487
 Alpha virt. eigenvalues --    3.26619   3.32087   3.33315   3.33700   3.37047
 Alpha virt. eigenvalues --    3.38348   3.41933   3.45515   3.45653   3.53577
 Alpha virt. eigenvalues --    3.54972   3.57952   3.62869   3.71286   3.72227
 Alpha virt. eigenvalues --    3.96533   4.00250   4.02103   4.02750   4.15022
 Alpha virt. eigenvalues --    4.24511   4.29778   4.32279   4.32916   4.33797
 Alpha virt. eigenvalues --    4.34329   4.35987   4.36458   4.38642   4.40540
 Alpha virt. eigenvalues --    4.41606   4.43996   4.44572   4.47443   4.51380
 Alpha virt. eigenvalues --    4.54252   4.57470   4.62851   4.66786   4.70157
 Alpha virt. eigenvalues --    4.77880   4.78318   4.78834   4.82057   4.87112
          Condensed to atoms (all electrons):
              1          2          3          4          5          6
     1  C   12.023300  -4.987095   5.009819  -2.135081  -2.060947  -2.103042
     2  C   -4.987095  17.476377 -12.102012   2.172115   6.095266  -0.011331
     3  C    5.009819 -12.102012  25.254266  -6.752527 -11.997312   1.173543
     4  C   -2.135081   2.172115  -6.752527  12.793177   2.892362   0.578011
     5  C   -2.060947   6.095266 -11.997312   2.892362  24.788823  -8.120178
     6  C   -2.103042  -0.011331   1.173543   0.578011  -8.120178  12.985969
     7  S    0.357143   0.148819   0.236865  -0.415958   1.569601  -1.819697
     8  C   -0.330797  -1.832939   4.860588  -2.446911  -5.220135   1.587015
     9  C    0.094858  -0.200683   1.062651  -1.032078  -1.833675   0.903507
    10  C    0.176041  -1.164360   1.859024  -1.987995  -2.047621   0.961136
    11  N    0.003330  -0.017372  -0.035052   0.008159   0.012523   0.000219
    12  C    0.091157  -0.291044  -0.343873   0.416511   0.434621  -0.247570
    13  C   -0.009793   0.042284  -0.084802   0.240022   0.062734  -0.022538
    14  N    0.000072  -0.000536   0.003275  -0.012381  -0.002668   0.000779
    15  C   -0.000013   0.000589   0.003577   0.000305  -0.000569   0.000192
    16  C   -0.000599   0.002878   0.007731  -0.014156  -0.004284   0.001150
    17  S   -0.000964   0.002508   0.013470  -0.041764  -0.009350   0.000055
    18  C    0.000006  -0.000048  -0.000857   0.001800   0.000281  -0.000057
    19  S   -0.000000   0.000004   0.000011   0.000026  -0.000003   0.000002
    20  C    0.000000  -0.000002   0.000014  -0.000057  -0.000004   0.000001
    21  C   -0.000002   0.000058  -0.000129   0.000853   0.000064  -0.000009
    22  C    0.000000  -0.000016  -0.000017  -0.000067  -0.000004   0.000001
    23  C    0.000009  -0.000140   0.000161  -0.000707  -0.000050   0.000001
    24  C    0.000053  -0.000482   0.001414  -0.003981  -0.000462   0.000034
    25  C   -0.000032   0.000288  -0.000804   0.002415   0.000300  -0.000041
    26  C   -0.040576   0.161650  -0.423563   0.401267   0.869592  -0.433882
    27  N   -0.000011  -0.001883   0.006092  -0.010740  -0.033664   0.024654
    28  S   -0.000321   0.002608  -0.008433   0.012721   0.039180  -0.035952
    29  N   -0.011382   0.007846   0.060862  -0.036171  -0.105818   0.045885
    30  C    0.014506   0.156263  -1.192119   0.714191   1.045218  -0.205691
    31  H    0.583041  -0.230118   0.189919  -0.016888  -0.213995  -0.017984
    32  H    0.596960  -0.250862   0.181488  -0.015972  -0.203434  -0.017828
    33  H   -0.160170   0.590264  -0.328772   0.104085   0.161871  -0.038578
    34  H    0.098079  -0.119305   0.536421  -0.188328  -0.126314   0.026730
    35  H   -0.090616  -0.003689   0.030106   0.049059  -0.246111   0.525930
    36  H   -0.011707   0.030486  -0.252462   0.206659   0.131815   0.014195
    37  H   -0.000000   0.000006  -0.000023   0.000158   0.000018  -0.000005
    38  H    0.000000  -0.000000  -0.000000  -0.000001  -0.000000   0.000000
    39  H    0.000000  -0.000000  -0.000000  -0.000001  -0.000000   0.000000
    40  H   -0.000000  -0.000002  -0.000025   0.000038   0.000004  -0.000000
    41  H    0.000002   0.000002   0.000268  -0.000392  -0.000066   0.000006
    42  H   -0.000006   0.000095   0.000467  -0.000559  -0.000080   0.000013
              7          8          9         10         11         12
     1  C    0.357143  -0.330797   0.094858   0.176041   0.003330   0.091157
     2  C    0.148819  -1.832939  -0.200683  -1.164360  -0.017372  -0.291044
     3  C    0.236865   4.860588   1.062651   1.859024  -0.035052  -0.343873
     4  C   -0.415958  -2.446911  -1.032078  -1.987995   0.008159   0.416511
     5  C    1.569601  -5.220135  -1.833675  -2.047621   0.012523   0.434621
     6  C   -1.819697   1.587015   0.903507   0.961136   0.000219  -0.247570
     7  S   16.858142  -0.346530  -0.289274  -0.150639   0.006227  -0.152094
     8  C   -0.346530  10.729447   0.577543  -0.537614   0.027761   0.360487
     9  C   -0.289274   0.577543  12.228248  -3.371749   0.162327  -0.135980
    10  C   -0.150639  -0.537614  -3.371749  14.725316  -0.152004  -3.382030
    11  N    0.006227   0.027761   0.162327  -0.152004   7.118078   0.180975
    12  C   -0.152094   0.360487  -0.135980  -3.382030   0.180975  11.646884
    13  C   -0.004472   0.067697   0.097560  -0.859317  -0.403790   1.648647
    14  N    0.002902  -0.002197   0.099542  -0.074245   0.031910  -0.276485
    15  C    0.000087   0.004500  -0.008750   0.360503   0.019769   0.149497
    16  C    0.006921  -0.029528   0.043112  -0.200664   0.060007  -0.014673
    17  S    0.016126  -0.010395   0.126762  -0.218152   0.344983  -1.340074
    18  C   -0.000227  -0.000340  -0.010601  -0.002467   0.006160   0.073693
    19  S    0.000005  -0.000203  -0.000526   0.003693   0.000125   0.024727
    20  C    0.000001   0.000007  -0.000772   0.002367  -0.000182  -0.000091
    21  C   -0.000013   0.000195   0.001924   0.008963   0.004499  -0.045360
    22  C    0.000001   0.000037   0.000152  -0.005049  -0.000139  -0.002398
    23  C    0.000014   0.000277   0.000851   0.005904   0.004305  -0.054441
    24  C    0.000165   0.001803   0.001170   0.007612   0.003106  -0.108311
    25  C    0.000068  -0.001304   0.003408  -0.047104   0.021954  -0.049628
    26  C    0.037127   0.177187  -2.522074   0.330433  -0.132728  -1.068879
    27  N    0.031373  -0.122304   0.294355   0.077095   0.022141  -0.152191
    28  S    0.029495   0.064136  -0.302191  -0.024974   0.007595   0.002815
    29  N    0.068671  -0.151915   0.022557   0.007965  -0.006942   0.025689
    30  C   -0.272216  -1.197055   0.217237   1.026107  -0.130134  -1.053113
    31  H    0.001464   0.012562   0.000662   0.001460  -0.000059   0.000015
    32  H   -0.002266   0.018004  -0.001657   0.003759   0.000058   0.000557
    33  H    0.002686  -0.044780  -0.001406  -0.016351   0.000350  -0.001637
    34  H   -0.000449   0.038655   0.024778   0.089402  -0.001517  -0.021451
    35  H   -0.062775   0.069014   0.014641   0.018237   0.000049  -0.003837
    36  H   -0.043105  -0.181233  -0.528468   0.622911  -0.162345   0.022302
    37  H   -0.000067   0.000260   0.001472   0.001603  -0.000093   0.000964
    38  H   -0.000000  -0.000000  -0.000009  -0.000007   0.000000  -0.000077
    39  H    0.000000  -0.000000  -0.000003  -0.000100  -0.000019   0.000190
    40  H   -0.000000  -0.000014   0.000121  -0.000193   0.000051   0.000159
    41  H    0.000020   0.000178   0.000441   0.003378   0.001225  -0.009387
    42  H    0.000025   0.000285  -0.001001   0.008220   0.000508  -0.010717
             13         14         15         16         17         18
     1  C   -0.009793   0.000072  -0.000013  -0.000599  -0.000964   0.000006
     2  C    0.042284  -0.000536   0.000589   0.002878   0.002508  -0.000048
     3  C   -0.084802   0.003275   0.003577   0.007731   0.013470  -0.000857
     4  C    0.240022  -0.012381   0.000305  -0.014156  -0.041764   0.001800
     5  C    0.062734  -0.002668  -0.000569  -0.004284  -0.009350   0.000281
     6  C   -0.022538   0.000779   0.000192   0.001150   0.000055  -0.000057
     7  S   -0.004472   0.002902   0.000087   0.006921   0.016126  -0.000227
     8  C    0.067697  -0.002197   0.004500  -0.029528  -0.010395  -0.000340
     9  C    0.097560   0.099542  -0.008750   0.043112   0.126762  -0.010601
    10  C   -0.859317  -0.074245   0.360503  -0.200664  -0.218152  -0.002467
    11  N   -0.403790   0.031910   0.019769   0.060007   0.344983   0.006160
    12  C    1.648647  -0.276485   0.149497  -0.014673  -1.340074   0.073693
    13  C   14.630530   0.336749  -0.681892  -4.224913  -1.126711   0.487362
    14  N    0.336749   7.119905  -0.677166   0.223335   0.297236   0.067306
    15  C   -0.681892  -0.677166  12.507357  -3.130091  -1.353326  -0.341281
    16  C   -4.224913   0.223335  -3.130091  14.624792  -0.247286   0.740972
    17  S   -1.126711   0.297236  -1.353326  -0.247286  19.953101   0.520117
    18  C    0.487362   0.067306  -0.341281   0.740972   0.520117   9.558934
    19  S   -0.132436   0.007150  -0.106974  -0.456730  -0.155405  -0.451419
    20  C    0.336518   0.000089   0.550587   1.111489   0.175946   2.359246
    21  C   -0.479774  -0.009882  -0.501188  -1.540142  -0.530525  -4.321792
    22  C   -0.035294  -0.006497  -0.176319  -0.502540  -0.129787  -1.998590
    23  C   -0.090980   0.017608   0.100999   0.324552  -0.067691  -0.068004
    24  C    0.021589   0.003893   0.302590  -0.530921  -0.028100  -0.493170
    25  C   -1.494886  -0.070927  -1.837817   0.788805  -0.164149  -0.370495
    26  C   -0.700761  -0.033774  -0.061862  -0.809404  -0.451727  -0.114699
    27  N   -0.080593   0.053658  -0.042066  -0.100694  -0.051007   0.010818
    28  S    0.161855  -0.038652  -0.028566  -0.014238  -0.003669   0.002434
    29  N   -0.067942  -0.011534   0.004571  -0.020918  -0.010818  -0.000253
    30  C   -0.737748   0.103800  -0.163893   0.166894  -0.203924  -0.006719
    31  H   -0.000052  -0.000000  -0.000000  -0.000002  -0.000009   0.000000
    32  H   -0.000028   0.000001  -0.000000  -0.000002  -0.000010   0.000000
    33  H    0.000464  -0.000006   0.000006   0.000043   0.000071  -0.000003
    34  H   -0.009427   0.000493  -0.000464  -0.000843   0.004897   0.000209
    35  H   -0.000378   0.000014   0.000006   0.000014   0.000025  -0.000001
    36  H    0.006175  -0.005385  -0.001477  -0.001245  -0.049723  -0.001398
    37  H    0.038192  -0.135270   0.750417  -0.339519  -0.013947  -0.083969
    38  H    0.005961   0.000099   0.003941   0.029152   0.006446   0.084815
    39  H   -0.001102  -0.000128  -0.003635  -0.017743   0.002909   0.013936
    40  H   -0.002416   0.000232  -0.004640  -0.011187   0.002649  -0.040369
    41  H    0.003648  -0.000903   0.030271   0.043954  -0.040283   0.057311
    42  H    0.012607  -0.001050   0.032519   0.037327  -0.043523   0.054952
             19         20         21         22         23         24
     1  C   -0.000000   0.000000  -0.000002   0.000000   0.000009   0.000053
     2  C    0.000004  -0.000002   0.000058  -0.000016  -0.000140  -0.000482
     3  C    0.000011   0.000014  -0.000129  -0.000017   0.000161   0.001414
     4  C    0.000026  -0.000057   0.000853  -0.000067  -0.000707  -0.003981
     5  C   -0.000003  -0.000004   0.000064  -0.000004  -0.000050  -0.000462
     6  C    0.000002   0.000001  -0.000009   0.000001   0.000001   0.000034
     7  S    0.000005   0.000001  -0.000013   0.000001   0.000014   0.000165
     8  C   -0.000203   0.000007   0.000195   0.000037   0.000277   0.001803
     9  C   -0.000526  -0.000772   0.001924   0.000152   0.000851   0.001170
    10  C    0.003693   0.002367   0.008963  -0.005049   0.005904   0.007612
    11  N    0.000125  -0.000182   0.004499  -0.000139   0.004305   0.003106
    12  C    0.024727  -0.000091  -0.045360  -0.002398  -0.054441  -0.108311
    13  C   -0.132436   0.336518  -0.479774  -0.035294  -0.090980   0.021589
    14  N    0.007150   0.000089  -0.009882  -0.006497   0.017608   0.003893
    15  C   -0.106974   0.550587  -0.501188  -0.176319   0.100999   0.302590
    16  C   -0.456730   1.111489  -1.540142  -0.502540   0.324552  -0.530921
    17  S   -0.155405   0.175946  -0.530525  -0.129787  -0.067691  -0.028100
    18  C   -0.451419   2.359246  -4.321792  -1.998590  -0.068004  -0.493170
    19  S   16.315335  -0.837790   1.254586   0.466743  -0.127559   0.293667
    20  C   -0.837790  11.967763  -7.148783  -1.370226   0.229135  -0.353384
    21  C    1.254586  -7.148783  16.195155   1.537699  -0.182170   0.295928
    22  C    0.466743  -1.370226   1.537699   8.649082  -0.043019   1.604294
    23  C   -0.127559   0.229135  -0.182170  -0.043019   8.399300  -3.171950
    24  C    0.293667  -0.353384   0.295928   1.604294  -3.171950  11.450295
    25  C   -0.074846  -1.358870   1.832471  -1.796150   0.486320  -3.120264
    26  C   -0.008896   0.013024  -0.041078   0.007005  -0.010420   0.021998
    27  N    0.000381   0.000111   0.000287  -0.000216   0.000167  -0.001586
    28  S    0.000021  -0.000050   0.000222  -0.000003   0.000005  -0.000206
    29  N    0.000025   0.000017  -0.000037  -0.000002   0.000006   0.000163
    30  C    0.000262  -0.000468  -0.001023   0.000246  -0.000874  -0.005839
[...]
 0.00000292,-0.00000023,0.00000419,0.00000164,0.00000193,0.00000143,-0.
 00000467,0.00000285,0.00000216,0.00000722,-0.00000203,-0.00000468,-0.0
 0000598,-0.00002389,0.00000301,-0.00000236,0.00004791,0.00003617,0.000
 01460,-0.00027293,-0.00000410,-0.00005801,-0.00009795,-0.00001202,0.00
 001489,0.00024255,0.00002150,-0.00001368,-0.00016514,-0.00008062,-0.00
 001449,0.00174864,-0.00006377,0.00000600,0.00031658,-0.00071878,-0.000
 52922,-0.00035387,0.00110477,-0.00263424,-0.00218466,-0.01125040,0.028
 15326,-0.02418332,0.00057184,0.00434857,0.00157257,0.00084859,-0.00031
 953,-0.00363855,0.00000043,0.00002791,-0.00000886,-0.00007158,0.000245
 30,0.00076080,-0.00174550,0.00049879,0.00556344,-0.00000872,-0.0000009
 3,0.00001966,0.00000534,0.00000023,-0.00000867,-0.00000533,0.00000028,
 0.00000029,0.00000182,-0.00000226,-0.00000028,0.00000222,-0.00000349,0
 .00001320,0.00000017,-0.00000051,-0.00000022,0.00000009,0.00000008,0.0
 0000016,0.00000084,-0.00000012,0.00000029,0.00000005,0.00000079,0.0000
 0139,0.00000011,-0.00000022,-0.00000075,0.00000021,-0.00000029,0.00000
 183,0.00000434,0.00000838,0.00003770,0.01161047,-0.02974583,0.02024503
 ,0.00000092,-0.00000320,0.00000080,0.00000626,0.00000754,-0.00000315,0
 .00000274,-0.00000642,0.00000011,-0.00002645,0.00000716,0.00000145,-0.
 00000816,-0.00000775,0.00000832,0.00001026,-0.00001400,0.00000054,0.00
 000532,0.00000910,-0.00000016,0.00001760,-0.00001512,-0.00000539,0.000
 00496,0.00002712,0.00000082,-0.00003183,-0.00001559,0.00000030,0.00004
 324,-0.00001610,0.00000880,-0.00000455,0.00011553,-0.00000634,-0.00007
 204,-0.00017315,0.00001147,0.00002169,-0.00002363,-0.00000475,-0.00000
 856,-0.00017488,0.00001913,-0.00043656,0.00019047,-0.00005095,-0.00002
 653,0.00008867,-0.00002508,0.00034120,-0.00139483,0.00005740,-0.000546
 50,-0.00028184,-0.00005868,0.00152229,0.00044221,0.00033772,-0.0007116
 4,-0.02508503,0.00103238,-0.09025870,-0.09282555,-0.00389754,0.0117585
 2,0.01756709,0.00035284,-0.00189719,0.00277650,-0.00231622,-0.00514748
 ,-0.00065419,-0.00122020,-0.00002552,-0.00001749,-0.00000015,0.0000170
 0,0.00000340,0.00000224,-0.00002027,0.00000274,-0.00000216,0.00001227,
 -0.00001207,0.00000261,0.00000656,-0.00000703,-0.00000342,-0.00000014,
 -0.00000096,-0.00000061,0.00000067,-0.00000112,0.00000091,0.00000108,-
 0.00000024,-0.00000091,-0.00000080,0.00000082,-0.00000044,0.00000008,-
 0.00000063,-0.00000251,0.00000310,-0.00000353,0.00000060,0.00001760,0.
 00001201,0.00000059,-0.00047278,0.00030378,-0.00011209,0.08472774,0.00
 000216,-0.00000485,0.00000203,0.00000712,0.00001166,-0.00000455,0.0000
 0488,-0.00000802,-0.00000187,-0.00003815,0.00000955,0.00000442,-0.0000
 1292,-0.00001163,0.00000870,0.00001426,-0.00001960,0.00000197,0.000009
 06,0.00001337,-0.00000123,0.00002578,-0.00002414,-0.00000859,0.0000052
 0,0.00004450,0.00000214,-0.00004749,-0.00002097,-0.00000063,0.00003169
 ,-0.00002194,0.00000465,-0.00001848,0.00010386,-0.00000835,0.00009815,
 -0.00000314,0.00000715,-0.00010500,0.00001665,-0.00000987,-0.00003067,
 -0.00007312,-0.00000935,0.00007049,0.00008577,-0.00000025,-0.00002293,
 0.00000035,0.00000396,0.00006138,0.00002975,0.00003257,-0.00032175,-0.
 00004003,-0.00005343,-0.00028733,0.00014243,-0.00009567,0.00196332,0.0
 0012652,0.00035994,-0.09061751,-0.31540037,0.00002026,-0.01221206,-0.0
 1458216,-0.00101867,0.00198114,-0.00138775,0.00100676,0.00055614,0.000
 05848,0.00021655,-0.00002000,-0.00002477,-0.00000072,0.00001443,0.0000
 0417,0.00000064,-0.00002394,0.00000493,-0.00000132,0.00001378,-0.00002
 207,0.00000236,0.00000627,-0.00001185,-0.00000249,-0.00000056,-0.00000
 198,-0.00000110,0.00000074,-0.00000174,0.00000199,0.00000177,-0.000000
 06,-0.00000111,-0.00000150,0.00000147,0.00000067,0.00000023,-0.0000011
 7,-0.00000330,0.00000480,-0.00000167,0.00000170,0.00000532,0.00000387,
 0.00000056,-0.00024863,-0.00007297,-0.00002907,0.09915948,0.33146208,0
 .00000040,0.00000005,0.00000152,0.00000124,0.00000034,-0.00000198,-0.0
 0000087,-0.00000291,-0.00000042,-0.00000327,0.00000154,0.00000066,-0.0
 0000021,-0.00000035,-0.00000111,-0.00000038,-0.00000038,-0.00000035,0.
 00000226,0.00000116,-0.00000036,0.00000036,-0.00000243,0.00000009,0.00
 000080,0.00000346,0.00000027,-0.00000244,-0.00000245,0.00000042,0.0000
 0631,-0.00000142,-0.00000903,0.00000176,0.00001360,-0.00000253,-0.0000
 1391,-0.00003521,-0.00006454,0.00000765,-0.00000337,0.00006127,0.00001
 336,-0.00002602,-0.00009014,-0.00005494,0.00001515,-0.00014710,-0.0000
 1402,0.00001992,0.00005349,-0.00001927,-0.00020863,0.00044408,-0.00005
 487,-0.00004895,-0.00009680,0.00038997,0.00002620,-0.00067171,-0.00037
 378,-0.00405796,0.00110931,-0.00405002,-0.00037079,-0.03704722,0.00194
 885,0.00387875,0.00400125,-0.00229156,0.00113393,0.01093257,-0.0012719
 5,0.00001999,0.00222101,-0.00000267,-0.00000237,-0.00000388,0.00000231
 ,-0.00000051,-0.00000157,-0.00000237,0.00000101,0.00000294,0.00000177,
 -0.00000082,-0.00000247,-0.00000022,-0.00000058,0.00000648,0.00000021,
 -0.00000035,-0.00000015,-0.00000005,0.00000033,-0.00000001,0.00000073,
 -0.00000026,0.00000063,0.,0.00000041,0.00000133,0.00000013,0.00000015,
 0.00000030,-0.00000013,-0.00000025,0.00000169,0.00000223,0.00000208,0.
 00000420,-0.00010200,0.00005997,0.00015493,0.00468760,-0.00011879,0.02
 497637,0.00000115,-0.00000792,0.00000114,0.00001126,0.00001394,-0.0000
 0525,0.00000634,-0.00001183,0.00000106,-0.00004938,0.00001262,0.000003
 66,-0.00001323,-0.00000958,0.00001513,0.00001784,-0.00002520,0.0000021
 4,0.00001093,0.00001685,-0.00000115,0.00003109,-0.00003043,-0.00000707
 ,0.00000445,0.00005179,-0.00000303,-0.00006179,-0.00002929,-0.00000017
 ,0.00005930,-0.00002907,0.00001151,-0.00002750,0.00015615,-0.00001021,
 0.00005252,-0.00008465,0.00000953,-0.00006158,0.00001056,-0.00000570,-
 0.00007607,-0.00008787,-0.00000783,0.00009659,0.00017907,0.00000779,-0
 .00000330,0.00002610,-0.00000437,0.00007399,0.00029008,-0.00028116,-0.
 00034654,0.00021337,0.00015770,-0.00038069,-0.00040806,-0.00010914,-0.
 00061139,0.00208839,-0.00173743,-0.00888752,-0.00496845,-0.00208029,-0
 .33928800,0.00375960,-0.05054674,-0.00633044,0.00429280,-0.00129847,-0
 .00038693,-0.00150057,-0.00003609,-0.00003017,-0.00003609,-0.00000093,
 0.00001966,0.00000356,0.00000325,-0.00002920,0.00000603,-0.00000375,0.
 00001797,-0.00002442,0.00000496,0.00001140,-0.00001054,-0.00000619,-0.
 00000049,-0.00000194,-0.00000126,0.00000116,-0.00000215,0.00000170,0.0
 0000228,-0.00000084,-0.00000232,-0.00000271,0.00000179,-0.00000108,-0.
 00000010,-0.00000147,-0.00000456,0.00000631,-0.00000569,0.00000135,0.0
 0001054,0.00000507,0.00000039,-0.00005629,0.00002830,-0.00004412,0.000
 35785,0.00044196,0.00090149,0.35599799,0.00000031,-0.00000346,0.000000
 46,0.00000762,0.00000667,-0.00000180,0.00000225,-0.00000846,0.00000198
 ,-0.00002711,0.00000660,0.00000323,-0.00000545,-0.00000361,0.00000539,
 0.00000733,-0.00001147,0.00000168,0.00000872,0.00000913,-0.00000190,0.
 00001465,-0.00001858,-0.00000380,0.00000762,0.00002739,0.00000166,-0.0
 0004200,-0.00002053,-0.00000206,0.00003133,-0.00001420,0.00000504,-0.0
 0002735,0.00006633,-0.00000723,0.00008777,0.00005108,0.00000808,-0.000
 10658,-0.00001445,-0.00001362,0.00001412,-0.00005743,0.00000340,0.0001
 1160,0.00014613,0.00000651,0.00003084,0.00004877,0.00000947,-0.0005907
 6,0.00098773,-0.00006234,0.00010490,0.00030584,-0.00007052,0.00041138,
 0.00113507,0.00003053,0.00241304,-0.00463061,0.00113648,0.02495936,0.0
 0653276,0.00404162,0.00028995,-0.05815907,0.00139327,-0.02176111,0.006
 22804,-0.00389621,-0.00259777,-0.00526917,-0.00012836,-0.00000548,-0.0
 0002267,0.00000008,0.00000659,-0.00000039,0.00000108,-0.00001075,0.000
 00447,-0.00000103,0.00000807,-0.00001325,0.00000182,0.00000118,-0.0000
 0374,-0.00000314,0.00000016,-0.00000063,-0.00000041,0.00000071,-0.0000
 0138,0.00000059,0.00000158,-0.00000151,-0.00000197,-0.00000266,0.00000
 118,-0.00000161,-0.00000006,-0.00000057,-0.00000231,0.00000326,-0.0000
 0587,0.00000103,-0.00001247,0.00000062,-0.00000176,-0.00002159,0.00000
 588,0.00000664,-0.00082302,0.00078673,-0.00045969,-0.00358356,0.051070
 26,0.00000051,-0.00000093,0.00000158,0.00000188,0.00000185,-0.00000308
 ,-0.00000044,-0.00000532,-0.00000066,-0.00000843,0.00000201,0.00000178
 ,-0.00000094,0.00000012,0.00000088,0.00000101,-0.00000309,-0.00000080,
 0.00000419,0.00000319,-0.00000057,0.00000322,-0.00000563,-0.00000208,0
 .00000025,0.00000901,-0.00000007,-0.00000808,-0.00000473,0.00000081,0.
 00000948,-0.00000391,-0.00001169,-0.00000281,0.00002227,0.00000109,0.0
 0000349,-0.00001601,-0.00000105,-0.00000227,0.00000110,-0.00001416,-0.
 00001231,-0.00001037,0.00000144,0.00001389,0.00002088,-0.00001920,-0.0
 0000347,0.00000297,0.00001004,-0.00023737,0.00008781,0.00163294,0.0001
 6632,-0.00005391,-0.00132938,-0.00016443,-0.00010646,0.00039931,-0.001
 74257,0.00108230,0.00891411,-0.00368917,-0.00088028,0.00484673,-0.0503
 5562,0.00195741,-0.04132929,0.00008092,0.00039260,0.00019677,0.0000298
 7,0.00005082,0.00031137,-0.00000510,-0.00000511,0.00000200,0.00000314,
 0.00000012,0.00000063,-0.00000440,0.00000175,0.00000138,0.00000302,-0.
 00000348,-0.00000109,0.00000161,-0.00000158,0.00000144,0.00000009,-0.0
 0000062,-0.00000032,0.00000011,0.00000032,0.00000018,0.00000133,-0.000
 00057,0.00000081,-0.00000059,0.00000082,0.00000212,0.00000023,0.000000
 12,0.00000014,0.00000019,-0.00000044,0.00000376,0.00000200,0.00000035,
 0.00000130,-0.00004074,0.00001499,0.00019223,0.00096709,-0.00025017,-0
 .00509584,0.05510532,-0.00214526,0.03105636,0.00000097,-0.00000135,0.0
 0000209,0.00000424,0.00000633,-0.00000505,0.00000124,-0.00000532,-0.00
 000009,-0.00002393,0.00000756,-0.00000033,-0.00001033,-0.00000791,0.00
 000862,0.00001205,-0.00001335,-0.00000106,0.00000423,0.00000736,0.0000
 0233,0.00001928,-0.00001571,-0.00000668,0.00001901,0.00003379,0.000001
 45,-0.00000273,-0.00004064,0.00000705,0.00005777,0.00003443,-0.0000153
 9,0.00009125,0.00022144,-0.00003378,-0.00082087,-0.00097983,-0.0004033
 7,0.00077217,-0.00006838,0.00023205,-0.00016237,0.00004748,-0.00010748
 ,-0.00039578,0.00067495,0.00063430,-0.00013568,-0.00001793,0.00048516,
 0.00161707,0.00024434,-0.00071478,-0.00020884,0.00130980,-0.00108096,-
 0.00083966,0.00058486,-0.00041617,-0.00277392,-0.00008475,-0.00117582,
 -0.00222083,-0.00255472,0.00044286,0.00859471,-0.01084851,-0.01461872,
 -0.06951214,0.04771798,0.05912507,-0.00989162,0.01740896,0.02086201,-0
 .00006523,-0.00000566,0.00000726,0.00004015,0.00001210,0.00000244,-0.0
 0003616,-0.00000505,-0.00000510,0.00001266,0.00001476,0.00000080,0.000
 01960,-0.00000426,0.00000550,-0.00000012,-0.00000076,-0.00000035,0.000
 00037,-0.00000036,0.00000048,0.00000049,0.00000055,0.00000041,0.000002
 97,0.00000037,0.00000119,-0.00000051,-0.00000027,-0.00000227,-0.000000
 50,0.00000112,-0.00000008,0.00005159,0.00001633,0.00002449,-0.00016596
 ,0.00009320,-0.00034126,0.00017339,-0.00017992,0.00159556,-0.00011769,
 0.00067023,0.00042776,0.07473490,-0.00000094,0.00000202,-0.00000037,-0
 .00000020,-0.00000238,0.00000104,-0.00000210,0.00000025,0.00000224,0.0
 0000793,-0.00000157,-0.00000083,0.00000144,0.00000189,-0.00000083,-0.0
 0000071,0.00000424,-0.00000095,-0.00000275,-0.00000189,0.,-0.00000236,
 0.00000452,-0.00000538,0.00000360,-0.00000779,0.00000198,0.00001084,-0
 .00000498,0.00002990,0.00003792,0.00000903,-0.00004372,0.00003062,0.00
 003793,-0.00010862,0.00021376,-0.00025369,0.00006866,0.00004168,0.0005
 7057,-0.00006992,-0.00049490,-0.00038452,-0.00011874,0.00065214,0.0010
 9278,-0.00032237,-0.00025202,-0.00029259,0.00047601,-0.00104289,-0.000
 68755,0.00021040,-0.00040998,0.00000429,0.00005413,0.00069111,-0.00061
 322,0.00046629,0.00069060,-0.00016002,-0.00139230,-0.00254985,-0.00179
 174,-0.00046978,0.00813312,-0.01754881,-0.01691827,0.04841722,-0.13335
 523,-0.11715985,0.00455767,-0.00624311,-0.00423993,-0.00000671,0.00000
 786,0.00001519,0.00000407,0.00000492,0.00000713,-0.00000064,-0.0000026
 6,-0.00000526,-0.00000328,0.00001679,-0.00000216,0.00000684,0.00000095
 ,0.00001568,0.00000027,0.00000106,0.00000034,0.,0.00000051,-0.00000083
 ,-0.00000096,-0.00000003,-0.00000017,0.00000156,-0.00000150,-0.0000020
 5,-0.00000041,0.00000049,0.00000068,-0.00000265,-0.00000317,-0.0000017
 9,0.00000757,0.00000053,0.00002818,0.00009027,0.00001539,0.00015059,0.
 00011421,-0.00047872,0.00194544,-0.00047825,0.00041754,0.00049499,-0.0
 5356310,0.14971537,0.00000288,-0.00000416,0.00000208,-0.00000223,0.000
 00720,-0.00000382,0.00000619,0.00000215,-0.00000736,-0.00001927,0.0000
 0563,0.00000106,-0.00000974,-0.00001034,0.00000800,0.00001062,-0.00001
 306,0.00000057,0.00000116,0.00000635,-0.00000066,0.00001735,-0.0000140
 5,-0.00001167,-0.00000902,0.00002603,0.00000220,-0.00002813,-0.0000003
 1,0.00002548,-0.00003903,-0.00003220,-0.00003641,-0.00003175,-0.000059
 71,-0.00009099,0.00060468,0.00056411,0.00017901,-0.00060357,0.00028757
 ,-0.00018663,-0.00023315,-0.00026189,-0.00009196,0.00028379,0.00000256
 ,0.00005575,0.00020742,-0.00053082,0.00010626,-0.00028591,-0.00059442,
 0.00059157,0.00017675,0.00004251,-0.00015978,0.00003459,0.00031077,-0.
 00037942,-0.00057498,0.00092316,-0.00074713,-0.00087868,0.00056870,0.0
 0010086,-0.00080030,0.00009313,0.00086359,0.05887215,-0.11454375,-0.18
 021300,-0.00103846,0.00532200,0.00628175,0.00001586,-0.00001481,0.0000
 1573,-0.00001370,0.00000767,-0.00000037,-0.00001025,-0.00000624,-0.000
 00317,-0.00000217,-0.00002347,-0.00000004,0.00000525,-0.00001460,0.000
 00720,-0.00000120,-0.00000225,-0.00000082,-0.00000004,-0.00000080,0.00
 000174,0.00000045,0.00000179,0.00000122,0.00000092,0.00000155,0.000004
 80,0.00000043,-0.00000112,-0.00000094,0.00000527,0.00000895,0.00000045
 ,-0.00004296,-0.00000409,0.00001728,-0.00006762,0.00004234,-0.00005391
 ,0.00006447,0.00011517,-0.00023933,-0.00025225,-0.00051647,0.00015747,
 -0.06429310,0.12481799,0.19617090,0.00000174,-0.00000300,0.00000185,0.
 00000257,0.00000817,-0.00000458,0.00000352,-0.00000407,-0.00000284,-0.
 00002796,0.00000956,0.00000018,-0.00001308,-0.00001048,0.00001014,0.00
 001486,-0.00001704,0.00000016,0.00000400,0.00000857,0.00000260,0.00002
 329,-0.00001789,-0.00000600,0.00001478,0.00003790,0.00000127,-0.000009
 13,-0.00003718,-0.00000209,0.00003381,0.00002342,0.00003341,0.00005120
 ,0.00018742,0.00005915,-0.00060698,-0.00069197,0.00022953,0.00052482,0
 .00003899,-0.00002346,-0.00026755,-0.00004512,0.00007564,-0.00010490,0
 .00057591,-0.00075679,0.00003510,-0.00026907,-0.00045965,0.00127373,0.
 00017817,0.00091207,-0.00045965,0.00135747,0.00083864,-0.00088377,0.00
 067590,0.00017259,-0.00307906,0.00032940,0.00037862,-0.00220205,-0.002
 35328,-0.00094130,0.00299079,-0.00890599,0.01670373,-0.04474530,0.0059
 8924,-0.01212362,-0.00196898,0.01553984,-0.02537829,-0.00004686,-0.000
 01555,-0.00002201,0.00003117,0.00001422,0.00000403,-0.00003628,-0.0000
 0661,-0.00000051,0.00001074,0.00000543,0.00000231,0.00001940,-0.000008
 23,-0.00001025,-0.00000067,-0.00000136,-0.00000055,0.00000030,-0.00000
 048,0.00000109,0.00000059,0.00000085,0.00000074,0.00000180,0.00000085,
 0.00000193,-0.00000032,-0.00000076,-0.00000298,0.00000111,0.00000361,0
 .00000107,0.00004168,0.00001197,-0.00002256,-0.00027218,0.00013388,0.0
 0024920,0.00064338,-0.00029069,-0.00130608,-0.00002965,0.00042313,-0.0
 0054820,0.00115476,-0.00489974,0.00892732,0.04787527,-0.00000149,0.000
 00248,-0.00000065,-0.00000033,-0.00000355,0.00000110,-0.00000298,-0.00
 000033,0.00000308,0.00001001,-0.00000232,-0.00000217,0.00000290,0.0000
 0394,-0.00000224,-0.00000324,0.00000548,-0.00000206,-0.00000183,-0.000
 00431,0.00000303,-0.00000701,0.00000711,0.00000796,0.00000419,-0.00001
 261,-0.00000302,0.00002095,-0.00000785,-0.00002059,0.00003067,0.000020
 57,0.00004951,0.00000852,0.00005172,0.00009880,0.00017860,-0.00033057,
 0.00004373,0.00009389,0.00058124,0.00001321,-0.00050965,-0.00038578,0.
 00000430,0.00050472,0.00116526,0.00036413,-0.00015190,-0.00028443,-0.0
 0048339,-0.00087695,-0.00066939,-0.00036426,-0.00040297,0.00001428,-0.
 00018142,0.00078612,-0.00067753,-0.00017996,0.00022846,-0.00012534,0.0
 0150811,-0.00253257,-0.00183391,-0.00018935,0.00210085,-0.01568156,0.0
 2065059,0.00587330,-0.10861878,0.11676839,0.00269915,-0.00593621,0.006
 33739,-0.00000206,0.00000230,-0.00001804,0.00000555,0.00000270,-0.0000
 0560,0.00000101,0.00000060,0.00000482,-0.00000299,0.00001785,0.0000008
 5,0.00000869,0.00000453,-0.00001134,0.00000056,0.00000103,0.00000047,-
 0.00000012,0.00000086,-0.00000097,-0.00000062,-0.00000024,0.00000040,0
 .00000089,-0.00000082,-0.00000170,-0.00000024,0.00000088,0.00000034,-0
 .00000308,-0.00000324,-0.00000149,0.00001961,-0.00000150,-0.00002315,0
 .00013760,-0.00000131,-0.00011607,0.00072951,-0.00069141,-0.00177898,-
 0.00026014,0.00042282,-0.00064993,-0.00071018,0.00992624,-0.01650877,-
 0.00797538,0.12304111,-0.00000154,0.00000241,-0.00000133,0.00000327,-0
 .00000421,0.00000245,-0.00000378,-0.00000083,0.00000555,0.00000845,-0.
 00000206,-0.00000094,0.00000522,0.00000515,-0.00000197,-0.00000528,0.0
 0000725,-0.00000003,0.00000062,-0.00000167,-0.00000112,-0.00000640,0.0
 0000516,-0.00000306,0.00001560,-0.00000964,0.00000687,0.00001406,-0.00
 000995,0.00002765,0.00005946,0.00003381,-0.00000845,0.00007376,0.00012
 052,-0.00008361,-0.00092849,-0.00076375,0.00020017,0.00082969,-0.00038
 982,-0.00002091,0.00024810,0.00031610,-0.00002159,-0.00039799,0.000056
 06,-0.00029380,-0.00013908,0.00047547,-0.00017513,0.00062092,0.0008360
 3,0.00096760,-0.00023606,0.00038976,0.00009127,-0.00029448,-0.00006581
 ,-0.00028030,-0.00025567,-0.00094786,-0.00047488,0.00037132,-0.0011603
 7,0.00014486,0.00129016,-0.00135094,0.00459250,-0.01185384,0.11411572,
 -0.22949767,-0.00216252,0.00104738,-0.00208682,-0.00003869,0.00001415,
 0.00000148,0.00002582,-0.00000285,0.00000271,-0.00000388,0.00000236,-0
 .00000249,0.00000656,0.00002580,-0.00000071,-0.00000178,0.00000877,0.0
 0000556,0.00000079,0.00000162,0.00000065,0.00000019,0.00000015,-0.0000
 0136,-0.00000028,-0.00000129,-0.00000138,-0.00000051,-0.00000128,-0.00
 000518,-0.00000085,0.00000041,0.00000057,-0.00000388,-0.00000828,-0.00
 000437,0.00005006,0.00001051,0.00002272,-0.00002149,-0.00000397,0.0000
 7112,0.00015253,-0.00017367,-0.00049826,0.00022242,0.00066145,0.000070
 61,-0.00064700,0.01207726,-0.02236757,0.01300449,-0.12531507,0.2496186
 1\\0.00000496,-0.00000729,0.00000712,0.00000100,0.00000443,-0.00000327
 ,0.00000039,0.00000094,0.00000643,-0.00000351,0.00000275,-0.00000835,-
 0.00000351,-0.00000674,-0.00000359,0.00000879,0.00000150,-0.00000031,0
 .00000002,-0.00000145,0.00000196,0.00000785,0.00000050,0.00000228,-0.0
 0000071,0.00000791,-0.00000136,0.00000365,-0.00001718,0.00000514,-0.00
 000390,0.00001340,-0.00000198,-0.00000106,-0.00000787,-0.00000190,0.00
 003081,0.00000744,0.00000555,-0.00001261,0.00000484,-0.00000097,0.0000
 0234,-0.00000477,0.00000067,-0.00001295,0.00001809,-0.00000149,-0.0000
 0995,-0.00001479,-0.00000120,0.00002098,-0.00001884,0.00000596,-0.0000
 1165,0.00001266,-0.00000125,-0.00000193,0.00000050,0.00000086,0.000003
 93,0.00000134,0.00000026,-0.00000443,0.00000001,0.00000012,0.00000217,
 0.00000089,-0.00000016,-0.00000062,-0.00000539,0.00000076,-0.00000928,
 0.00000349,-0.00000206,-0.00001284,-0.00000204,-0.00000230,0.00000583,
 0.00000248,0.00000342,0.00000171,0.00000173,0.00000149,0.00000920,-0.0
 0000104,-0.00000025,-0.00000761,-0.00001016,0.00000252,0.00000055,0.00
 000346,-0.00000407,0.00000034,0.00000176,-0.00000271,0.00000072,0.0000
 0190,-0.00000140,0.00000202,0.00000035,-0.00000340,-0.00000112,0.00000
 020,0.00000099,0.00000027,-0.00000039,-0.00000186,-0.00000133,-0.00000
 085,0.00000104,-0.00000300,-0.00000039,0.00000027,-0.00000118,0.000000
 39,-0.00000050,-0.00000158,0.00000162,-0.00000094,-0.00000143,0.000002
 42,-0.00000123,-0.00000134,0.00000217,-0.00000026\\\@


 YOU ARE IN A MAZE OF TWISTY LITTLE PASSAGES.
 Job cpu time:  0 days 22 hours 54 minutes 33.9 seconds.
 File lengths (MBytes):  RWF=   1950 Int=      0 D2E=      0 Chk=     32 Scr=      1
 Normal termination of Gaussian 09 at Sun Dec 29 12:45:09 2013.
