 Entering Gaussian System, Link 0=g09
 Initial command:
 /opt/gaussian/g09/l1.exe /panfs/panfs.cluster/home/shuo/Gau-27521.inp -scrdir=/panfs/panfs.cluster/home/shuo/
 Default is to use a total of  12 processors:
                               12 via shared-memory
                                1 via Linda
 Entering Link 1 = /opt/gaussian/g09/l1.exe PID=     27522.
  
 Copyright (c) 1988,1990,1992,1993,1995,1998,2003,2009,2011,
            Gaussian, Inc.  All Rights Reserved.
  
 This is part of the Gaussian(R) 09 program.  It is based on
 the Gaussian(R) 03 system (copyright 2003, Gaussian, Inc.),
 the Gaussian(R) 98 system (copyright 1998, Gaussian, Inc.),
 the Gaussian(R) 94 system (copyright 1995, Gaussian, Inc.),
 the Gaussian 92(TM) system (copyright 1992, Gaussian, Inc.),
 the Gaussian 90(TM) system (copyright 1990, Gaussian, Inc.),
 the Gaussian 88(TM) system (copyright 1988, Gaussian, Inc.),
 the Gaussian 86(TM) system (copyright 1986, Carnegie Mellon
 University), and the Gaussian 82(TM) system (copyright 1983,
 Carnegie Mellon University). Gaussian is a federally registered
 trademark of Gaussian, Inc.
  
 This software contains proprietary and confidential information,
 including trade secrets, belonging to Gaussian, Inc.
  
 This software is provided under written license and may be
 used, copied, transmitted, or stored only in accord with that
 written license.
  
 The following legend is applicable only to US Government
 contracts under FAR:
  
                    RESTRICTED RIGHTS LEGEND
  
 Use, reproduction and disclosure by the US Government is
 subject to restrictions as set forth in subparagraphs (a)
 and (c) of the Commercial Computer Software - Restricted
 Rights clause in FAR 52.227-19.
  
 Gaussian, Inc.
 340 Quinnipiac St., Bldg. 40, Wallingford CT 06492
  
  
 ---------------------------------------------------------------
 Warning -- This program may not be used in any manner that
 competes with the business of Gaussian, Inc. or will provide
 assistance to any competitor of Gaussian, Inc.  The licensee
 of this program is prohibited from giving any competitor of
 Gaussian, Inc. access to this program.  By using this program,
 the user acknowledges that Gaussian, Inc. is engaged in the
 business of creating and licensing software in the field of
 computational chemistry and represents and warrants to the
 licensee that it is not a competitor of Gaussian, Inc. and that
 it will not use this program in any manner prohibited above.
 ---------------------------------------------------------------
  

 Cite this work as:
 Gaussian 09, Revision C.01,
 M. J. Frisch, G. W. Trucks, H. B. Schlegel, G. E. Scuseria, 
 M. A. Robb, J. R. Cheeseman, G. Scalmani, V. Barone, B. Mennucci, 
 G. A. Petersson, H. Nakatsuji, M. Caricato, X. Li, H. P. Hratchian, 
 A. F. Izmaylov, J. Bloino, G. Zheng, J. L. Sonnenberg, M. Hada, 
 M. Ehara, K. Toyota, R. Fukuda, J. Hasegawa, M. Ishida, T. Nakajima, 
 Y. Honda, O. Kitao, H. Nakai, T. Vreven, J. A. Montgomery, Jr., 
 J. E. Peralta, F. Ogliaro, M. Bearpark, J. J. Heyd, E. Brothers, 
 K. N. Kudin, V. N. Staroverov, T. Keith, R. Kobayashi, J. Normand, 
 K. Raghavachari, A. Rendell, J. C. Burant, S. S. Iyengar, J. Tomasi, 
 M. Cossi, N. Rega, J. M. Millam, M. Klene, J. E. Knox, J. B. Cross, 
 V. Bakken, C. Adamo, J. Jaramillo, R. Gomperts, R. E. Stratmann, 
 O. Yazyev, A. J. Austin, R. Cammi, C. Pomelli, J. W. Ochterski, 
 R. L. Martin, K. Morokuma, V. G. Zakrzewski, G. A. Voth, 
 P. Salvador, J. J. Dannenberg, S. Dapprich, A. D. Daniels, 
 O. Farkas, J. B. Foresman, J. V. Ortiz, J. Cioslowski, 
 and D. J. Fox, Gaussian, Inc., Wallingford CT, 2010.
 
 ******************************************
 Gaussian 09:  EM64L-G09RevC.01 23-Sep-2011
                29-Dec-2013 
 ******************************************
 %chk=34_C23H11N5S3Si.chk
 %NProcShared=12
 Will use up to   12 processors via shared memory.
 %Mem=8000MB
 Default route:  MaxDisk=100GB
 --------------------------------------------
 #B3LYP/6-31++G(d,p) opt scf=direct freq test
 --------------------------------------------
 1/14=-1,18=20,19=15,26=3,38=1/1,3;
 2/9=110,12=2,17=6,18=5,40=1/2;
 3/5=1,6=6,7=1111,11=2,16=1,25=1,30=1,71=1,74=-5/1,2,3;
 4//1;
 5/5=2,38=5/2;
 6/7=2,8=2,9=2,10=2,28=1/1;
 7//1,2,3,16;
 1/14=-1,18=20,19=15/3(2);
 2/9=110/2;
 99//99;
 2/9=110/2;
 3/5=1,6=6,7=1111,11=2,16=1,25=1,30=1,71=1,74=-5/1,2,3;
 4/5=5,16=3/1;
 5/5=2,38=5/2;
 7//1,2,3,16;
 1/14=-1,18=20,19=15/3(-5);
 2/9=110/2;
 6/7=2,8=2,9=2,10=2,19=2,28=1/1;
 99/9=1/99;
 ----------------------------------------------------------------------
 Geom opt of No.34 candidate from the CEPDB database with SMILE code of
  c1cc2c(sc(-c3nccc4nsnc34)c2s1)-c1ncc(s1)-c1ccccc1, HPC, 20131227, Shu
 o Dai, Gaussian09
 ----------------------------------------------------------------------
 Charge =  0 Multiplicity = 1
 Symbolic Z-Matrix:
 C                     2.1576    0.6191   -0.0014 
 C                     1.01377   1.4263    0.00097 
 C                    -0.21849   0.68047  -0.00149 
 C                    -1.56351   0.93719   0.00411 
 S                    -2.39841  -0.54262  -0.01353 
 C                    -0.98254  -1.47947  -0.00385 
 C                    -0.99991  -2.91462  -0.00104 
 N                     0.20253  -3.55767  -0.02153 
 C                     0.29831  -4.90932  -0.02058 
 C                    -0.7635   -5.80194  -0.0009 
 C                    -2.02851  -5.18997   0.01865 
 N                    -3.20879  -5.83706   0.03692 
 S                    -4.39184  -4.67692   0.05383 
 N                    -3.46242  -3.31673   0.04256 
 C                    -2.17921  -3.70377   0.02015 
 C                     0.12742  -0.67582  -0.00314 
 S                     1.89587  -1.09344  -0.00072 
 C                    -2.34825   2.12181   0.02754 
 N                    -3.6742    2.13112  -0.0101 
 C                    -4.13067   3.43186   0.00727 
 C                    -3.12741   4.369     0.03657 
 S                    -1.5999    3.63066   0.13676 
 C                    -3.13015   5.80245  -0.00263 
 C                    -3.70832   6.535     1.02861 
 C                    -3.67208   7.92104   0.96253 
 C                    -2.97688   8.55393  -0.07289 
 C                    -2.30722   7.81286  -1.04244 
 C                    -2.42906   6.43666  -1.03722 
 H                     3.1923    0.93227  -0.00181 
 H                     1.11492   2.50395   0.0039 
 H                     1.32571  -5.26605  -0.03796 
 H                    -0.62665  -6.87014  -0.00154 
 H                    -5.19831   3.63334  -0.03362 
 H                    -4.15252   6.03336   1.88589 
 H                    -4.17002   8.50644   1.72834 
 H                    -2.94721   9.63711  -0.11963 
 H                    -1.69363   8.29103  -1.79867 
 H                    -1.94334   5.84798  -1.81466 
 

 GradGradGradGradGradGradGradGradGradGradGradGradGradGradGradGradGradGrad
 Berny optimization.
 Initialization pass.
                           ----------------------------
                           !    Initial Parameters    !
                           ! (Angstroms and Degrees)  !
 --------------------------                            --------------------------
 ! Name  Definition              Value          Derivative Info.                !
 --------------------------------------------------------------------------------
 ! R1    R(1,2)                  1.4            estimate D2E/DX2                !
 ! R2    R(1,17)                 1.7324         estimate D2E/DX2                !
 ! R3    R(1,29)                 1.0811         estimate D2E/DX2                !
 ! R4    R(2,3)                  1.4404         estimate D2E/DX2                !
 ! R5    R(2,30)                 1.0824         estimate D2E/DX2                !
 ! R6    R(3,4)                  1.3693         estimate D2E/DX2                !
 ! R7    R(3,16)                 1.3997         estimate D2E/DX2                !
 ! R8    R(4,5)                  1.6992         estimate D2E/DX2                !
 ! R9    R(4,18)                 1.4212         estimate D2E/DX2                !
 ! R10   R(5,6)                  1.6978         estimate D2E/DX2                !
 ! R11   R(6,7)                  1.4353         estimate D2E/DX2                !
 ! R12   R(6,16)                 1.3704         estimate D2E/DX2                !
 ! R13   R(7,8)                  1.3637         estimate D2E/DX2                !
 ! R14   R(7,15)                 1.4191         estimate D2E/DX2                !
 ! R15   R(8,9)                  1.355          estimate D2E/DX2                !
 ! R16   R(9,10)                 1.3873         estimate D2E/DX2                !
 ! R17   R(9,31)                 1.0877         estimate D2E/DX2                !
 ! R18   R(10,11)                1.4054         estimate D2E/DX2                !
 ! R19   R(10,32)                1.0769         estimate D2E/DX2                !
 ! R20   R(11,12)                1.3462         estimate D2E/DX2                !
 ! R21   R(11,15)                1.4938         estimate D2E/DX2                !
 ! R22   R(12,13)                1.6571         estimate D2E/DX2                !
 ! R23   R(13,14)                1.6474         estimate D2E/DX2                !
 ! R24   R(14,15)                1.3405         estimate D2E/DX2                !
 ! R25   R(16,17)                1.8171         estimate D2E/DX2                !
 ! R26   R(18,19)                1.3265         estimate D2E/DX2                !
 ! R27   R(18,22)                1.6878         estimate D2E/DX2                !
 ! R28   R(19,20)                1.3786         estimate D2E/DX2                !
 ! R29   R(20,21)                1.3732         estimate D2E/DX2                !
 ! R30   R(20,33)                1.0873         estimate D2E/DX2                !
 ! R31   R(21,22)                1.6996         estimate D2E/DX2                !
 ! R32   R(21,23)                1.434          estimate D2E/DX2                !
 ! R33   R(23,24)                1.3908         estimate D2E/DX2                !
 ! R34   R(23,28)                1.4015         estimate D2E/DX2                !
 ! R35   R(24,25)                1.3881         estimate D2E/DX2                !
 ! R36   R(24,34)                1.0881         estimate D2E/DX2                !
 ! R37   R(25,26)                1.3986         estimate D2E/DX2                !
 ! R38   R(25,35)                1.0849         estimate D2E/DX2                !
 ! R39   R(26,27)                1.392          estimate D2E/DX2                !
 ! R40   R(26,36)                1.0846         estimate D2E/DX2                !
 ! R41   R(27,28)                1.3816         estimate D2E/DX2                !
 ! R42   R(27,37)                1.0849         estimate D2E/DX2                !
 ! R43   R(28,38)                1.0894         estimate D2E/DX2                !
 ! A1    A(2,1,17)             116.5211         estimate D2E/DX2                !
 ! A2    A(2,1,29)             127.95           estimate D2E/DX2                !
 ! A3    A(17,1,29)            115.5287         estimate D2E/DX2                !
 ! A4    A(1,2,3)              113.6046         estimate D2E/DX2                !
 ! A5    A(1,2,30)             119.8486         estimate D2E/DX2                !
 ! A6    A(3,2,30)             126.5469         estimate D2E/DX2                !
 ! A7    A(2,3,4)              138.0083         estimate D2E/DX2                !
 ! A8    A(2,3,16)             106.8769         estimate D2E/DX2                !
 ! A9    A(4,3,16)             115.1137         estimate D2E/DX2                !
 ! A10   A(3,4,5)              108.6218         estimate D2E/DX2                !
 ! A11   A(3,4,18)             134.3253         estimate D2E/DX2                !
 ! A12   A(5,4,18)             117.0519         estimate D2E/DX2                !
 ! A13   A(4,5,6)               94.0566         estimate D2E/DX2                !
 ! A14   A(5,6,7)              122.7984         estimate D2E/DX2                !
 ! A15   A(5,6,16)             110.6022         estimate D2E/DX2                !
 ! A16   A(7,6,16)             126.5991         estimate D2E/DX2                !
 ! A17   A(6,7,8)              117.4386         estimate D2E/DX2                !
 ! A18   A(6,7,15)             124.4802         estimate D2E/DX2                !
 ! A19   A(8,7,15)             118.0812         estimate D2E/DX2                !
 ! A20   A(7,8,9)              122.1858         estimate D2E/DX2                !
 ! A21   A(8,9,10)             125.9956         estimate D2E/DX2                !
 ! A22   A(8,9,31)             113.1973         estimate D2E/DX2                !
 ! A23   A(10,9,31)            120.8071         estimate D2E/DX2                !
 ! A24   A(9,10,11)            114.1388         estimate D2E/DX2                !
 ! A25   A(9,10,32)            122.7475         estimate D2E/DX2                !
 ! A26   A(11,10,32)           123.1137         estimate D2E/DX2                !
 ! A27   A(10,11,12)           125.4556         estimate D2E/DX2                !
 ! A28   A(10,11,15)           121.6036         estimate D2E/DX2                !
 ! A29   A(12,11,15)           112.9407         estimate D2E/DX2                !
 ! A30   A(11,12,13)           106.8322         estimate D2E/DX2                !
 ! A31   A(12,13,14)           100.0901         estimate D2E/DX2                !
 ! A32   A(13,14,15)           107.5645         estimate D2E/DX2                !
 ! A33   A(7,15,11)            117.9948         estimate D2E/DX2                !
 ! A34   A(7,15,14)            129.4332         estimate D2E/DX2                !
 ! A35   A(11,15,14)           112.572          estimate D2E/DX2                !
 ! A36   A(3,16,6)             111.5981         estimate D2E/DX2                !
 ! A37   A(3,16,17)            117.5946         estimate D2E/DX2                !
 ! A38   A(6,16,17)            130.8072         estimate D2E/DX2                !
 ! A39   A(1,17,16)             85.4023         estimate D2E/DX2                !
 ! A40   A(4,18,19)            123.8713         estimate D2E/DX2                !
 ! A41   A(4,18,22)            120.0942         estimate D2E/DX2                !
 ! A42   A(19,18,22)           116.0252         estimate D2E/DX2                !
 ! A43   A(18,19,20)           109.7082         estimate D2E/DX2                !
 ! A44   A(19,20,21)           113.7199         estimate D2E/DX2                !
 ! A45   A(19,20,33)           119.9671         estimate D2E/DX2                !
 ! A46   A(21,20,33)           126.2824         estimate D2E/DX2                !
 ! A47   A(20,21,22)           111.188          estimate D2E/DX2                !
 ! A48   A(20,21,23)           132.8612         estimate D2E/DX2                !
 ! A49   A(22,21,23)           115.9507         estimate D2E/DX2                !
 ! A50   A(18,22,21)            89.2008         estimate D2E/DX2                !
 ! A51   A(21,23,24)           120.4664         estimate D2E/DX2                !
 ! A52   A(21,23,28)           118.1373         estimate D2E/DX2                !
 ! A53   A(24,23,28)           121.1291         estimate D2E/DX2                !
 ! A54   A(23,24,25)           118.6709         estimate D2E/DX2                !
 ! A55   A(23,24,34)           120.7355         estimate D2E/DX2                !
 ! A56   A(25,24,34)           120.5656         estimate D2E/DX2                !
 ! A57   A(24,25,26)           120.0058         estimate D2E/DX2                !
 ! A58   A(24,25,35)           119.5503         estimate D2E/DX2                !
 ! A59   A(26,25,35)           120.4341         estimate D2E/DX2                !
 ! A60   A(25,26,27)           120.923          estimate D2E/DX2                !
 ! A61   A(25,26,36)           119.8312         estimate D2E/DX2                !
 ! A62   A(27,26,36)           119.2426         estimate D2E/DX2                !
 ! A63   A(26,27,28)           119.0285         estimate D2E/DX2                !
 ! A64   A(26,27,37)           121.5299         estimate D2E/DX2                !
 ! A65   A(28,27,37)           119.4417         estimate D2E/DX2                !
 ! A66   A(23,28,27)           119.846          estimate D2E/DX2                !
 ! A67   A(23,28,38)           120.3519         estimate D2E/DX2                !
 ! A68   A(27,28,38)           119.7507         estimate D2E/DX2                !
 ! D1    D(17,1,2,3)            -0.2227         estimate D2E/DX2                !
 ! D2    D(17,1,2,30)          179.8033         estimate D2E/DX2                !
 ! D3    D(29,1,2,3)           179.8989         estimate D2E/DX2                !
 ! D4    D(29,1,2,30)           -0.0751         estimate D2E/DX2                !
 ! D5    D(2,1,17,16)            0.1944         estimate D2E/DX2                !
 ! D6    D(29,1,17,16)        -179.9119         estimate D2E/DX2                !
 ! D7    D(1,2,3,4)            179.6897         estimate D2E/DX2                !
 ! D8    D(1,2,3,16)             0.1077         estimate D2E/DX2                !
 ! D9    D(30,2,3,4)            -0.3384         estimate D2E/DX2                !
 ! D10   D(30,2,3,16)         -179.9204         estimate D2E/DX2                !
 ! D11   D(2,3,4,5)            179.6999         estimate D2E/DX2                !
 ! D12   D(2,3,4,18)            -0.685          estimate D2E/DX2                !
 ! D13   D(16,3,4,5)            -0.7419         estimate D2E/DX2                !
 ! D14   D(16,3,4,18)          178.8731         estimate D2E/DX2                !
 ! D15   D(2,3,16,6)           179.9234         estimate D2E/DX2                !
 ! D16   D(2,3,16,17)            0.0396         estimate D2E/DX2                !
 ! D17   D(4,3,16,6)             0.2323         estimate D2E/DX2                !
 ! D18   D(4,3,16,17)         -179.6515         estimate D2E/DX2                !
 ! D19   D(3,4,5,6)              0.8174         estimate D2E/DX2                !
 ! D20   D(18,4,5,6)          -178.8733         estimate D2E/DX2                !
 ! D21   D(3,4,18,19)          178.0018         estimate D2E/DX2                !
 ! D22   D(3,4,18,22)           -3.146          estimate D2E/DX2                !
 ! D23   D(5,4,18,19)           -2.4078         estimate D2E/DX2                !
 ! D24   D(5,4,18,22)          176.4444         estimate D2E/DX2                !
 ! D25   D(4,5,6,7)            179.4576         estimate D2E/DX2                !
 ! D26   D(4,5,6,16)            -0.7106         estimate D2E/DX2                !
 ! D27   D(5,6,7,8)            178.6554         estimate D2E/DX2                !
 ! D28   D(5,6,7,15)            -1.2772         estimate D2E/DX2                !
 ! D29   D(16,6,7,8)            -1.1486         estimate D2E/DX2                !
 ! D30   D(16,6,7,15)          178.9189         estimate D2E/DX2                !
 ! D31   D(5,6,16,3)             0.3987         estimate D2E/DX2                !
 ! D32   D(5,6,16,17)         -179.7373         estimate D2E/DX2                !
 ! D33   D(7,6,16,3)          -179.7773         estimate D2E/DX2                !
 ! D34   D(7,6,16,17)            0.0866         estimate D2E/DX2                !
 ! D35   D(6,7,8,9)            179.9841         estimate D2E/DX2                !
 ! D36   D(15,7,8,9)            -0.0789         estimate D2E/DX2                !
 ! D37   D(6,7,15,11)          179.9315         estimate D2E/DX2                !
 ! D38   D(6,7,15,14)           -0.0851         estimate D2E/DX2                !
 ! D39   D(8,7,15,11)           -0.0007         estimate D2E/DX2                !
 ! D40   D(8,7,15,14)          179.9827         estimate D2E/DX2                !
 ! D41   D(7,8,9,10)             0.067          estimate D2E/DX2                !
 ! D42   D(7,8,9,31)          -179.9708         estimate D2E/DX2                !
 ! D43   D(8,9,10,11)            0.0316         estimate D2E/DX2                !
 ! D44   D(8,9,10,32)          179.9775         estimate D2E/DX2                !
 ! D45   D(31,9,10,11)        -179.9279         estimate D2E/DX2                !
 ! D46   D(31,9,10,32)           0.018          estimate D2E/DX2                !
 ! D47   D(9,10,11,12)         179.8535         estimate D2E/DX2                !
 ! D48   D(9,10,11,15)          -0.1107         estimate D2E/DX2                !
 ! D49   D(32,10,11,12)         -0.0921         estimate D2E/DX2                !
 ! D50   D(32,10,11,15)        179.9437         estimate D2E/DX2                !
 ! D51   D(10,11,12,13)       -179.9509         estimate D2E/DX2                !
 ! D52   D(15,11,12,13)          0.016          estimate D2E/DX2                !
 ! D53   D(10,11,15,7)           0.0991         estimate D2E/DX2                !
 ! D54   D(10,11,15,14)       -179.887          estimate D2E/DX2                !
 ! D55   D(12,11,15,7)        -179.8693         estimate D2E/DX2                !
 ! D56   D(12,11,15,14)          0.1447         estimate D2E/DX2                !
 ! D57   D(11,12,13,14)         -0.1334         estimate D2E/DX2                !
 ! D58   D(12,13,14,15)          0.217          estimate D2E/DX2                !
 ! D59   D(13,14,15,7)         179.788          estimate D2E/DX2                !
 ! D60   D(13,14,15,11)         -0.228          estimate D2E/DX2                !
 ! D61   D(3,16,17,1)           -0.1325         estimate D2E/DX2                !
 ! D62   D(6,16,17,1)         -179.9898         estimate D2E/DX2                !
 ! D63   D(4,18,19,20)        -179.1194         estimate D2E/DX2                !
 ! D64   D(22,18,19,20)          1.9857         estimate D2E/DX2                !
 ! D65   D(4,18,22,21)         177.7242         estimate D2E/DX2                !
 ! D66   D(19,18,22,21)         -3.3363         estimate D2E/DX2                !
 ! D67   D(18,19,20,21)          0.9678         estimate D2E/DX2                !
 ! D68   D(18,19,20,33)        179.081          estimate D2E/DX2                !
 ! D69   D(19,20,21,22)         -3.4023         estimate D2E/DX2                !
 ! D70   D(19,20,21,23)        176.4748         estimate D2E/DX2                !
 ! D71   D(33,20,21,22)        178.6254         estimate D2E/DX2                !
 ! D72   D(33,20,21,23)         -1.4975         estimate D2E/DX2                !
 ! D73   D(20,21,22,18)          3.668          estimate D2E/DX2                !
 ! D74   D(23,21,22,18)       -176.2319         estimate D2E/DX2                !
 ! D75   D(20,21,23,24)         64.3648         estimate D2E/DX2                !
 ! D76   D(20,21,23,28)       -121.506          estimate D2E/DX2                !
 ! D77   D(22,21,23,24)       -115.7626         estimate D2E/DX2                !
 ! D78   D(22,21,23,28)         58.3666         estimate D2E/DX2                !
 ! D79   D(21,23,24,25)        179.0337         estimate D2E/DX2                !
 ! D80   D(21,23,24,34)          0.9481         estimate D2E/DX2                !
 ! D81   D(28,23,24,25)          5.0822         estimate D2E/DX2                !
 ! D82   D(28,23,24,34)       -173.0034         estimate D2E/DX2                !
 ! D83   D(21,23,28,27)       -174.2131         estimate D2E/DX2                !
 ! D84   D(21,23,28,38)          3.1739         estimate D2E/DX2                !
 ! D85   D(24,23,28,27)         -0.1246         estimate D2E/DX2                !
 ! D86   D(24,23,28,38)        177.2623         estimate D2E/DX2                !
 ! D87   D(23,24,25,26)         -4.7707         estimate D2E/DX2                !
 ! D88   D(23,24,25,35)        176.3665         estimate D2E/DX2                !
 ! D89   D(34,24,25,26)        173.3182         estimate D2E/DX2                !
 ! D90   D(34,24,25,35)         -5.5446         estimate D2E/DX2                !
 ! D91   D(24,25,26,27)         -0.4228         estimate D2E/DX2                !
 ! D92   D(24,25,26,36)       -179.7649         estimate D2E/DX2                !
 ! D93   D(35,25,26,27)        178.4298         estimate D2E/DX2                !
 ! D94   D(35,25,26,36)         -0.9123         estimate D2E/DX2                !
 ! D95   D(25,26,27,28)          5.4033         estimate D2E/DX2                !
 ! D96   D(25,26,27,37)       -174.5578         estimate D2E/DX2                !
 ! D97   D(36,26,27,28)       -175.2507         estimate D2E/DX2                !
 ! D98   D(36,26,27,37)          4.7882         estimate D2E/DX2                !
 ! D99   D(26,27,28,23)         -5.0915         estimate D2E/DX2                !
 ! D100  D(26,27,28,38)        177.5057         estimate D2E/DX2                !
 ! D101  D(37,27,28,23)        174.8704         estimate D2E/DX2                !
 ! D102  D(37,27,28,38)         -2.5324         estimate D2E/DX2                !
 --------------------------------------------------------------------------------
 Trust Radius=3.00D-01 FncErr=1.00D-07 GrdErr=1.00D-06
 Number of steps in this run=    223 maximum allowed number of steps=    228.
 GradGradGradGradGradGradGradGradGradGradGradGradGradGradGradGradGradGrad

                          Input orientation:                          
 ---------------------------------------------------------------------
 Center     Atomic      Atomic             Coordinates (Angstroms)
 Number     Number       Type             X           Y           Z
 ---------------------------------------------------------------------
      1          6           0        2.157600    0.619100   -0.001400
      2          6           0        1.013770    1.426300    0.000970
      3          6           0       -0.218490    0.680470   -0.001490
      4          6           0       -1.563510    0.937190    0.004110
      5         16           0       -2.398410   -0.542620   -0.013530
      6          6           0       -0.982540   -1.479470   -0.003850
      7          6           0       -0.999910   -2.914620   -0.001040
      8          7           0        0.202530   -3.557670   -0.021530
      9          6           0        0.298310   -4.909320   -0.020580
     10          6           0       -0.763500   -5.801940   -0.000900
     11          6           0       -2.028510   -5.189970    0.018650
     12          7           0       -3.208790   -5.837060    0.036920
     13         16           0       -4.391840   -4.676920    0.053830
     14          7           0       -3.462420   -3.316730    0.042560
     15          6           0       -2.179210   -3.703770    0.020150
     16          6           0        0.127420   -0.675820   -0.003140
     17         16           0        1.895870   -1.093440   -0.000720
     18          6           0       -2.348250    2.121810    0.027540
     19          7           0       -3.674200    2.131120   -0.010100
     20          6           0       -4.130670    3.431860    0.007270
     21          6           0       -3.127410    4.369000    0.036570
     22         16           0       -1.599900    3.630660    0.136760
     23          6           0       -3.130150    5.802450   -0.002630
     24          6           0       -3.708320    6.535000    1.028610
     25          6           0       -3.672080    7.921040    0.962530
     26          6           0       -2.976880    8.553930   -0.072890
     27          6           0       -2.307220    7.812860   -1.042440
     28          6           0       -2.429060    6.436660   -1.037220
     29          1           0        3.192300    0.932270   -0.001810
     30          1           0        1.114920    2.503950    0.003900
     31          1           0        1.325710   -5.266050   -0.037960
     32          1           0       -0.626650   -6.870140   -0.001540
     33          1           0       -5.198310    3.633340   -0.033620
     34          1           0       -4.152520    6.033360    1.885890
     35          1           0       -4.170020    8.506440    1.728340
     36          1           0       -2.947210    9.637110   -0.119630
     37          1           0       -1.693630    8.291030   -1.798670
     38          1           0       -1.943340    5.847980   -1.814660
 ---------------------------------------------------------------------
                    Distance matrix (angstroms):
                    1          2          3          4          5
     1  C    0.000000
     2  C    1.399973   0.000000
     3  C    2.376882   1.440393   0.000000
     4  C    3.734685   2.623282   1.369312   0.000000
     5  S    4.701805   3.939521   2.499629   1.699178   0.000000
     6  C    3.776835   3.525447   2.291096   2.485525   1.697784
     7  C    4.738887   4.785237   3.679034   3.892828   2.753605
     8  N    4.611736   5.049611   4.259048   4.829422   3.981894
     9  C    5.832731   6.375926   5.613662   6.135851   5.132292
    10  C    7.054260   7.443530   6.505281   6.786451   5.507589
    11  C    7.160252   7.282226   6.143179   6.144797   4.662159
    12  N    8.395333   8.401649   7.170883   6.971261   5.356338
    13  S    8.422947   8.153080   6.791284   6.286506   4.590287
    14  N    6.861291   6.521836   5.148071   4.658666   2.971691
    15  C    6.123364   6.042608   4.802755   4.681651   3.168920
    16  C    2.407997   2.281346   1.399707   2.336899   2.529361
    17  S    1.732425   2.669680   2.759941   4.011333   4.329481
    18  C    4.749911   3.433310   2.571805   1.421158   2.665219
    19  N    6.024630   4.740670   3.747852   2.425012   2.962522
    20  C    6.888689   5.521555   4.782821   3.579623   4.335626
    21  C    6.480318   5.080366   4.697714   3.771493   4.965678
    22  S    4.817405   3.421829   3.260526   2.696980   4.251643
    23  C    7.404554   6.026838   5.891727   5.111278   6.387134
    24  C    8.394511   7.032282   6.893152   6.081553   7.272869
    25  C    9.393224   8.066191   8.079757   7.357907   8.614434
    26  C    9.451430   8.169079   8.342972   7.747146   9.115118
    27  C    8.530449   7.273639   7.504489   6.994513   8.419086
    28  C    7.480266   6.167222   6.252446   5.663719   7.054022
    29  H    1.081055   2.233846   3.420072   4.755816   5.781996
    30  H    2.154036   1.082391   2.259002   3.103019   4.650310
    31  H    5.943767   6.699729   6.143857   6.843212   6.015019
    32  H    7.990042   8.457062   7.561634   7.863342   6.570905
    33  H    7.949597   6.592584   5.789567   4.525751   5.027771
    34  H    8.526059   7.174153   6.905956   6.017891   7.065990
    35  H   10.258699   8.943370   8.936034   8.189042   9.383933
    36  H   10.363280   9.117089   9.363828   8.810139  10.195065
    37  H    8.770443   7.595606   7.957796   7.572708   9.039735
    38  H    6.888164   5.620700   5.741590   5.250529   6.655143
                    6          7          8          9         10
     6  C    0.000000
     7  C    1.435258   0.000000
     8  N    2.392409   1.363743   0.000000
     9  C    3.661247   2.380039   1.355040   0.000000
    10  C    4.328017   2.896982   2.443438   1.387299   0.000000
    11  C    3.855174   2.497123   2.764698   2.344013   1.405397
    12  N    4.893510   3.663502   4.103186   3.628189   2.445835
    13  S    4.674435   3.822813   4.729338   4.696494   3.799147
    14  N    3.086662   2.495506   3.673420   4.084534   3.669104
    15  C    2.525887   1.419139   2.386581   2.755561   2.531204
    16  C    1.370352   2.506612   2.882887   4.236984   5.202965
    17  S    2.904182   3.420853   2.990027   4.136851   5.407608
    18  C    3.851671   5.213872   6.226185   7.512881   8.080721
    19  N    4.503491   5.710639   6.884148   8.083857   8.450189
    20  C    5.833696   7.076690   8.223806   9.444148   9.828579
    21  C    6.229503   7.588069   8.597905   9.890705  10.442102
    22  S    5.149207   6.574167   7.412550   8.749812   9.470610
    23  C    7.592008   8.973585   9.935742  11.247074  11.843264
    24  C    8.528047   9.883875  10.874720  12.170717  12.725248
    25  C    9.825330  11.201807  12.154907  13.466575  14.060875
    26  C   10.229921  11.637921  12.522066  13.855999  14.525675
    27  C    9.443561  10.856906  11.688886  13.026390  13.741567
    28  C    8.113285   9.516437  10.384774  11.713384  12.394813
    29  H    4.821388   5.689744   5.394319   6.519180   7.810118
    30  H    4.501892   5.816651   6.129954   7.458151   8.515650
    31  H    4.434791   3.307430   2.044594   1.087708   2.157162
    32  H    5.402406   3.973092   3.414732   2.168116   1.076931
    33  H    6.626796   7.778393   8.993322  10.158250  10.425599
    34  H    8.370335   9.672942  10.704792  11.966067  12.454708
    35  H   10.624449  11.978354  12.950830  14.248063  14.809605
    36  H   11.289450  12.702439  13.565865  14.904423  15.593170
    37  H    9.959402  11.370106  12.130348  13.467690  14.237588
    38  H    7.608791   8.997913   9.812560  11.133877  11.849151
                   11         12         13         14         15
    11  C    0.000000
    12  N    1.346150   0.000000
    13  S    2.418633   1.657051   0.000000
    14  N    2.359173   2.533066   1.647442   0.000000
    15  C    1.493822   2.368806   2.417413   1.340496   0.000000
    16  C    5.002605   6.145755   6.036204   4.456843   3.806516
    17  S    5.672979   6.968565   7.237375   5.801393   4.839477
    18  C    7.318773   8.005263   7.099273   5.551515   5.828037
    19  N    7.503831   7.981899   6.846057   5.452219   6.023442
    20  C    8.874410   9.314699   8.113118   6.781686   7.397674
    21  C    9.621944  10.206384   9.133879   7.693030   8.128282
    22  S    8.831827   9.603969   8.764570   7.193336   7.358197
    23  C   11.047505  11.639843  10.555200   9.125343   9.553692
    24  C   11.887670  12.421789  11.274952   9.904007  10.401326
    25  C   13.247295  13.796982  12.651181  11.277312  11.758101
    26  C   13.776885  14.393277  13.306899  11.881147  12.283979
    27  C   13.049030  13.722178  12.709919  11.241863  11.566255
    28  C   11.681345  12.345281  11.338190   9.867237  10.198469
    29  H    8.046061   9.316613   9.433201   7.895649   7.095525
    30  H    8.311304   9.395105   9.049408   7.404988   7.027613
    31  H    3.355560   4.570924   5.748554   5.170350   3.837781
    32  H    2.188285   2.781399   4.357744   4.546456   3.526586
    33  H    9.375562   9.677378   8.349758   7.163979   7.934169
    34  H   11.574158  12.050568  10.868478   9.555014  10.108741
    35  H   13.967847  14.474835  13.291131  11.963691  12.488814
    36  H   14.856158  15.477173  14.387790  12.965096  13.363699
    37  H   13.607063  14.327178  13.374596  11.885236  12.141628
    38  H   11.189487  11.898314  10.966309   9.473583   9.729239
                   16         17         18         19         20
    16  C    0.000000
    17  S    1.817093   0.000000
    18  C    3.735856   5.324583   0.000000
    19  N    4.725598   6.436113   1.326517   0.000000
    20  C    5.916458   7.536417   2.212163   1.378619   0.000000
    21  C    6.003807   7.421117   2.378452   2.304184   1.373179
    22  S    4.642088   5.878472   1.687775   2.563768   2.541867
    23  C    7.251189   8.533122   3.762896   3.711430   2.573098
    24  C    8.232456   9.521532   4.725270   4.524847   3.294085
    25  C    9.448530  10.639115   6.021445   5.871047   4.612544
    26  C    9.738061  10.808360   6.463546   6.460858   5.251024
    27  C    8.891867   9.903198   5.790906   5.934352   4.860043
    28  C    7.628387   8.745385   4.445017   4.598154   3.607667
    29  H    3.461133   2.405043   5.666883   6.970375   7.737824
    30  H    3.329586   3.681184   3.484270   4.803631   5.327029
    31  H    4.744188   4.211549   8.251227   8.928494  10.267802
    32  H    6.240050   6.303441   9.155322   9.503174  10.881610
    33  H    6.850780   8.524724   3.226655   2.140124   1.087254
    34  H    8.179206   9.535911   4.691383   4.364750   3.208971
    35  H   10.284936  11.486617   6.853836   6.626667   5.358637
    36  H   10.762130  11.773456   7.540567   7.541909   6.318371
    37  H    9.324406  10.207126   6.467059   6.713131   5.728186
    38  H    7.080227   8.137151   4.176362   4.479661   3.733829
                   21         22         23         24         25
    21  C    0.000000
    22  S    1.699550   0.000000
    23  C    1.433989   2.660407   0.000000
    24  C    2.452174   3.698111   1.390815   0.000000
    25  C    3.710937   4.835616   2.390323   1.388087   0.000000
    26  C    4.189067   5.116504   2.756641   2.413376   1.398552
    27  C    3.700966   4.402455   2.408354   2.808070   2.427849
    28  C    2.432270   3.152677   1.401473   2.431837   2.783430
    29  H    7.193839   5.501426   7.980729   8.948235   9.843402
    30  H    4.634311   2.942342   5.375943   6.368912   7.292407
    31  H   10.614614   9.367026  11.931791  12.874153  14.137830
    32  H   11.514058  10.546712  12.917509  13.793320  15.132187
    33  H    2.198806   3.602442   2.997213   3.430457   4.658977
    34  H    2.690897   3.917690   2.159877   1.088065   2.155633
    35  H    4.589938   5.736887   3.374781   2.142280   1.084943
    36  H    5.273505   6.161041   3.840804   3.394235   2.154392
    37  H    4.561376   5.047150   3.388566   3.890518   3.416926
    38  H    2.648859   2.973634   2.166574   3.416334   3.872842
                   26         27         28         29         30
    26  C    0.000000
    27  C    1.391997   0.000000
    28  C    2.390161   1.381593   0.000000
    29  H    9.805791   8.869619   7.935368   0.000000
    30  H    7.304176   6.402374   5.395362   2.604941   0.000000
    31  H   14.474300  13.611210  12.330865   6.473379   7.772971
    32  H   15.602263  14.815474  13.468194   8.686886   9.534498
    33  H    5.398935   5.181168   4.066271   8.814711   6.413564
    34  H    3.401797   3.891898   3.417241   9.139525   6.613966
    35  H    2.161080   3.410029   3.868236  10.703515   8.181331
    36  H    1.084594   2.142208   3.369470  10.652779   8.209636
    37  H    2.166602   1.084907   2.135264   9.014009   6.680382
    38  H    3.379961   2.142309   1.089441   7.336582   4.882894
                   31         32         33         34         35
    31  H    0.000000
    32  H    2.527081   0.000000
    33  H   11.034582  11.455313   0.000000
    34  H   12.703892  13.509051   3.246273   0.000000
    35  H   14.933330  15.874104   5.282896   2.478155   0.000000
    36  H   15.503828  16.669980   6.412496   4.296731   2.487704
    37  H   14.000390  15.304548   6.090341   4.971840   4.314940
    38  H   11.720282  12.914010   4.321060   4.313805   4.957657
                   36         37         38
    36  H    0.000000
    37  H    2.490496   0.000000
    38  H    4.270643   2.455831   0.000000
 Stoichiometry    C20H10N4S4
 Framework group  C1[X(C20H10N4S4)]
 Deg. of freedom   108
 Full point group                 C1      NOp   1
 Largest Abelian subgroup         C1      NOp   1
 Largest concise Abelian subgroup C1      NOp   1
                         Standard orientation:                         
 ---------------------------------------------------------------------
 Center     Atomic      Atomic             Coordinates (Angstroms)
 Number     Number       Type             X           Y           Z
 ---------------------------------------------------------------------
      1          6           0       -0.311050    3.892131   -0.132509
      2          6           0        0.620535    2.847732   -0.096398
      3          6           0        0.019110    1.539925   -0.044811
      4          6           0        0.426550    0.233340   -0.001870
      5         16           0       -0.949139   -0.762453    0.053673
      6          6           0       -2.040365    0.536923   -0.003927
      7          6           0       -3.464309    0.357127    0.000725
      8          7           0       -4.239431    1.478974   -0.020227
      9          6           0       -5.593230    1.421042   -0.018299
     10          6           0       -6.359823    0.265030    0.005555
     11          6           0       -5.608492   -0.922425    0.029909
     12          7           0       -6.117713   -2.168219    0.058388
     13         16           0       -4.831024   -3.212151    0.079744
     14          7           0       -3.584878   -2.134974    0.050162
     15          6           0       -4.114788   -0.903883    0.026925
     16          6           0       -1.367635    1.729912   -0.049516
     17         16           0       -1.982914    3.438398   -0.115371
     18          6           0        1.692433   -0.412594   -0.001881
     19          7           0        1.851919   -1.726636    0.084740
     20          6           0        3.195988   -2.033269    0.078089
     21          6           0        4.013421   -0.932177    0.007244
     22         16           0        3.106732    0.497137   -0.145877
     23          6           0        5.437974   -0.771183    0.039708
     24          6           0        6.230762   -1.300773   -0.972906
     25          6           0        7.603808   -1.105440   -0.914797
     26          6           0        8.154413   -0.304943    0.091179
     27          6           0        7.342762    0.312220    1.038802
     28          6           0        5.989222    0.035281    1.044630
     29          1           0       -0.117116    4.954920   -0.171864
     30          1           0        1.679787    3.070031   -0.108187
     31          1           0       -6.064048    2.401390   -0.037243
     32          1           0       -7.436649    0.280018    0.006207
     33          1           0        3.517144   -3.068970    0.157489
     34          1           0        5.782220   -1.830559   -1.810774
     35          1           0        8.241445   -1.562129   -1.664434
     36          1           0        9.227283   -0.151136    0.131643
     37          1           0        7.748741    1.003763    1.769535
     38          1           0        5.349717    0.479899    1.806357
 ---------------------------------------------------------------------
 Rotational constants (GHZ):      0.3248359      0.0626625      0.0532177
 Standard basis: 6-31++G(d,p) (6D, 7F)
 There are   608 symmetry adapted basis functions of A   symmetry.
 Integral buffers will be    131072 words long.
 Raffenetti 2 integral format.
 Two-electron integral symmetry is turned on.
   608 basis functions,  1072 primitive gaussians,   608 cartesian basis functions
   111 alpha electrons      111 beta electrons
       nuclear repulsion energy      2928.0705678515 Hartrees.
 NAtoms=   38 NActive=   38 NUniq=   38 SFac= 1.00D+00 NAtFMM=   60 NAOKFM=F Big=F
 One-electron integrals computed using PRISM.
 NBasis=   608 RedAO= T  NBF=   608
 NBsUse=   601 1.00D-06 NBFU=   601
 Harris functional with IExCor=  402 diagonalized for initial guess.
 ExpMin= 3.60D-02 ExpMax= 2.19D+04 ExpMxC= 3.30D+03 IAcc=3 IRadAn=         5 AccDes= 0.00D+00
 HarFok:  IExCor=  402 AccDes= 0.00D+00 IRadAn=         5 IDoV= 1
 ScaDFX=  1.000000  1.000000  1.000000  1.000000
 FoFCou: FMM=F IPFlag=           0 FMFlag=      100000 FMFlg1=           0
         NFxFlg=           0 DoJE=T BraDBF=F KetDBF=T FulRan=T
         Omega=  0.000000  0.000000  1.000000  0.000000  0.000000 ICntrl=     500 IOpCl=  0
         NMat0=    1 NMatS0=    1 NMatT0=    0 NMatD0=    1 NMtDS0=    0 NMtDT0=    0
         I1Cent=           4 NGrid=           0.
 Petite list used in FoFCou.
 Initial guess orbital symmetries:
       Occupied  (A) (A) (A) (A) (A) (A) (A) (A) (A) (A) (A) (A)
                 (A) (A) (A) (A) (A) (A) (A) (A) (A) (A) (A) (A)
                 (A) (A) (A) (A) (A) (A) (A) (A) (A) (A) (A) (A)
                 (A) (A) (A) (A) (A) (A) (A) (A) (A) (A) (A) (A)
                 (A) (A) (A) (A) (A) (A) (A) (A) (A) (A) (A) (A)
                 (A) (A) (A) (A) (A) (A) (A) (A) (A) (A) (A) (A)
                 (A) (A) (A) (A) (A) (A) (A) (A) (A) (A) (A) (A)
                 (A) (A) (A) (A) (A) (A) (A) (A) (A) (A) (A) (A)
                 (A) (A) (A) (A) (A) (A) (A) (A) (A) (A) (A) (A)
                 (A) (A) (A)
       Virtual   (A) (A) (A) (A) (A) (A) (A) (A) (A) (A) (A) (A)
                 (A) (A) (A) (A) (A) (A) (A) (A) (A) (A) (A) (A)
                 (A) (A) (A) (A) (A) (A) (A) (A) (A) (A) (A) (A)
                 (A) (A) (A) (A) (A) (A) (A) (A) (A) (A) (A) (A)
                 (A) (A) (A) (A) (A) (A) (A) (A) (A) (A) (A) (A)
                 (A) (A) (A) (A) (A) (A) (A) (A) (A) (A) (A) (A)
                 (A) (A) (A) (A) (A) (A) (A) (A) (A) (A) (A) (A)
                 (A) (A) (A) (A) (A) (A) (A) (A) (A) (A) (A) (A)
                 (A) (A) (A) (A) (A) (A) (A) (A) (A) (A) (A) (A)
                 (A) (A) (A) (A) (A) (A) (A) (A) (A) (A) (A) (A)
                 (A) (A) (A) (A) (A) (A) (A) (A) (A) (A) (A) (A)
                 (A) (A) (A) (A) (A) (A) (A) (A) (A) (A) (A) (A)
                 (A) (A) (A) (A) (A) (A) (A) (A) (A) (A) (A) (A)
                 (A) (A) (A) (A) (A) (A) (A) (A) (A) (A) (A) (A)
                 (A) (A) (A) (A) (A) (A) (A) (A) (A) (A) (A) (A)
                 (A) (A) (A) (A) (A) (A) (A) (A) (A) (A) (A) (A)
                 (A) (A) (A) (A) (A) (A) (A) (A) (A) (A) (A) (A)
                 (A) (A) (A) (A) (A) (A) (A) (A) (A) (A) (A) (A)
                 (A) (A) (A) (A) (A) (A) (A) (A) (A) (A) (A) (A)
                 (A) (A) (A) (A) (A) (A) (A) (A) (A) (A) (A) (A)
                 (A) (A) (A) (A) (A) (A) (A) (A) (A) (A) (A) (A)
                 (A) (A) (A) (A) (A) (A) (A) (A) (A) (A) (A) (A)
                 (A) (A) (A) (A) (A) (A) (A) (A) (A) (A) (A) (A)
                 (A) (A) (A) (A) (A) (A) (A) (A) (A) (A) (A) (A)
                 (A) (A) (A) (A) (A) (A) (A) (A) (A) (A) (A) (A)
                 (A) (A) (A) (A) (A) (A) (A) (A) (A) (A) (A) (A)
                 (A) (A) (A) (A) (A) (A) (A) (A) (A) (A) (A) (A)
                 (A) (A) (A) (A) (A) (A) (A) (A) (A) (A) (A) (A)
                 (A) (A) (A) (A) (A) (A) (A) (A) (A) (A) (A) (A)
                 (A) (A) (A) (A) (A) (A) (A) (A) (A) (A) (A) (A)
                 (A) (A) (A) (A) (A) (A) (A) (A) (A) (A) (A) (A)
                 (A) (A) (A) (A) (A) (A) (A) (A) (A) (A) (A) (A)
                 (A) (A) (A) (A) (A) (A) (A) (A) (A) (A) (A) (A)
                 (A) (A) (A) (A) (A) (A) (A) (A) (A) (A) (A) (A)
                 (A) (A) (A) (A) (A) (A) (A) (A) (A) (A) (A) (A)
                 (A) (A) (A) (A) (A) (A) (A) (A) (A) (A) (A) (A)
                 (A) (A) (A) (A) (A) (A) (A) (A) (A) (A) (A) (A)
                 (A) (A) (A) (A) (A) (A) (A) (A) (A) (A) (A) (A)
                 (A) (A) (A) (A) (A) (A) (A) (A) (A) (A) (A) (A)
                 (A) (A) (A) (A) (A) (A) (A) (A) (A) (A) (A) (A)
                 (A) (A) (A) (A) (A) (A) (A) (A) (A) (A)
 The electronic state of the initial guess is 1-A.
 Requested convergence on RMS density matrix=1.00D-08 within 128 cycles.
 Requested convergence on MAX density matrix=1.00D-06.
 Requested convergence on             energy=1.00D-06.
 No special actions if energy rises.
 EnCoef did     2 forward-backward iterations
 Restarting incremental Fock formation.
 SCF Done:  E(RB3LYP) =  -2579.90379599     A.U. after   25 cycles
             Convg  =    0.2317D-08             -V/T =  2.0055

 **********************************************************************

            Population analysis using the SCF density.

 **********************************************************************

 Orbital symmetries:
       Occupied  (A) (A) (A) (A) (A) (A) (A) (A) (A) (A) (A) (A)
                 (A) (A) (A) (A) (A) (A) (A) (A) (A) (A) (A) (A)
                 (A) (A) (A) (A) (A) (A) (A) (A) (A) (A) (A) (A)
                 (A) (A) (A) (A) (A) (A) (A) (A) (A) (A) (A) (A)
                 (A) (A) (A) (A) (A) (A) (A) (A) (A) (A) (A) (A)
                 (A) (A) (A) (A) (A) (A) (A) (A) (A) (A) (A) (A)
                 (A) (A) (A) (A) (A) (A) (A) (A) (A) (A) (A) (A)
                 (A) (A) (A) (A) (A) (A) (A) (A) (A) (A) (A) (A)
                 (A) (A) (A) (A) (A) (A) (A) (A) (A) (A) (A) (A)
                 (A) (A) (A)
       Virtual   (A) (A) (A) (A) (A) (A) (A) (A) (A) (A) (A) (A)
                 (A) (A) (A) (A) (A) (A) (A) (A) (A) (A) (A) (A)
                 (A) (A) (A) (A) (A) (A) (A) (A) (A) (A) (A) (A)
                 (A) (A) (A) (A) (A) (A) (A) (A) (A) (A) (A) (A)
                 (A) (A) (A) (A) (A) (A) (A) (A) (A) (A) (A) (A)
                 (A) (A) (A) (A) (A) (A) (A) (A) (A) (A) (A) (A)
                 (A) (A) (A) (A) (A) (A) (A) (A) (A) (A) (A) (A)
                 (A) (A) (A) (A) (A) (A) (A) (A) (A) (A) (A) (A)
                 (A) (A) (A) (A) (A) (A) (A) (A) (A) (A) (A) (A)
                 (A) (A) (A) (A) (A) (A) (A) (A) (A) (A) (A) (A)
                 (A) (A) (A) (A) (A) (A) (A) (A) (A) (A) (A) (A)
                 (A) (A) (A) (A) (A) (A) (A) (A) (A) (A) (A) (A)
                 (A) (A) (A) (A) (A) (A) (A) (A) (A) (A) (A) (A)
                 (A) (A) (A) (A) (A) (A) (A) (A) (A) (A) (A) (A)
                 (A) (A) (A) (A) (A) (A) (A) (A) (A) (A) (A) (A)
                 (A) (A) (A) (A) (A) (A) (A) (A) (A) (A) (A) (A)
                 (A) (A) (A) (A) (A) (A) (A) (A) (A) (A) (A) (A)
                 (A) (A) (A) (A) (A) (A) (A) (A) (A) (A) (A) (A)
                 (A) (A) (A) (A) (A) (A) (A) (A) (A) (A) (A) (A)
                 (A) (A) (A) (A) (A) (A) (A) (A) (A) (A) (A) (A)
                 (A) (A) (A) (A) (A) (A) (A) (A) (A) (A) (A) (A)
                 (A) (A) (A) (A) (A) (A) (A) (A) (A) (A) (A) (A)
                 (A) (A) (A) (A) (A) (A) (A) (A) (A) (A) (A) (A)
                 (A) (A) (A) (A) (A) (A) (A) (A) (A) (A) (A) (A)
                 (A) (A) (A) (A) (A) (A) (A) (A) (A) (A) (A) (A)
                 (A) (A) (A) (A) (A) (A) (A) (A) (A) (A) (A) (A)
                 (A) (A) (A) (A) (A) (A) (A) (A) (A) (A) (A) (A)
                 (A) (A) (A) (A) (A) (A) (A) (A) (A) (A) (A) (A)
                 (A) (A) (A) (A) (A) (A) (A) (A) (A) (A) (A) (A)
                 (A) (A) (A) (A) (A) (A) (A) (A) (A) (A) (A) (A)
                 (A) (A) (A) (A) (A) (A) (A) (A) (A) (A) (A) (A)
                 (A) (A) (A) (A) (A) (A) (A) (A) (A) (A) (A) (A)
                 (A) (A) (A) (A) (A) (A) (A) (A) (A) (A) (A) (A)
                 (A) (A) (A) (A) (A) (A) (A) (A) (A) (A) (A) (A)
                 (A) (A) (A) (A) (A) (A) (A) (A) (A) (A) (A) (A)
                 (A) (A) (A) (A) (A) (A) (A) (A) (A) (A) (A) (A)
                 (A) (A) (A) (A) (A) (A) (A) (A) (A) (A) (A) (A)
                 (A) (A) (A) (A) (A) (A) (A) (A) (A) (A) (A) (A)
                 (A) (A) (A) (A) (A) (A) (A) (A) (A) (A) (A) (A)
                 (A) (A) (A) (A) (A) (A) (A) (A) (A) (A) (A) (A)
                 (A) (A) (A) (A) (A) (A) (A) (A) (A) (A)
 The electronic state is 1-A.
 Alpha  occ. eigenvalues --  -88.99183 -88.93175 -88.92518 -88.92412 -14.39281
 Alpha  occ. eigenvalues --  -14.38582 -14.35415 -14.34995 -10.26848 -10.26826
 Alpha  occ. eigenvalues --  -10.26443 -10.26328 -10.24376 -10.24148 -10.23632
 Alpha  occ. eigenvalues --  -10.23540 -10.23442 -10.23336 -10.23246 -10.21950
 Alpha  occ. eigenvalues --  -10.21887 -10.21603 -10.21246 -10.20937 -10.20888
 Alpha  occ. eigenvalues --  -10.20876 -10.20840 -10.20781  -8.04463  -7.99359
 Alpha  occ. eigenvalues --   -7.98467  -7.98107  -6.01025  -6.00436  -6.00219
 Alpha  occ. eigenvalues --   -5.95743  -5.95377  -5.95085  -5.94900  -5.94565
 Alpha  occ. eigenvalues --   -5.94474  -5.94223  -5.94188  -5.93752  -1.02955
 Alpha  occ. eigenvalues --   -0.98441  -0.95719  -0.92827  -0.90717  -0.88522
 Alpha  occ. eigenvalues --   -0.85795  -0.83223  -0.81839  -0.80922  -0.78715
 Alpha  occ. eigenvalues --   -0.76844  -0.76143  -0.75322  -0.72918  -0.71017
 Alpha  occ. eigenvalues --   -0.68118  -0.64584  -0.64022  -0.63807  -0.62428
 Alpha  occ. eigenvalues --   -0.60281  -0.59283  -0.58269  -0.55722  -0.55045
 Alpha  occ. eigenvalues --   -0.53739  -0.52429  -0.51724  -0.50092  -0.48464
 Alpha  occ. eigenvalues --   -0.47877  -0.47464  -0.46829  -0.46578  -0.45000
 Alpha  occ. eigenvalues --   -0.44692  -0.44258  -0.44152  -0.43233  -0.42052
 Alpha  occ. eigenvalues --   -0.41898  -0.40725  -0.39781  -0.39603  -0.39446
 Alpha  occ. eigenvalues --   -0.39230  -0.38038  -0.36921  -0.36601  -0.36302
 Alpha  occ. eigenvalues --   -0.35897  -0.35132  -0.34577  -0.33689  -0.31528
 Alpha  occ. eigenvalues --   -0.31038  -0.29984  -0.29270  -0.29190  -0.27747
 Alpha  occ. eigenvalues --   -0.27367  -0.27229  -0.26342  -0.25421  -0.24399
 Alpha  occ. eigenvalues --   -0.20352
 Alpha virt. eigenvalues --   -0.11816  -0.07474  -0.03763  -0.03026  -0.02734
 Alpha virt. eigenvalues --   -0.01858  -0.01517  -0.01278  -0.00856  -0.00647
 Alpha virt. eigenvalues --   -0.00161   0.00187   0.00419   0.00772   0.01270
 Alpha virt. eigenvalues --    0.01473   0.01950   0.02134   0.02269   0.02698
 Alpha virt. eigenvalues --    0.03159   0.03246   0.03505   0.04027   0.04299
 Alpha virt. eigenvalues --    0.04466   0.04665   0.05321   0.05703   0.05947
 Alpha virt. eigenvalues --    0.06279   0.06692   0.06929   0.07014   0.07184
 Alpha virt. eigenvalues --    0.07644   0.07883   0.08175   0.08751   0.09017
 Alpha virt. eigenvalues --    0.09399   0.09539   0.10068   0.10117   0.10484
 Alpha virt. eigenvalues --    0.10654   0.10860   0.10970   0.11313   0.11449
 Alpha virt. eigenvalues --    0.11539   0.11745   0.11864   0.12098   0.12164
 Alpha virt. eigenvalues --    0.12464   0.12646   0.12816   0.12985   0.13201
 Alpha virt. eigenvalues --    0.13328   0.13440   0.13694   0.13967   0.14144
 Alpha virt. eigenvalues --    0.14429   0.14700   0.14911   0.15266   0.15401
 Alpha virt. eigenvalues --    0.15710   0.15884   0.16166   0.16366   0.16733
 Alpha virt. eigenvalues --    0.16831   0.17295   0.17400   0.17438   0.17893
 Alpha virt. eigenvalues --    0.18699   0.19081   0.19312   0.19553   0.19687
 Alpha virt. eigenvalues --    0.20183   0.20335   0.20601   0.20822   0.20930
 Alpha virt. eigenvalues --    0.21131   0.21487   0.21819   0.21910   0.22753
 Alpha virt. eigenvalues --    0.22899   0.22950   0.23245   0.23333   0.23461
 Alpha virt. eigenvalues --    0.23733   0.24170   0.24492   0.24726   0.24840
 Alpha virt. eigenvalues --    0.25046   0.25292   0.25615   0.25899   0.26261
 Alpha virt. eigenvalues --    0.26293   0.26735   0.26871   0.27021   0.27365
 Alpha virt. eigenvalues --    0.27438   0.27675   0.28167   0.28294   0.28610
 Alpha virt. eigenvalues --    0.29026   0.29225   0.29498   0.29654   0.29848
 Alpha virt. eigenvalues --    0.30202   0.30435   0.30953   0.31214   0.31440
 Alpha virt. eigenvalues --    0.31946   0.32075   0.32382   0.32718   0.32959
 Alpha virt. eigenvalues --    0.33415   0.33631   0.33935   0.34043   0.34343
 Alpha virt. eigenvalues --    0.34825   0.35352   0.35722   0.36063   0.36466
 Alpha virt. eigenvalues --    0.37105   0.37310   0.37756   0.37891   0.38996
 Alpha virt. eigenvalues --    0.39031   0.39314   0.40180   0.40403   0.40553
 Alpha virt. eigenvalues --    0.41899   0.42197   0.42953   0.43210   0.43901
 Alpha virt. eigenvalues --    0.44958   0.46263   0.47053   0.48926   0.49376
 Alpha virt. eigenvalues --    0.49670   0.51506   0.52324   0.52739   0.53478
 Alpha virt. eigenvalues --    0.54022   0.54197   0.55297   0.55922   0.57149
 Alpha virt. eigenvalues --    0.59406   0.61255   0.61298   0.61911   0.63235
 Alpha virt. eigenvalues --    0.64042   0.64528   0.65018   0.65445   0.65615
 Alpha virt. eigenvalues --    0.65913   0.66064   0.66597   0.66788   0.67352
 Alpha virt. eigenvalues --    0.67602   0.68062   0.68256   0.68720   0.68788
 Alpha virt. eigenvalues --    0.69709   0.70055   0.70758   0.71475   0.71584
 Alpha virt. eigenvalues --    0.72253   0.72448   0.73363   0.73919   0.74502
 Alpha virt. eigenvalues --    0.74934   0.75293   0.75566   0.75883   0.76299
 Alpha virt. eigenvalues --    0.76554   0.77703   0.78174   0.78559   0.79014
 Alpha virt. eigenvalues --    0.79299   0.80360   0.80981   0.81946   0.82520
 Alpha virt. eigenvalues --    0.83293   0.83821   0.83996   0.84068   0.84337
 Alpha virt. eigenvalues --    0.85330   0.87690   0.88418   0.88605   0.90298
 Alpha virt. eigenvalues --    0.91153   0.92030   0.92309   0.92752   0.93596
 Alpha virt. eigenvalues --    0.93842   0.94531   0.94998   0.95221   0.96785
 Alpha virt. eigenvalues --    0.97483   0.97830   0.98103   0.98481   0.98848
 Alpha virt. eigenvalues --    0.99701   0.99810   1.00228   1.00987   1.01531
 Alpha virt. eigenvalues --    1.02223   1.02611   1.03249   1.04542   1.05170
 Alpha virt. eigenvalues --    1.05278   1.06275   1.06627   1.07704   1.07756
 Alpha virt. eigenvalues --    1.08139   1.09302   1.10462   1.11179   1.11363
 Alpha virt. eigenvalues --    1.12286   1.12949   1.13822   1.14185   1.14556
 Alpha virt. eigenvalues --    1.15014   1.16059   1.16421   1.17381   1.18094
 Alpha virt. eigenvalues --    1.19006   1.19869   1.20158   1.20407   1.21133
 Alpha virt. eigenvalues --    1.21691   1.22913   1.23657   1.25484   1.25739
 Alpha virt. eigenvalues --    1.26554   1.27115   1.27907   1.28667   1.28896
 Alpha virt. eigenvalues --    1.29293   1.29736   1.31370   1.31768   1.32493
 Alpha virt. eigenvalues --    1.32775   1.33829   1.34448   1.34882   1.35592
 Alpha virt. eigenvalues --    1.36183   1.36712   1.37911   1.38171   1.38459
 Alpha virt. eigenvalues --    1.39222   1.40133   1.40401   1.40681   1.42686
 Alpha virt. eigenvalues --    1.43089   1.45330   1.46172   1.46715   1.47303
 Alpha virt. eigenvalues --    1.48729   1.50510   1.51131   1.53194   1.55182
 Alpha virt. eigenvalues --    1.56889   1.58246   1.58637   1.62017   1.64515
 Alpha virt. eigenvalues --    1.66934   1.67765   1.70499   1.71273   1.72835
 Alpha virt. eigenvalues --    1.73623   1.74875   1.77285   1.77569   1.78611
 Alpha virt. eigenvalues --    1.80796   1.81563   1.82762   1.84290   1.84394
 Alpha virt. eigenvalues --    1.85417   1.86062   1.87330   1.88318   1.88593
 Alpha virt. eigenvalues --    1.88695   1.89853   1.91463   1.92584   1.92878
 Alpha virt. eigenvalues --    1.93480   1.94686   1.95172   1.96861   1.97127
 Alpha virt. eigenvalues --    1.97916   1.99151   1.99241   1.99999   2.00522
 Alpha virt. eigenvalues --    2.01532   2.01766   2.03421   2.04435   2.06259
 Alpha virt. eigenvalues --    2.08886   2.11023   2.12601   2.12684   2.13272
 Alpha virt. eigenvalues --    2.15224   2.18701   2.19546   2.20336   2.20685
 Alpha virt. eigenvalues --    2.24152   2.25017   2.26376   2.26868   2.27833
 Alpha virt. eigenvalues --    2.28591   2.29768   2.30980   2.32093   2.32209
 Alpha virt. eigenvalues --    2.32891   2.34907   2.35523   2.36477   2.37369
 Alpha virt. eigenvalues --    2.37578   2.37990   2.38333   2.39893   2.40336
 Alpha virt. eigenvalues --    2.40634   2.42493   2.43163   2.43749   2.45958
 Alpha virt. eigenvalues --    2.46207   2.47024   2.47926   2.48247   2.49102
 Alpha virt. eigenvalues --    2.49842   2.50823   2.51211   2.52308   2.53586
 Alpha virt. eigenvalues --    2.54104   2.55121   2.55472   2.58144   2.58735
 Alpha virt. eigenvalues --    2.59040   2.60188   2.61300   2.62983   2.63755
 Alpha virt. eigenvalues --    2.64375   2.64665   2.66497   2.68274   2.68651
 Alpha virt. eigenvalues --    2.69249   2.71185   2.72113   2.76713   2.78148
 Alpha virt. eigenvalues --    2.78594   2.79494   2.81938   2.83450   2.87512
 Alpha virt. eigenvalues --    2.88952   2.90973   2.94158   2.97155   2.99223
 Alpha virt. eigenvalues --    3.02226   3.02453   3.05037   3.07189   3.10440
 Alpha virt. eigenvalues --    3.11652   3.13074   3.18485   3.22636   3.28702
 Alpha virt. eigenvalues --    3.28857   3.29162   3.31604   3.34218   3.35740
 Alpha virt. eigenvalues --    3.36648   3.45211   3.53883   3.55163   3.64289
 Alpha virt. eigenvalues --    3.72224   3.91466   3.95333   3.98527   3.99807
 Alpha virt. eigenvalues --    4.01181   4.12467   4.20091   4.25408   4.28476
 Alpha virt. eigenvalues --    4.29448   4.30376   4.30727   4.32649   4.35028
 Alpha virt. eigenvalues --    4.37854   4.39971   4.40646   4.43911   4.47155
 Alpha virt. eigenvalues --    4.48092   4.49949   4.52795   4.56906   4.58280
 Alpha virt. eigenvalues --    4.60510   4.64472   4.76483   4.79838   4.86650
          Condensed to atoms (all electrons):
              1          2          3          4          5          6
     1  C    8.193233  -1.664024  -1.189491  -0.555729   0.356231   0.622823
     2  C   -1.664024  14.091801  -3.665073   2.730258   0.306809  -2.155431
     3  C   -1.189491  -3.665073  11.847624  -1.567124  -0.966317   0.126259
     4  C   -0.555729   2.730258  -1.567124  11.410410  -0.734630  -2.962900
     5  S    0.356231   0.306809  -0.966317  -0.734630  18.736642   0.828732
     6  C    0.622823  -2.155431   0.126259  -2.962900   0.828732  11.766564
     7  C    0.189242  -0.364249   0.008550   0.289275   0.210649   1.124067
     8  N    0.031098  -0.033292  -0.080464  -0.058473   0.079145  -0.091980
     9  C   -0.000072  -0.025498  -0.066080   0.162235  -0.012455  -0.337043
    10  C   -0.014833   0.025865   0.045588  -0.219649  -0.021752  -0.126522
    11  C    0.018256  -0.058323  -0.083052   0.089363  -0.988320  -2.702657
    12  N   -0.000065  -0.000495  -0.007186   0.011191   0.034881   0.050265
    13  S    0.000515  -0.003064  -0.009210   0.022798   0.063003   0.005025
    14  N    0.004856  -0.003285  -0.008612   0.058554   0.117360  -0.093401
    15  C    0.001375  -0.302939  -0.312221   0.253642  -1.037849  -0.743682
    16  C    0.474977  -3.595466   1.845436  -1.674371  -0.569057   1.379283
    17  S   -0.165052   0.419116   0.010460   0.131599  -0.134191  -0.629093
    18  C   -0.022830   0.296167   0.420204  -0.500219  -0.644618   0.186906
    19  N    0.017648   0.074929  -0.123505  -0.405561   0.353433   0.057776
    20  C    0.019306   0.166347  -0.009753   0.375880  -0.196950  -0.178526
    21  C   -0.133593  -0.079077  -0.349166   0.181834   0.080444   0.168952
    22  S   -0.305045   0.363491  -0.237643  -0.199001  -0.109405  -0.261495
    23  C   -0.031603  -0.073862   0.086144   0.057393  -0.076408  -0.023451
    24  C   -0.014427  -0.028232   0.015260   0.089938  -0.035419   0.004013
    25  C   -0.001030  -0.000654   0.000162  -0.003773  -0.002435   0.000169
    26  C    0.000428  -0.001374   0.004432  -0.013741   0.000342  -0.000405
    27  C    0.007894   0.029570  -0.036307   0.056149   0.008145   0.002516
    28  C    0.013330  -0.031308   0.062919  -0.269991   0.045955  -0.007751
    29  H    0.306768  -0.053114   0.021326  -0.002281   0.005162   0.010052
    30  H   -0.015400   0.325142  -0.006530  -0.050122  -0.019445   0.029735
    31  H   -0.002990   0.000942   0.001842   0.004731  -0.006719  -0.041108
    32  H   -0.000223   0.000408   0.000871  -0.001869  -0.003841   0.004960
    33  H    0.000113  -0.001796   0.009781   0.022546  -0.015260  -0.007305
    34  H   -0.000795  -0.002054   0.000670  -0.002617  -0.001651  -0.000351
    35  H   -0.000013  -0.000071   0.000080   0.000076  -0.000044   0.000005
    36  H    0.000014   0.000055   0.000002  -0.000150   0.000006  -0.000004
    37  H    0.000022   0.000683  -0.001120   0.001234  -0.000087  -0.000007
    38  H   -0.003635  -0.019372   0.021844  -0.011406  -0.000848  -0.000224
              7          8          9         10         11         12
     1  C    0.189242   0.031098  -0.000072  -0.014833   0.018256  -0.000065
     2  C   -0.364249  -0.033292  -0.025498   0.025865  -0.058323  -0.000495
     3  C    0.008550  -0.080464  -0.066080   0.045588  -0.083052  -0.007186
     4  C    0.289275  -0.058473   0.162235  -0.219649   0.089363   0.011191
     5  S    0.210649   0.079145  -0.012455  -0.021752  -0.988320   0.034881
     6  C    1.124067  -0.091980  -0.337043  -0.126522  -2.702657   0.050265
     7  C    9.347924   0.437623  -1.949454   2.378853  -6.194622   0.130502
     8  N    0.437623   7.128655  -0.301178   0.257744  -0.136563   0.000328
     9  C   -1.949454  -0.301178   8.575429  -4.213677   3.486660   0.063430
    10  C    2.378853   0.257744  -4.213677  18.159497  -6.276356  -0.643998
    11  C   -6.194622  -0.136563   3.486660  -6.276356  22.753802  -0.157056
    12  N    0.130502   0.000328   0.063430  -0.643998  -0.157056   7.376537
    13  S    0.103257  -0.000535  -0.021961  -0.142539  -0.631139   0.096318
    14  N   -0.286611   0.021487   0.116281  -0.108027   0.720549  -0.118512
    15  C    0.900805  -0.099011   0.194505  -3.269277  -3.720600   0.592555
    16  C    0.010618   0.025666  -0.342478   0.449749  -0.100638  -0.002518
    17  S   -0.150204   0.038103   0.041468  -0.049709   0.075590   0.000743
    18  C   -0.133283   0.005396  -0.012593   0.014987  -0.022997  -0.001230
    19  N   -0.008138   0.000270  -0.000357   0.000309  -0.005043  -0.000018
    20  C    0.048516  -0.000299   0.001060  -0.000593   0.004503   0.000011
    21  C   -0.066685   0.000821  -0.001320   0.001305  -0.001749  -0.000032
    22  S   -0.029500  -0.000014   0.000810  -0.001148  -0.003057  -0.000017
    23  C    0.000469  -0.000010   0.000029  -0.000018  -0.000213   0.000001
    24  C   -0.000441  -0.000007  -0.000010   0.000006  -0.000017  -0.000000
    25  C    0.000106  -0.000000   0.000000  -0.000000  -0.000002   0.000000
    26  C    0.000019   0.000000   0.000000  -0.000000   0.000001  -0.000000
    27  C   -0.000149  -0.000000  -0.000001   0.000000  -0.000001   0.000000
    28  C    0.001857   0.000006   0.000025  -0.000013   0.000097   0.000000
    29  H   -0.002756   0.001458   0.000186  -0.000491   0.000112   0.000002
    30  H   -0.001149  -0.000188  -0.000001   0.000146   0.000414   0.000003
    31  H   -0.089880  -0.130100   0.636471  -0.403570   0.201445  -0.000773
    32  H    0.096419   0.016453  -0.261688   0.681513  -0.222993  -0.025251
    33  H    0.001555  -0.000010   0.000037  -0.000029   0.000216   0.000005
    34  H   -0.000030   0.000000   0.000000   0.000000   0.000001  -0.000000
    35  H   -0.000000   0.000000   0.000000  -0.000000  -0.000000   0.000000
    36  H    0.000000  -0.000000   0.000000  -0.000000   0.000000  -0.000000
    37  H   -0.000003  -0.000000  -0.000000   0.000000  -0.000000   0.000000
    38  H    0.000253   0.000001   0.000006  -0.000003   0.000011  -0.000000
             13         14         15         16         17         18
     1  C    0.000515   0.004856   0.001375   0.474977  -0.165052  -0.022830
     2  C   -0.003064  -0.003285  -0.302939  -3.595466   0.419116   0.296167
     3  C   -0.009210  -0.008612  -0.312221   1.845436   0.010460   0.420204
     4  C    0.022798   0.058554   0.253642  -1.674371   0.131599  -0.500219
     5  S    0.063003   0.117360  -1.037849  -0.569057  -0.134191  -0.644618
     6  C    0.005025  -0.093401  -0.743682   1.379283  -0.629093   0.186906
     7  C    0.103257  -0.286611   0.900805   0.010618  -0.150204  -0.133283
     8  N   -0.000535   0.021487  -0.099011   0.025666   0.038103   0.005396
     9  C   -0.021961   0.116281   0.194505  -0.342478   0.041468  -0.012593
    10  C   -0.142539  -0.108027  -3.269277   0.449749  -0.049709   0.014987
    11  C   -0.631139   0.720549  -3.720600  -0.100638   0.075590  -0.022997
    12  N    0.096318  -0.118512   0.592555  -0.002518   0.000743  -0.001230
    13  S   15.580670  -0.164340   0.262628  -0.022987  -0.000289  -0.006533
    14  N   -0.164340   7.805894  -0.579825  -0.028324  -0.005884  -0.012400
    15  C    0.262628  -0.579825  13.599405   0.097960   0.130513  -0.124621
    16  C   -0.022987  -0.028324   0.097960   8.663360  -0.087500  -0.136018
    17  S   -0.000289  -0.005884   0.130513  -0.087500  16.148541   0.048113
    18  C   -0.006533  -0.012400  -0.124621  -0.136018   0.048113   8.451128
    19  N   -0.000131   0.002081  -0.019734  -0.066695  -0.004656   0.275549
    20  C    0.000034  -0.001279   0.024283   0.031810   0.005626   1.079088
    21  C   -0.000580  -0.000315  -0.016881  -0.122351   0.006394  -1.758356
    22  S   -0.000296  -0.001573  -0.030354  -0.336395   0.001911  -1.177076
    23  C    0.000019  -0.000029  -0.001811  -0.008709   0.000865  -0.233242
    24  C    0.000001  -0.000022  -0.000177  -0.007834   0.000631   0.014581
    25  C    0.000001   0.000002  -0.000029  -0.000492   0.000030   0.157212
    26  C   -0.000000  -0.000001   0.000017   0.000841  -0.000012  -0.040440
    27  C   -0.000000   0.000001  -0.000002  -0.003609   0.000025   0.147307
    28  C    0.000001  -0.000006   0.001156   0.028645  -0.000844  -0.139682
    29  H    0.000020   0.000072   0.000012   0.014704  -0.023590  -0.004771
    30  H   -0.000022  -0.000176   0.003963  -0.006819   0.034770   0.016504
    31  H    0.000659   0.003815   0.023693  -0.001183   0.004121  -0.000115
    32  H   -0.003374  -0.010036  -0.020173   0.007704  -0.001155   0.000032
    33  H    0.000015   0.000013   0.001155   0.003261   0.000122   0.104461
    34  H   -0.000000  -0.000004  -0.000015  -0.000398   0.000023  -0.021333
    35  H    0.000000   0.000000  -0.000001  -0.000006   0.000000   0.001102
    36  H   -0.000000  -0.000000   0.000000   0.000008  -0.000001  -0.000592
    37  H   -0.000000   0.000000  -0.000003  -0.000177   0.000005   0.001072
    38  H    0.000001  -0.000002   0.000114   0.003873   0.000030  -0.022473
             19         20         21         22         23         24
     1  C    0.017648   0.019306  -0.133593  -0.305045  -0.031603  -0.014427
     2  C    0.074929   0.166347  -0.079077   0.363491  -0.073862  -0.028232
     3  C   -0.123505  -0.009753  -0.349166  -0.237643   0.086144   0.015260
     4  C   -0.405561   0.375880   0.181834  -0.199001   0.057393   0.089938
     5  S    0.353433  -0.196950   0.080444  -0.109405  -0.076408  -0.035419
     6  C    0.057776  -0.178526   0.168952  -0.261495  -0.023451   0.004013
     7  C   -0.008138   0.048516  -0.066685  -0.029500   0.000469  -0.000441
     8  N    0.000270  -0.000299   0.000821  -0.000014  -0.000010  -0.000007
     9  C   -0.000357   0.001060  -0.001320   0.000810   0.000029  -0.000010
    10  C    0.000309  -0.000593   0.001305  -0.001148  -0.000018   0.000006
    11  C   -0.005043   0.004503  -0.001749  -0.003057  -0.000213  -0.000017
    12  N   -0.000018   0.000011  -0.000032  -0.000017   0.000001  -0.000000
    13  S   -0.000131   0.000034  -0.000580  -0.000296   0.000019   0.000001
    14  N    0.002081  -0.001279  -0.000315  -0.001573  -0.000029  -0.000022
    15  C   -0.019734   0.024283  -0.016881  -0.030354  -0.001811  -0.000177
    16  C   -0.066695   0.031810  -0.122351  -0.336395  -0.008709  -0.007834
    17  S   -0.004656   0.005626   0.006394   0.001911   0.000865   0.000631
    18  C    0.275549   1.079088  -1.758356  -1.177076  -0.233242   0.014581
    19  N    7.073545  -0.319708   0.241909   0.087326  -0.037136   0.030370
    20  C   -0.319708   9.821006  -3.860659  -1.642759  -0.396203  -0.485640
    21  C    0.241909  -3.860659  14.050058   0.786092   0.548710  -1.326301
    22  S    0.087326  -1.642759   0.786092  19.248541  -0.487171  -0.571467
    23  C   -0.037136  -0.396203   0.548710  -0.487171  12.866231  -1.465039
    24  C    0.030370  -0.485640  -1.326301  -0.571467  -1.465039  22.389614
    25  C    0.011522   0.346576   0.673785  -0.223891   0.399159  -4.223185
    26  C   -0.002978  -0.074959  -0.870596   0.147681  -1.278144   0.410981
    27  C    0.010555   0.188207   0.735978  -0.112634   1.658369   1.352876
    28  C   -0.043791   0.143605  -1.837763   0.959191  -5.527241 -10.602656
    29  H    0.000332  -0.001117  -0.000655   0.003462   0.000273  -0.000014
    30  H   -0.004651   0.025597   0.001929  -0.042362  -0.008032  -0.006011
    31  H   -0.000024   0.000026  -0.000035   0.000046   0.000001   0.000000
    32  H    0.000008  -0.000002   0.000009  -0.000016  -0.000000   0.000000
    33  H   -0.123276   0.705935  -0.385950  -0.029783  -0.056194  -0.102572
    34  H   -0.001698  -0.038619  -0.051766  -0.002770   0.008450   0.345418
    35  H   -0.000151   0.004555  -0.000787  -0.006315   0.016456  -0.061425
    36  H    0.000018  -0.000990  -0.009351   0.003948   0.004594   0.030514
    37  H   -0.000095   0.002408   0.013276  -0.010232   0.065580   0.045543
    38  H   -0.001051   0.000954  -0.131925  -0.027855  -0.144354   0.064855
             25         26         27         28         29         30
     1  C   -0.001030   0.000428   0.007894   0.013330   0.306768  -0.015400
     2  C   -0.000654  -0.001374   0.029570  -0.031308  -0.053114   0.325142
     3  C    0.000162   0.004432  -0.036307   0.062919   0.021326  -0.006530
     4  C   -0.003773  -0.013741   0.056149  -0.269991  -0.002281  -0.050122
     5  S   -0.002435   0.000342   0.008145   0.045955   0.005162  -0.019445
     6  C    0.000169  -0.000405   0.002516  -0.007751   0.010052   0.029735
     7  C    0.000106   0.000019  -0.000149   0.001857  -0.002756  -0.001149
     8  N   -0.000000   0.000000  -0.000000   0.000006   0.001458  -0.000188
     9  C    0.000000   0.000000  -0.000001   0.000025   0.000186  -0.000001
    10  C   -0.000000  -0.000000   0.000000  -0.000013  -0.000491   0.000146
    11  C   -0.000002   0.000001  -0.000001   0.000097   0.000112   0.000414
    12  N    0.000000  -0.000000   0.000000   0.000000   0.000002   0.000003
    13  S    0.000001  -0.000000  -0.000000   0.000001   0.000020  -0.000022
    14  N    0.000002  -0.000001   0.000001  -0.000006   0.000072  -0.000176
    15  C   -0.000029   0.000017  -0.000002   0.001156   0.000012   0.003963
    16  C   -0.000492   0.000841  -0.003609   0.028645   0.014704  -0.006819
    17  S    0.000030  -0.000012   0.000025  -0.000844  -0.023590   0.034770
    18  C    0.157212  -0.040440   0.147307  -0.139682  -0.004771   0.016504
    19  N    0.011522  -0.002978   0.010555  -0.043791   0.000332  -0.004651
    20  C    0.346576  -0.074959   0.188207   0.143605  -0.001117   0.025597
    21  C    0.673785  -0.870596   0.735978  -1.837763  -0.000655   0.001929
    22  S   -0.223891   0.147681  -0.112634   0.959191   0.003462  -0.042362
    23  C    0.399159  -1.278144   1.658369  -5.527241   0.000273  -0.008032
    24  C   -4.223185   0.410981   1.352876 -10.602656  -0.000014  -0.006011
    25  C    8.532094  -0.365873   0.520246   0.145373  -0.000067   0.002317
    26  C   -0.365873   6.604912  -1.068174   2.288608   0.000065  -0.002668
    27  C    0.520246  -1.068174   9.601959  -7.104817  -0.000164   0.008025
    28  C    0.145373   2.288608  -7.104817  27.344609   0.000714  -0.020407
    29  H   -0.000067   0.000065  -0.000164   0.000714   0.526305  -0.012681
    30  H    0.002317  -0.002668   0.008025  -0.020407  -0.012681   0.681046
    31  H    0.000000   0.000000  -0.000000   0.000000  -0.000108   0.000050
    32  H   -0.000000   0.000000  -0.000000  -0.000000  -0.000003  -0.000003
    33  H    0.043960  -0.008118   0.010951   0.018412  -0.000015   0.000478
    34  H   -0.130015   0.044288  -0.061027   0.147784   0.000010  -0.000518
    35  H    0.332311  -0.032581   0.005384   0.028289  -0.000000   0.000005
    36  H   -0.069562   0.366431  -0.069315   0.038985   0.000001  -0.000012
    37  H    0.015522  -0.067110   0.410484  -0.195797  -0.000012   0.000271
    38  H   -0.030148   0.089115  -0.268184   0.699652   0.000181  -0.005261
             31         32         33         34         35         36
     1  C   -0.002990  -0.000223   0.000113  -0.000795  -0.000013   0.000014
     2  C    0.000942   0.000408  -0.001796  -0.002054  -0.000071   0.000055
     3  C    0.001842   0.000871   0.009781   0.000670   0.000080   0.000002
     4  C    0.004731  -0.001869   0.022546  -0.002617   0.000076  -0.000150
     5  S   -0.006719  -0.003841  -0.015260  -0.001651  -0.000044   0.000006
     6  C   -0.041108   0.004960  -0.007305  -0.000351   0.000005  -0.000004
     7  C   -0.089880   0.096419   0.001555  -0.000030  -0.000000   0.000000
     8  N   -0.130100   0.016453  -0.000010   0.000000   0.000000  -0.000000
     9  C    0.636471  -0.261688   0.000037   0.000000   0.000000   0.000000
    10  C   -0.403570   0.681513  -0.000029   0.000000  -0.000000  -0.000000
    11  C    0.201445  -0.222993   0.000216   0.000001  -0.000000   0.000000
    12  N   -0.000773  -0.025251   0.000005  -0.000000   0.000000  -0.000000
    13  S    0.000659  -0.003374   0.000015  -0.000000   0.000000  -0.000000
    14  N    0.003815  -0.010036   0.000013  -0.000004   0.000000  -0.000000
    15  C    0.023693  -0.020173   0.001155  -0.000015  -0.000001   0.000000
    16  C   -0.001183   0.007704   0.003261  -0.000398  -0.000006   0.000008
    17  S    0.004121  -0.001155   0.000122   0.000023   0.000000  -0.000001
    18  C   -0.000115   0.000032   0.104461  -0.021333   0.001102  -0.000592
    19  N   -0.000024   0.000008  -0.123276  -0.001698  -0.000151   0.000018
    20  C    0.000026  -0.000002   0.705935  -0.038619   0.004555  -0.000990
    21  C   -0.000035   0.000009  -0.385950  -0.051766  -0.000787  -0.009351
    22  S    0.000046  -0.000016  -0.029783  -0.002770  -0.006315   0.003948
    23  C    0.000001  -0.000000  -0.056194   0.008450   0.016456   0.004594
    24  C    0.000000   0.000000  -0.102572   0.345418  -0.061425   0.030514
    25  C    0.000000  -0.000000   0.043960  -0.130015   0.332311  -0.069562
    26  C    0.000000   0.000000  -0.008118   0.044288  -0.032581   0.366431
    27  C   -0.000000  -0.000000   0.010951  -0.061027   0.005384  -0.069315
    28  C    0.000000  -0.000000   0.018412   0.147784   0.028289   0.038985
    29  H   -0.000108  -0.000003  -0.000015   0.000010  -0.000000   0.000001
    30  H    0.000050  -0.000003   0.000478  -0.000518   0.000005  -0.000012
    31  H    0.664502  -0.023428   0.000001   0.000000  -0.000000   0.000000
    32  H   -0.023428   0.595893  -0.000000   0.000000  -0.000000   0.000000
    33  H    0.000001  -0.000000   0.650379  -0.010048   0.000641  -0.000127
    34  H    0.000000   0.000000  -0.010048   0.623737  -0.009409  -0.002118
    35  H   -0.000000  -0.000000   0.000641  -0.009409   0.617873  -0.014175
    36  H    0.000000   0.000000  -0.000127  -0.002118  -0.014175   0.624895
    37  H   -0.000000  -0.000000   0.000103   0.001239  -0.002660  -0.013942
    38  H    0.000000  -0.000000  -0.001918   0.002096   0.001953  -0.001514
             37         38
     1  C    0.000022  -0.003635
     2  C    0.000683  -0.019372
     3  C   -0.001120   0.021844
     4  C    0.001234  -0.011406
     5  S   -0.000087  -0.000848
     6  C   -0.000007  -0.000224
     7  C   -0.000003   0.000253
     8  N   -0.000000   0.000001
     9  C   -0.000000   0.000006
    10  C    0.000000  -0.000003
    11  C   -0.000000   0.000011
    12  N    0.000000  -0.000000
    13  S   -0.000000   0.000001
    14  N    0.000000  -0.000002
    15  C   -0.000003   0.000114
    16  C   -0.000177   0.003873
    17  S    0.000005   0.000030
    18  C    0.001072  -0.022473
    19  N   -0.000095  -0.001051
    20  C    0.002408   0.000954
    21  C    0.013276  -0.131925
    22  S   -0.010232  -0.027855
    23  C    0.065580  -0.144354
    24  C    0.045543   0.064855
    25  C    0.015522  -0.030148
    26  C   -0.067110   0.089115
    27  C    0.410484  -0.268184
    28  C   -0.195797   0.699652
    29  H   -0.000012   0.000181
    30  H    0.000271  -0.005261
    31  H   -0.000000   0.000000
    32  H   -0.000000  -0.000000
    33  H    0.000103  -0.001918
    34  H    0.001239   0.002096
    35  H   -0.002660   0.001953
    36  H   -0.013942  -0.001514
    37  H    0.621244  -0.020876
    38  H   -0.020876   0.668597
 Mulliken atomic charges:
              1
     1  C   -0.137281
     2  C   -0.669532
     3  C    0.189401
     4  C   -0.715499
     5  S    0.350763
     6  C   -0.004763
     7  C   -0.003406
     8  N   -0.112132
     9  C    0.267232
    10  C   -0.523356
    11  C   -0.045620
    12  N   -0.399621
    13  S    0.872035
[...]
 ,-0.00164013,-0.00016287,0.00012956,-0.00010456,-0.01194506,-0.0143569
 2,0.01148950,-0.17462223,-0.10136361,0.10378148,0.00588209,0.00330111,
 -0.00205942,0.00335655,0.00149877,0.00263072,-0.00037458,0.00089863,-0
 .00036548,-0.00087945,0.00347672,0.00441458,0.00000061,-0.00000075,0.0
 0000168,0.00000120,0.00000014,0.00000641,0.00000304,-0.00000175,0.0000
 0025,-0.00000098,-0.00000034,0.00000015,0.00062484,-0.00010549,0.00033
 135,0.17984826,-0.00001383,-0.00002516,0.00000239,-0.00001570,0.000008
 78,-0.00000007,-0.00001353,0.00004164,0.00000283,0.00003461,-0.0000448
 6,0.00000695,0.00001408,-0.00003040,0.00000331,0.00000089,0.00011556,-
 0.00000736,0.00000031,-0.00011951,0.00000184,-0.00005279,0.00005156,0.
 00000301,0.00001550,-0.00003117,-0.00000033,-0.00000391,0.00001561,-0.
 00000043,0.00000361,0.00001320,0.00000039,-0.00001720,0.00001921,0.000
 00080,0.00002944,-0.00000783,-0.00000210,-0.00001807,-0.00000153,0.000
 00158,0.00002856,0.00000371,-0.00000331,-0.00000231,-0.00002082,0.0000
 0156,0.00001033,0.00000994,-0.00000109,-0.00013326,0.00001551,-0.00000
 562,0.00004226,-0.00011481,0.00008997,0.00030978,-0.00045343,-0.000489
 36,0.00007713,0.00043070,-0.00054728,-0.00016166,0.00024673,0.00003711
 ,0.00963914,0.01050070,-0.00703909,-0.10219868,-0.14535119,0.08121096,
 -0.02251197,-0.01272147,0.01616100,0.00236788,-0.00528089,-0.00032147,
 0.00066303,-0.00045067,-0.00040321,0.00268958,-0.00073890,-0.00111269,
 -0.00000085,0.00000021,0.00000017,0.00000828,0.00000227,-0.00000009,-0
 .00000367,0.00000214,0.00000038,0.00000124,0.00000054,0.00000004,0.000
 15089,-0.00098163,-0.00065163,0.10973970,0.15410435,-0.00000243,0.0000
 0225,-0.00000173,-0.00000350,-0.00000101,-0.00000163,-0.00000848,0.000
 02397,0.00000428,-0.00002485,-0.00000968,0.00003401,0.00000112,-0.0000
 1510,0.00001619,0.00001769,-0.00000832,-0.00000795,-0.00000200,-0.0000
 0415,-0.00000115,-0.00000281,0.00000342,-0.00000228,0.00000258,-0.0000
 0018,0.00000097,-0.00000165,0.00000015,-0.00000023,0.00000115,-0.00000
 094,0.00000111,-0.00000212,0.00000235,-0.00000145,-0.00000102,-0.00000
 764,0.00000286,0.00000077,0.00000614,-0.00000325,0.00000224,0.00000335
 ,0.00000005,-0.00001094,-0.00001169,-0.00000098,-0.00000563,0.00000256
 ,0.00000079,-0.00010688,0.00005186,0.00002610,-0.00046715,-0.00007664,
 -0.00001956,0.00134328,-0.00014702,-0.00015940,-0.00180634,-0.00040464
 ,-0.00208055,-0.00037244,0.00024196,0.00007184,0.00853412,0.00995364,-
 0.00359719,0.10459153,0.08111145,-0.11525959,0.00047767,-0.00139841,0.
 00344151,0.00279772,0.00016454,0.00545622,-0.00056356,-0.00016043,-0.0
 0047874,0.00401204,-0.00211017,0.00376567,-0.00000110,0.00000082,0.000
 00129,0.00000996,0.00000464,0.00000246,-0.00000070,0.00000046,0.000000
 47,0.00000008,0.00000050,0.00000019,-0.00047559,-0.00069200,0.00020511
 ,-0.11580937,-0.08674220,0.11189232,-0.00000780,-0.00002498,-0.0000007
 2,-0.00001936,0.00000441,-0.00000331,0.00000135,0.00002217,0.00000100,
 0.00001728,-0.00001446,0.00000454,0.00000970,-0.00002800,0.00000149,-0
 .00000716,0.00009157,-0.00000160,0.00000134,-0.00009519,-0.00000084,-0
 .00004284,0.00004052,0.00000232,0.00001337,-0.00002488,0.00000004,-0.0
 0000351,0.00001257,-0.00000037,0.00000261,0.00000989,0.00000040,-0.000
 01392,0.00001453,0.00000017,0.00002479,-0.00000644,-0.00000102,-0.0000
 1490,-0.00000104,0.00000004,0.00002189,0.00000325,-0.00000123,0.000004
 16,-0.00000740,-0.00000056,0.00000919,0.00001090,-0.00000029,0.0000434
 5,0.00000659,-0.00001306,-0.00002973,0.00004221,0.00000089,0.00000439,
 0.00004374,-0.00002060,-0.00003647,-0.00020723,0.00019533,0.00000767,-
 0.00004359,-0.00003210,0.00344925,0.00046194,0.00244871,0.00103404,-0.
 00063657,0.00147521,-0.22261883,0.09298478,0.11147716,-0.01197375,0.01
 100353,0.00885903,0.00056417,-0.00336485,0.00444518,0.00010116,-0.0005
 6648,-0.00051863,0.00000031,-0.00000044,0.00000151,0.00000544,0.000000
 50,0.00000233,-0.00000306,0.00000171,0.00000056,0.00000105,0.00000050,
 0.00000016,-0.00000209,-0.00002307,-0.00000098,-0.00065903,-0.00002801
 ,-0.00227872,0.23156196,0.00000544,0.00002777,-0.00000038,0.00002628,-
 0.00000395,-0.00000350,-0.00001178,-0.00002075,-0.00000161,-0.00005610
 ,-0.00001677,0.00003433,0.00000488,0.00002238,0.00000147,0.00000422,-0
 .00011236,0.00000331,0.00000295,0.00010987,-0.00000783,0.00004544,-0.0
 0004585,-0.00000321,-0.00001468,0.00002659,0.00000215,0.00000425,-0.00
 001487,-0.00000027,-0.00000305,-0.00001165,0.00000082,0.00001510,-0.00
 001775,-0.00000082,-0.00002709,0.00000376,0.00000163,0.00001542,0.0000
 0268,-0.00000036,-0.00002530,-0.00000239,0.00000280,-0.00000416,0.0000
 0709,0.00000056,-0.00001003,-0.00001382,0.00000185,0.00012421,-0.00004
 626,-0.00000424,-0.00001308,-0.00010060,-0.00001204,0.00005865,-0.0000
 0412,0.00006446,0.00119837,0.00004883,-0.00060688,-0.00009795,-0.00032
 380,-0.00004422,-0.00011959,-0.00527491,0.00122047,0.02544372,-0.00870
 847,-0.01556423,0.09262557,-0.10871956,-0.05319084,-0.01509782,0.01177
 842,0.00893251,-0.00250116,-0.00164654,0.00230575,-0.00062060,-0.00091
 649,0.00040560,0.00000050,-0.00000020,-0.00000081,-0.00000938,-0.00000
 400,0.00000166,0.00000310,-0.00000193,-0.00000035,-0.00000121,-0.00000
 034,-0.00000020,-0.00000778,-0.00001780,-0.00002399,-0.00047400,0.0009
 7209,-0.00020252,-0.09995014,0.11165878,-0.00000021,0.00001654,-0.0000
 0168,0.00001085,-0.00000318,-0.00000454,-0.00001510,-0.00000873,0.0000
 0529,0.00000249,-0.00002706,-0.00000865,0.00000277,0.00001594,0.000005
 10,0.00000535,-0.00004565,0.00000366,0.00000263,0.00005020,-0.00000245
 ,0.00001887,-0.00001999,-0.00000226,-0.00000791,0.00001134,0.00000061,
 0.00000273,-0.00000649,0.00000014,-0.00000149,-0.00000571,-0.00000011,
 0.00000727,-0.00000913,-0.00000113,-0.00001224,0.00000326,0.00000256,0
 .00000696,0.00000050,-0.00000305,-0.00001229,-0.00000164,0.00000167,-0
 .00000467,-0.00000287,-0.00000188,-0.00000534,-0.00000520,0.00000079,0
 .00002552,0.00001181,-0.00001546,0.00004776,-0.00003729,0.00001843,0.0
 0002174,0.00002226,-0.00006259,0.00003522,-0.00011197,0.00027880,-0.00
 014147,-0.00002567,-0.00006735,0.00239323,0.00128200,0.00574815,-0.000
 63528,0.00118072,0.00353044,0.11191025,-0.05300871,-0.10448279,0.01055
 482,-0.00799619,-0.00282072,0.00445882,0.00260169,0.00388634,-0.000431
 78,0.00051020,-0.00053927,0.00000006,0.00000046,0.00000099,0.00000159,
 0.00000083,0.00000121,0.00000160,-0.00000076,0.00000022,-0.00000052,-0
 .00000017,0.00000030,0.00002686,-0.00002110,-0.00000896,-0.00235434,-0
 .00053691,-0.00262650,-0.12384234,0.05686204,0.10050737,0.00000463,-0.
 00000026,-0.00000246,-0.00000564,-0.00000369,-0.00000068,0.00000079,-0
 .00000305,-0.00000021,0.00000838,0.00001177,-0.00000224,-0.00000403,0.
 00000156,0.00000081,0.00000465,-0.00000859,-0.00000179,-0.00000134,0.0
 0000485,0.00000018,0.00000217,-0.00000107,-0.00000098,0.00000037,0.000
 00136,0.,-0.00000042,-0.00000078,-0.00000004,0.00000067,-0.00000087,0.
 00000044,0.00000030,-0.00000005,-0.00000048,-0.00000197,-0.00000106,0.
 00000064,0.00000156,0.00000195,-0.00000073,-0.00000097,0.00000043,0.00
 000090,-0.00000186,0.00000173,-0.00000073,-0.00000140,0.00000361,0.000
 00119,0.00006222,-0.00009191,-0.00001749,0.00000043,0.00012554,-0.0000
 1493,0.00000051,-0.00010094,-0.00004905,-0.00014428,-0.00012050,-0.000
 52637,-0.00003957,0.00003081,0.00005692,-0.00113091,-0.00012361,0.0002
 0869,-0.00083468,-0.00184670,0.00514643,0.00647622,-0.02209641,-0.0003
 5840,-0.05615940,0.03096181,0.01005929,0.00181097,0.02549961,-0.001427
 73,-0.00179073,0.00157198,0.00542936,-0.00000022,0.00000026,0.00000119
 ,0.00000454,0.00000015,0.00000289,-0.00000008,0.00000007,0.00000015,0.
 00000004,0.00000015,0.00000015,0.00002639,0.00001180,0.00006583,0.0002
 3058,-0.00106832,0.00006440,-0.00043687,0.00025682,-0.00219219,0.05230
 161,0.00000690,0.00002838,-0.00000058,0.00002193,-0.00000499,-0.000002
 45,-0.00000393,-0.00002793,0.00000199,-0.00002288,-0.00000208,0.000006
 05,-0.00000615,0.00003077,-0.00000072,0.00000084,-0.00009989,0.0000012
 6,0.00000058,0.00010658,-0.00000270,0.00004712,-0.00004584,-0.00000349
 ,-0.00001613,0.00002737,0.00000089,0.00000482,-0.00001401,-0.00000009,
 -0.00000345,-0.00001065,0.00000069,0.00001586,-0.00001768,-0.00000127,
 -0.00002657,0.00000940,0.00000242,0.00001559,-0.00000112,-0.00000154,-
 0.00002546,-0.00000411,0.00000289,-0.00000176,0.00001025,0.00000003,-0
 .00000998,-0.00001241,0.00000100,0.00006407,0.00007188,0.00001915,-0.0
 0002656,-0.00002992,-0.00003228,-0.00005016,-0.00008075,0.00001912,0.0
 0000361,0.00009628,-0.00006558,-0.00004304,-0.00002598,-0.00002474,-0.
 00018022,0.00065214,-0.00002112,-0.00270132,0.00025498,0.00229032,0.00
 432374,-0.01308453,-0.00133523,0.03103172,-0.33694710,0.00632453,-0.00
 101820,-0.00895358,0.00163431,0.00243474,0.00109780,-0.00102596,0.0000
 0012,0.00000036,-0.00000014,-0.00000721,0.00000032,-0.00000076,0.00000
 366,-0.00000202,-0.00000027,-0.00000119,-0.00000065,0.00000012,0.00003
 499,0.00001802,0.00002249,0.00025543,-0.00072537,-0.00009211,-0.000361
 65,0.00082624,-0.00018634,-0.03369198,0.35661403,0.00000350,0.00000722
 ,-0.00000403,0.00000100,-0.00000214,0.00000046,-0.00000376,-0.00000481
 ,0.00000295,-0.00000545,-0.00000632,-0.00000984,-0.00000219,0.00000558
 ,-0.00000020,0.00000416,-0.00002549,-0.00000444,-0.00000029,0.00002351
 ,0.00000495,0.00000973,-0.00000880,-0.00000213,-0.00000316,0.00000565,
 -0.00000017,0.00000084,-0.00000341,-0.00000061,-0.00000011,-0.00000252
 ,0.00000059,0.00000284,-0.00000300,-0.00000093,-0.00000631,-0.00000023
 ,0.00000158,0.00000364,0.00000169,-0.00000158,-0.00000499,-0.00000050,
 0.00000084,-0.00000310,0.00000045,-0.00000159,-0.00000404,-0.00000118,
 0.00000155,0.00012620,0.00006921,0.00001008,-0.00016532,0.00006731,-0.
 00003664,0.00012661,-0.00015798,-0.00001021,-0.00045792,-0.00023152,-0
 .00069201,-0.00012964,0.00010411,0.00004993,0.00027831,0.00009228,-0.0
 0098519,0.00505754,0.00187981,0.00359769,-0.00242872,0.01521247,0.0033
 1911,0.01009866,0.00624610,-0.04294697,0.00083343,-0.01476656,0.003856
 97,0.00524861,-0.00068853,0.00381343,-0.00000044,0.00000031,0.00000166
 ,0.00000236,0.00000238,0.00000146,0.00000059,-0.00000033,0.00000020,-0
 .00000020,0.00000002,0.00000044,-0.00003373,-0.00003587,0.00008116,-0.
 00001209,0.00082323,0.00007183,-0.00217892,-0.00053301,-0.00241946,-0.
 01426770,-0.00725880,0.03465658,0.00000464,0.00001960,-0.00000236,0.00
 001115,-0.00000282,-0.00000459,0.00000066,-0.00001942,-0.00000044,-0.0
 0001752,0.00000999,-0.00000670,-0.00000882,0.00001781,0.00000025,0.000
 00573,-0.00007176,0.00000237,-0.00000105,0.00007552,-0.00000049,0.0000
 3377,-0.00003245,-0.00000316,-0.00001059,0.00002000,0.00000019,0.00000
 274,-0.00000989,0.00000026,-0.00000206,-0.00000771,0.00000002,0.000011
 09,-0.00001199,-0.00000146,-0.00001984,0.00000582,0.00000291,0.0000117
 2,0.00000020,-0.00000276,-0.00001775,-0.00000255,0.00000218,-0.0000042
 9,0.00000537,0.00000042,-0.00000732,-0.00000766,0.00000127,0.00002998,
 0.00000520,0.00000602,-0.00000008,0.00000362,0.00001139,-0.00005838,0.
 00003915,-0.00005537,0.00024920,0.00019895,0.00001467,-0.00005079,0.00
 000651,0.00000452,0.00317021,0.00156682,0.00251102,-0.00025626,0.00077
 601,-0.00042373,-0.00083712,0.00373503,0.00470237,-0.01186318,-0.01593
 446,0.01103864,-0.18062776,-0.10550362,0.10056725,0.00578316,0.0036668
 9,-0.00202439,-0.00000014,0.00000108,0.00000077,-0.00000079,0.00000122
 ,0.00000335,0.00000257,-0.00000129,0.00000015,-0.00000080,-0.00000044,
 0.00000036,0.00000298,-0.00000138,0.00000454,-0.00029764,-0.00013649,-
 0.00048086,-0.00067352,-0.00082815,0.00059690,-0.00037244,0.00001390,-
 0.00225115,0.18640725,0.00001978,0.00002506,-0.00000550,0.00002229,-0.
 00001395,-0.00000729,-0.00001808,-0.00003311,0.00000443,-0.00002770,0.
 00000975,0.00000503,-0.00000236,0.00004104,-0.00000219,0.00001030,-0.0
 0011672,0.00000104,-0.00000175,0.00011266,0.00000087,0.00005309,-0.000
 04533,-0.00000526,-0.00001510,0.00002635,0.00000042,0.00000508,-0.0000
 1428,-0.00000034,-0.00000303,-0.00001034,0.00000066,0.00001558,-0.0000
 1486,-0.00000153,-0.00002774,0.00000718,0.00000343,0.00001668,0.000000
 96,-0.00000272,-0.00002421,-0.00000468,0.00000148,-0.00001163,0.000016
 47,0.00000183,-0.00000330,-0.00001159,0.00000160,-0.00007093,-0.000110
 73,-0.00000200,0.00004449,-0.00017466,-0.00007027,0.00024810,-0.000302
 74,0.00003744,-0.00128471,-0.00018811,0.00074820,-0.00011508,0.0000682
 2,-0.00000514,0.00222238,-0.00494879,-0.00037638,0.00075321,-0.0006547
 4,-0.00047798,0.00286566,-0.00041606,-0.00112061,0.01029664,0.01164476
 ,-0.00722049,-0.10518766,-0.14753733,0.07650907,-0.02243403,-0.0128749
 9,0.01583532,0.00000261,-0.00000222,0.00000159,-0.00001021,-0.00000290
 ,0.00000837,0.00000335,-0.00000238,0.00000005,-0.00000112,-0.00000042,
 0.00000037,-0.00000352,0.00000816,-0.00000297,-0.00014497,0.00006587,-
 0.00001197,0.00058953,0.00043891,-0.00040247,-0.00060174,0.00078133,-0
 .00006515,0.11281074,0.15325090,-0.00000452,-0.00001191,-0.00000248,-0
 .00001677,0.00000522,-0.00000578,0.00001928,0.00000654,-0.00000324,-0.
 00000624,0.00002890,0.00000428,-0.00000775,-0.00001983,0.00000190,-0.0
 0000184,0.00003307,0.00000247,-0.00000090,-0.00003607,-0.00000067,-0.0
 0001686,0.00001389,0.00000026,0.00000701,-0.00000742,-0.00000060,-0.00
 000318,0.00000458,0.00000037,0.00000133,0.00000264,-0.00000021,-0.0000
 0567,0.00000542,-0.00000042,0.00000838,-0.00000488,0.00000034,-0.00000
 469,0.00000156,-0.00000081,0.00000778,0.00000300,-0.00000007,0.0000054
 9,-0.00000143,0.00000048,0.00000059,0.00000719,0.00000125,0.00009902,-
 0.00001039,-0.00002076,-0.00012019,0.00009397,0.00001395,-0.00005940,-
 0.00007492,-0.00011204,0.00019392,0.00000087,0.00024646,-0.00002075,0.
 00003523,-0.00001467,0.00262067,-0.00017173,0.00566883,-0.00040220,-0.
 00046666,-0.00044384,0.00478234,-0.00142395,0.00413106,0.00827174,0.00
 939566,-0.00276322,0.10084074,0.07645397,-0.10776877,0.00037318,-0.000
 82433,0.00297837,-0.00000053,0.00000118,0.00000165,0.00000839,0.000002
 32,0.00000750,-0.00000130,0.00000100,0.00000051,0.00000047,0.00000031,
 0.00000024,-0.00001505,-0.00001590,-0.00000816,-0.00050073,-0.00002289
 ,-0.00075999,0.00045565,0.00047648,-0.00017141,-0.00216898,-0.00040245
 ,-0.00248281,-0.11200815,-0.08296477,0.10413795,0.00000464,-0.00001219
 ,-0.00000129,-0.00003695,0.00001045,-0.00001693,0.00003305,0.00000185,
 0.00000769,0.00002925,0.00006399,-0.00005764,-0.00001946,-0.00001920,0
 .00000877,0.00001741,0.00001577,-0.00001129,-0.00000825,-0.00003816,0.
 00000618,-0.00001122,0.00001574,-0.00000132,0.00000921,-0.00000625,-0.
 00000062,-0.00000458,0.00000487,-0.00000092,0.00000315,0.00000309,0.00
 000133,-0.00000666,0.00001025,-0.00000036,0.00000494,-0.00000728,0.000
 00164,-0.00000248,0.00000565,-0.00000334,0.00001119,0.00000251,0.00000
 081,-0.00000880,-0.00000439,0.00000094,-0.00000255,0.00001226,0.000003
 13,0.00002687,-0.00079145,-0.00042721,0.00028804,0.00053195,0.00024409
 ,-0.00031458,-0.00062114,-0.00025570,-0.00073686,0.00147731,-0.0017678
 2,0.00039007,0.00036552,0.00038880,-0.01204767,0.01055785,0.00903270,0
 .00040457,-0.00324675,0.00405570,0.00001159,-0.00077833,-0.00044061,0.
 00363719,0.00061951,0.00239148,0.00090407,-0.00025225,0.00153361,-0.21
 892538,0.08978245,0.11349655,-0.00000243,0.00000363,0.00000321,0.00002
 920,0.00001896,-0.00000443,-0.00000173,0.00000105,0.00000055,0.0000005
 6,0.00000063,0.00000059,0.00005892,0.00005538,0.00006802,-0.00067318,0
 .00055401,0.00057178,-0.00033576,0.00003812,-0.00047709,-0.00001019,-0
 .00008178,0.00016119,-0.00059875,0.00000936,-0.00233029,0.22788355,-0.
 00000703,-0.00003271,0.00000076,-0.00003153,0.00000419,-0.00001152,0.0
 0003461,0.00002860,0.00000317,0.00007453,0.00008759,-0.00003029,-0.000
 02347,-0.00003457,0.00000423,0.00000746,0.00011331,-0.00000030,-0.0000
 0497,-0.00011632,0.00000418,-0.00005024,0.00004800,0.00000297,0.000019
 18,-0.00002561,-0.00000191,-0.00000746,0.00001513,0.00000130,0.0000043
 8,0.00001062,-0.00000106,-0.00001699,0.00001910,0.00000187,0.00002696,
 -0.00000969,-0.00000220,-0.00001427,0.00000241,0.00000102,0.00002661,0
 .00000564,-0.00000368,0.00000761,-0.00001211,-0.00000115,0.00000587,0.
 00001902,0.00000073,-0.00043369,-0.00035636,-0.00011263,0.00016192,0.0
 0003822,0.00001336,0.00009619,0.00015068,-0.00002004,-0.00096098,0.001
 33495,0.00005144,0.00057690,-0.00134980,0.00088165,-0.01429665,0.01010
 927,0.00865349,-0.00245784,-0.00179499,0.00216166,-0.00055390,-0.00079
 405,0.00034123,-0.00030124,-0.00563789,0.00124617,0.02573497,-0.008413
 01,-0.01566365,0.09053258,-0.10716084,-0.05442933,-0.00000227,0.000001
 57,-0.00000020,0.00002131,-0.00000689,0.00001690,-0.00000396,0.0000026
 9,0.00000031,0.00000134,0.00000074,-0.00000023,0.00003033,0.00004623,0
 .00005393,-0.00080078,0.00047932,0.00052273,0.00003959,0.00010175,-0.0
 0010655,0.00127525,-0.00053554,-0.00074517,-0.00040739,0.00098329,-0.0
 0011347,-0.09830295,0.11267806,-0.00000117,0.00002912,-0.00001102,0.00
 002383,0.00001729,-0.00002221,-0.00001129,-0.00002877,0.00001228,-0.00
 011288,-0.00012228,-0.00005402,0.00001470,0.00001653,0.00000054,-0.000
 01981,-0.00008942,-0.00000019,0.00001071,0.00010258,0.00000562,0.00003
 644,-0.00004352,-0.00000741,-0.00001824,0.00002189,0.00000123,0.000007
 27,-0.00001431,-0.00000095,-0.00000435,-0.00001023,0.00000127,0.000015
 09,-0.00002041,-0.00000151,-0.00002271,0.00000798,0.00000437,0.0000100
 0,-0.00000422,-0.00000480,-0.00002569,-0.00000434,0.00000090,0.0000058
 3,-0.00000029,-0.00000380,-0.00001308,-0.00001953,0.00000852,0.0007341
 9,0.00102294,0.00012557,-0.00098109,-0.00006326,0.00008488,-0.00004178
 ,-0.00054608,0.00005791,-0.00122052,-0.00090468,-0.00230142,-0.0003511
 1,0.00091576,-0.00005436,0.01093410,-0.00774789,-0.00336592,0.00377802
 ,0.00297339,0.00346835,-0.00052244,0.00012485,-0.00051938,0.00269324,0
 .00087195,0.00543878,-0.00086556,0.00176813,0.00391171,0.11423045,-0.0
 5461099,-0.10700217,-0.00000075,0.00000199,0.00000559,-0.00001002,0.00
 001045,0.00002241,0.00000361,-0.00000219,0.00000043,-0.00000117,-0.000
 00072,0.00000072,-0.00007845,-0.00007014,0.00004017,0.00067543,-0.0004
 6040,0.00000691,-0.00047640,-0.00011660,-0.00075182,-0.00000629,0.0001
 3136,0.00012536,-0.00220621,-0.00041619,-0.00263795,-0.12618189,0.0572
 8029,0.10341543\\-0.00000463,0.00001054,-0.00000216,0.00000372,-0.0000
 0761,0.00000157,-0.00002398,0.00001063,0.00000052,0.00001497,-0.000014
 72,0.00000049,-0.00000671,0.00001702,0.00000220,0.00001968,-0.00000508
 ,-0.00000204,0.00000054,0.00000546,-0.00000893,0.00000059,0.00001606,0
 .00000127,-0.00000804,-0.00002683,0.00000559,0.00000447,-0.00000013,0.
 00000131,-0.00000560,0.00000699,0.00001348,-0.00000590,0.00000195,-0.0
 0000884,0.00000638,-0.00000315,-0.00000058,-0.00000732,0.00000541,0.00
 000939,0.00000204,-0.00000715,-0.00001212,-0.00001489,-0.00000444,0.00
 000194,0.00000804,-0.00000812,0.00000134,0.00001698,0.00001522,-0.0000
 0347,-0.00001341,0.00000545,-0.00000297,0.00000579,-0.00002002,0.00000
 555,-0.00002041,0.00003252,-0.00000127,0.00000539,-0.00001701,0.000003
 27,0.00000883,-0.00001900,-0.00000414,-0.00000758,0.00000167,0.0000030
 6,0.00000278,-0.00000156,-0.00000081,0.00000250,-0.00000517,0.00000086
 ,0.00000367,0.00000079,0.00000050,0.00000420,0.00000394,-0.00000303,0.
 00000094,-0.00000579,-0.00000012,0.00000021,0.00000014,0.00000029,-0.0
 0000046,0.00000343,-0.00000189,-0.00000067,0.00000102,-0.00000116,-0.0
 0000008,0.00000562,-0.00000110,0.00000436,0.00000059,0.00000171,0.0000
 0146,0.00000202,-0.00000109,0.00000157,0.00000090,-0.00000087,0.000000
 78,0.00000096,0.00000103,-0.00000019,-0.00000255,0.00000120\\\@


 The number of Unix installations has grown to 10,
  with more expected.
                  -- The Unix Programmer's Manual,
                     2nd Edition, June, 1972.
 Job cpu time:  0 days 14 hours 58 minutes 33.2 seconds.
 File lengths (MBytes):  RWF=   1541 Int=      0 D2E=      0 Chk=     26 Scr=      1
 Normal termination of Gaussian 09 at Sun Dec 29 06:06:44 2013.
