 Entering Gaussian System, Link 0=g09
 Initial command:
 /opt/gaussian/g09/l1.exe /panfs/panfs.cluster/home/shuo/Gau-20422.inp -scrdir=/panfs/panfs.cluster/home/shuo/
 Default is to use a total of  12 processors:
                               12 via shared-memory
                                1 via Linda
 Entering Link 1 = /opt/gaussian/g09/l1.exe PID=     20423.
  
 Copyright (c) 1988,1990,1992,1993,1995,1998,2003,2009,2011,
            Gaussian, Inc.  All Rights Reserved.
  
 This is part of the Gaussian(R) 09 program.  It is based on
 the Gaussian(R) 03 system (copyright 2003, Gaussian, Inc.),
 the Gaussian(R) 98 system (copyright 1998, Gaussian, Inc.),
 the Gaussian(R) 94 system (copyright 1995, Gaussian, Inc.),
 the Gaussian 92(TM) system (copyright 1992, Gaussian, Inc.),
 the Gaussian 90(TM) system (copyright 1990, Gaussian, Inc.),
 the Gaussian 88(TM) system (copyright 1988, Gaussian, Inc.),
 the Gaussian 86(TM) system (copyright 1986, Carnegie Mellon
 University), and the Gaussian 82(TM) system (copyright 1983,
 Carnegie Mellon University). Gaussian is a federally registered
 trademark of Gaussian, Inc.
  
 This software contains proprietary and confidential information,
 including trade secrets, belonging to Gaussian, Inc.
  
 This software is provided under written license and may be
 used, copied, transmitted, or stored only in accord with that
 written license.
  
 The following legend is applicable only to US Government
 contracts under FAR:
  
                    RESTRICTED RIGHTS LEGEND
  
 Use, reproduction and disclosure by the US Government is
 subject to restrictions as set forth in subparagraphs (a)
 and (c) of the Commercial Computer Software - Restricted
 Rights clause in FAR 52.227-19.
  
 Gaussian, Inc.
 340 Quinnipiac St., Bldg. 40, Wallingford CT 06492
  
  
 ---------------------------------------------------------------
 Warning -- This program may not be used in any manner that
 competes with the business of Gaussian, Inc. or will provide
 assistance to any competitor of Gaussian, Inc.  The licensee
 of this program is prohibited from giving any competitor of
 Gaussian, Inc. access to this program.  By using this program,
 the user acknowledges that Gaussian, Inc. is engaged in the
 business of creating and licensing software in the field of
 computational chemistry and represents and warrants to the
 licensee that it is not a competitor of Gaussian, Inc. and that
 it will not use this program in any manner prohibited above.
 ---------------------------------------------------------------
  

 Cite this work as:
 Gaussian 09, Revision C.01,
 M. J. Frisch, G. W. Trucks, H. B. Schlegel, G. E. Scuseria, 
 M. A. Robb, J. R. Cheeseman, G. Scalmani, V. Barone, B. Mennucci, 
 G. A. Petersson, H. Nakatsuji, M. Caricato, X. Li, H. P. Hratchian, 
 A. F. Izmaylov, J. Bloino, G. Zheng, J. L. Sonnenberg, M. Hada, 
 M. Ehara, K. Toyota, R. Fukuda, J. Hasegawa, M. Ishida, T. Nakajima, 
 Y. Honda, O. Kitao, H. Nakai, T. Vreven, J. A. Montgomery, Jr., 
 J. E. Peralta, F. Ogliaro, M. Bearpark, J. J. Heyd, E. Brothers, 
 K. N. Kudin, V. N. Staroverov, T. Keith, R. Kobayashi, J. Normand, 
 K. Raghavachari, A. Rendell, J. C. Burant, S. S. Iyengar, J. Tomasi, 
 M. Cossi, N. Rega, J. M. Millam, M. Klene, J. E. Knox, J. B. Cross, 
 V. Bakken, C. Adamo, J. Jaramillo, R. Gomperts, R. E. Stratmann, 
 O. Yazyev, A. J. Austin, R. Cammi, C. Pomelli, J. W. Ochterski, 
 R. L. Martin, K. Morokuma, V. G. Zakrzewski, G. A. Voth, 
 P. Salvador, J. J. Dannenberg, S. Dapprich, A. D. Daniels, 
 O. Farkas, J. B. Foresman, J. V. Ortiz, J. Cioslowski, 
 and D. J. Fox, Gaussian, Inc., Wallingford CT, 2010.
 
 ******************************************
 Gaussian 09:  EM64L-G09RevC.01 23-Sep-2011
                29-Dec-2013 
 ******************************************
 %chk=41_C18H11N5S3Si.chk
 %NProcShared=12
 Will use up to   12 processors via shared memory.
 %Mem=8000MB
 Default route:  MaxDisk=100GB
 --------------------------------------------
 #B3LYP/6-31++G(d,p) opt scf=direct freq test
 --------------------------------------------
 1/14=-1,18=20,19=15,26=3,38=1/1,3;
 2/9=110,12=2,17=6,18=5,40=1/2;
 3/5=1,6=6,7=1111,11=2,16=1,25=1,30=1,71=1,74=-5/1,2,3;
 4//1;
 5/5=2,38=5/2;
 6/7=2,8=2,9=2,10=2,28=1/1;
 7//1,2,3,16;
 1/14=-1,18=20,19=15/3(2);
 2/9=110/2;
 99//99;
 2/9=110/2;
 3/5=1,6=6,7=1111,11=2,16=1,25=1,30=1,71=1,74=-5/1,2,3;
 4/5=5,16=3/1;
 5/5=2,38=5/2;
 7//1,2,3,16;
 1/14=-1,18=20,19=15/3(-5);
 2/9=110/2;
 6/7=2,8=2,9=2,10=2,19=2,28=1/1;
 99/9=1/99;
 ----------------------------------------------------------------------
 Geom opt of No.41 candidate from the CEPDB database with SMILE code of
  C1C=c2ccc3c4nsnc4c4c(oc5cc(-c6nccc7nsnc67)c6nsnc6c45)c3c2=C1, HPC, 20
 131227, Shuo Dai, Gaussian09
 ----------------------------------------------------------------------
 Charge =  0 Multiplicity = 1
 Symbolic Z-Matrix:
 C                     3.16388  -0.41682  -1.18943 
 C                     2.50438  -1.08934   0.05687 
 C                     3.10986  -0.40845   1.01994 
 C                     4.6204   -0.31359   1.38475 
 C                     5.2291    0.54434   0.33529 
 C                     4.8421    1.81027   0.90018 
 C                     5.36852   2.89489  -0.20373 
 N                     6.59451   2.82104  -1.03562 
 S                     7.50748   4.19683  -0.94302 
 N                     7.09651   4.25724   0.71125 
 C                     5.64383   4.06353   0.74916 
 C                     4.47647   3.73253   2.00506 
 C                     2.9394    2.58116   2.44839 
 O                     1.56545   3.24368   2.58827 
 C                     1.92214   4.53492   3.47153 
 C                     0.65207   5.42488   3.06107 
 C                     1.59664   6.4974    3.31518 
 C                     2.00705   6.38771   4.82984 
 N                     2.42507   5.1928    5.53559 
 C                     2.71714   5.04554   6.81355 
 C                     2.82566   6.17311   7.56109 
 C                     2.66166   7.41662   6.88034 
 N                     2.75654   8.64814   7.38659 
 S                     2.47017   9.73379   6.14746 
 N                     2.22041   8.70618   4.90801 
 C                     2.28746   7.51257   5.48626 
 C                     2.80055   5.93918   2.33648 
 N                     2.78446   6.53508   0.86214 
 S                     2.50443   5.12209   1.19941 
 N                     3.66291   5.62428   3.22658 
 C                     4.00924   6.75635   2.54598 
 C                     3.92781   5.17752   2.87424 
 C                     2.98127   1.76481   1.26029 
 C                     2.51753   0.85313   0.26044 
 C                     2.11918   0.55547  -1.03216 
 H                     3.87374  -1.17144  -1.49254 
 H                     3.70774   0.52385  -1.6403 
 H                     1.29901  -0.84006   0.16943 
 H                     5.1452   -1.25636   1.40216 
 H                     4.8643    0.15699   2.38373 
 H                     4.77069   0.8842   -0.55156 
 H                     6.18627   0.27247  -0.08733 
 H                     5.5731    1.91855   1.74084 
 H                     4.57415   3.14557  -0.90514 
 H                     6.64794   2.1939   -1.83723 
 H                     7.44038   5.01932   1.28683 
 H                     5.42179   5.03744   0.21561 
 H                     4.04385   3.92372   0.97036 
 H                     2.66827   2.04346   3.42555 
 H                     1.58544   4.0302    4.38996 
 H                    -0.26598   5.67656   3.57205 
 H                     0.29526   5.06259   2.0763 
 H                     1.41214   7.44765   2.85848 
 H                     2.8092    4.01841   7.18043 
 H                     3.02694   6.10387   8.60636 
 H                     2.96416   4.27439   2.59044 
 H                     3.49749   6.10216   0.24215 
 H                     4.98396   5.53323   3.78777 
 H                     3.69047   7.68367   3.02622 
 H                     4.78228   5.5913    1.82191 
 H                     2.1209    1.08269   1.94337 
 H                     1.78615   0.51549  -2.07157 
 

 GradGradGradGradGradGradGradGradGradGradGradGradGradGradGradGradGradGrad
 Berny optimization.
 Initialization pass.
                           ----------------------------
                           !    Initial Parameters    !
                           ! (Angstroms and Degrees)  !
 --------------------------                            --------------------------
 ! Name  Definition              Value          Derivative Info.                !
 --------------------------------------------------------------------------------
 ! R1    R(1,2)                  1.5622         estimate D2E/DX2                !
 ! R2    R(1,35)                 1.4358         estimate D2E/DX2                !
 ! R3    R(1,36)                 1.0795         estimate D2E/DX2                !
 ! R4    R(1,37)                 1.1764         estimate D2E/DX2                !
 ! R5    R(2,3)                  1.3258         estimate D2E/DX2                !
 ! R6    R(2,38)                 1.236          estimate D2E/DX2                !
 ! R7    R(3,4)                  1.5569         estimate D2E/DX2                !
 ! R8    R(3,34)                 1.5872         estimate D2E/DX2                !
 ! R9    R(4,5)                  1.4859         estimate D2E/DX2                !
 ! R10   R(4,39)                 1.0791         estimate D2E/DX2                !
 ! R11   R(4,40)                 1.1309         estimate D2E/DX2                !
 ! R12   R(5,6)                  1.4393         estimate D2E/DX2                !
 ! R13   R(5,41)                 1.0546         estimate D2E/DX2                !
 ! R14   R(5,42)                 1.0811         estimate D2E/DX2                !
 ! R15   R(6,7)                  1.6347         estimate D2E/DX2                !
 ! R16   R(6,43)                 1.1193         estimate D2E/DX2                !
 ! R17   R(7,8)                  1.4834         estimate D2E/DX2                !
 ! R18   R(7,11)                 1.5328         estimate D2E/DX2                !
 ! R19   R(7,44)                 1.089          estimate D2E/DX2                !
 ! R20   R(8,9)                  1.6537         estimate D2E/DX2                !
 ! R21   R(8,45)                 1.0192         estimate D2E/DX2                !
 ! R22   R(9,10)                 1.7056         estimate D2E/DX2                !
 ! R23   R(10,11)                1.466          estimate D2E/DX2                !
 ! R24   R(10,46)                1.015          estimate D2E/DX2                !
 ! R25   R(11,12)                1.7463         estimate D2E/DX2                !
 ! R26   R(11,47)                1.1325         estimate D2E/DX2                !
 ! R27   R(12,13)                1.971          estimate D2E/DX2                !
 ! R28   R(12,32)                1.7733         estimate D2E/DX2                !
 ! R29   R(12,48)                1.1377         estimate D2E/DX2                !
 ! R30   R(13,14)                1.5317         estimate D2E/DX2                !
 ! R31   R(13,33)                1.4421         estimate D2E/DX2                !
 ! R32   R(13,49)                1.1478         estimate D2E/DX2                !
 ! R33   R(14,15)                1.6046         estimate D2E/DX2                !
 ! R34   R(15,16)                1.6042         estimate D2E/DX2                !
 ! R35   R(15,50)                1.1007         estimate D2E/DX2                !
 ! R36   R(15,56)                1.3892         estimate D2E/DX2                !
 ! R37   R(16,17)                1.4516         estimate D2E/DX2                !
 ! R38   R(16,51)                1.0804         estimate D2E/DX2                !
 ! R39   R(16,52)                1.1083         estimate D2E/DX2                !
 ! R40   R(17,18)                1.5731         estimate D2E/DX2                !
 ! R41   R(17,27)                1.6489         estimate D2E/DX2                !
 ! R42   R(17,53)                1.0703         estimate D2E/DX2                !
 ! R43   R(18,19)                1.4494         estimate D2E/DX2                !
 ! R44   R(18,26)                1.3322         estimate D2E/DX2                !
 ! R45   R(19,20)                1.3192         estimate D2E/DX2                !
 ! R46   R(20,21)                1.3572         estimate D2E/DX2                !
 ! R47   R(20,54)                1.0946         estimate D2E/DX2                !
 ! R48   R(21,22)                1.4271         estimate D2E/DX2                !
 ! R49   R(21,55)                1.0667         estimate D2E/DX2                !
 ! R50   R(22,23)                1.3349         estimate D2E/DX2                !
 ! R51   R(22,26)                1.4466         estimate D2E/DX2                !
 ! R52   R(23,24)                1.6722         estimate D2E/DX2                !
 ! R53   R(24,25)                1.6293         estimate D2E/DX2                !
 ! R54   R(25,26)                1.328          estimate D2E/DX2                !
 ! R55   R(27,28)                1.5903         estimate D2E/DX2                !
 ! R56   R(27,29)                1.4312         estimate D2E/DX2                !
 ! R57   R(27,30)                1.2787         estimate D2E/DX2                !
 ! R58   R(27,31)                1.474          estimate D2E/DX2                !
 ! R59   R(27,32)                1.4629         estimate D2E/DX2                !
 ! R60   R(28,29)                1.4794         estimate D2E/DX2                !
 ! R61   R(28,57)                1.0393         estimate D2E/DX2                !
 ! R62   R(29,56)                1.6926         estimate D2E/DX2                !
 ! R63   R(29,57)                1.6921         estimate D2E/DX2                !
 ! R64   R(30,31)                1.3656         estimate D2E/DX2                !
 ! R65   R(30,32)                0.6276         estimate D2E/DX2                !
 ! R66   R(30,58)                1.4382         estimate D2E/DX2                !
 ! R67   R(30,60)                1.7964         estimate D2E/DX2                !
 ! R68   R(31,32)                1.6146         estimate D2E/DX2                !
 ! R69   R(31,59)                1.0919         estimate D2E/DX2                !
 ! R70   R(31,60)                1.5746         estimate D2E/DX2                !
 ! R71   R(32,56)                1.3509         estimate D2E/DX2                !
 ! R72   R(32,58)                1.441          estimate D2E/DX2                !
 ! R73   R(32,60)                1.4173         estimate D2E/DX2                !
 ! R74   R(33,34)                1.4304         estimate D2E/DX2                !
 ! R75   R(33,61)                1.2931         estimate D2E/DX2                !
 ! R76   R(34,35)                1.385          estimate D2E/DX2                !
 ! R77   R(35,62)                1.0922         estimate D2E/DX2                !
 ! A1    A(2,1,35)              84.0862         estimate D2E/DX2                !
 ! A2    A(2,1,36)             101.577          estimate D2E/DX2                !
 ! A3    A(2,1,37)             147.6886         estimate D2E/DX2                !
 ! A4    A(35,1,37)             80.6118         estimate D2E/DX2                !
 ! A5    A(36,1,37)             98.4736         estimate D2E/DX2                !
 ! A6    A(1,2,3)               99.5339         estimate D2E/DX2                !
 ! A7    A(1,2,38)             113.4234         estimate D2E/DX2                !
 ! A8    A(3,2,38)             106.0002         estimate D2E/DX2                !
 ! A9    A(2,3,4)              130.1367         estimate D2E/DX2                !
 ! A10   A(2,3,34)              83.695          estimate D2E/DX2                !
 ! A11   A(4,3,34)             115.2            estimate D2E/DX2                !
 ! A12   A(3,4,5)              105.4943         estimate D2E/DX2                !
 ! A13   A(3,4,39)             114.9859         estimate D2E/DX2                !
 ! A14   A(3,4,40)             116.2062         estimate D2E/DX2                !
 ! A15   A(5,4,39)             108.457          estimate D2E/DX2                !
 ! A16   A(5,4,40)             107.175          estimate D2E/DX2                !
 ! A17   A(39,4,40)            104.1463         estimate D2E/DX2                !
 ! A18   A(4,5,6)               96.9205         estimate D2E/DX2                !
 ! A19   A(4,5,41)             127.0092         estimate D2E/DX2                !
 ! A20   A(4,5,42)             119.5778         estimate D2E/DX2                !
 ! A21   A(6,5,41)              85.97           estimate D2E/DX2                !
 ! A22   A(6,5,42)             127.7856         estimate D2E/DX2                !
 ! A23   A(41,5,42)             97.8836         estimate D2E/DX2                !
 ! A24   A(5,6,7)              103.4127         estimate D2E/DX2                !
 ! A25   A(5,6,43)             101.7865         estimate D2E/DX2                !
 ! A26   A(7,6,43)             103.456          estimate D2E/DX2                !
 ! A27   A(6,7,8)              127.7216         estimate D2E/DX2                !
 ! A28   A(6,7,11)              98.2734         estimate D2E/DX2                !
 ! A29   A(6,7,44)             110.6586         estimate D2E/DX2                !
 ! A30   A(8,7,11)             103.7766         estimate D2E/DX2                !
 ! A31   A(8,7,44)             104.6629         estimate D2E/DX2                !
 ! A32   A(11,7,44)            110.8505         estimate D2E/DX2                !
 ! A33   A(7,8,9)              112.5469         estimate D2E/DX2                !
 ! A34   A(7,8,45)             120.9997         estimate D2E/DX2                !
 ! A35   A(9,8,45)             121.8036         estimate D2E/DX2                !
 ! A36   A(8,9,10)              87.1773         estimate D2E/DX2                !
 ! A37   A(9,10,11)            105.02           estimate D2E/DX2                !
 ! A38   A(9,10,46)            119.6659         estimate D2E/DX2                !
 ! A39   A(11,10,46)           114.8491         estimate D2E/DX2                !
 ! A40   A(7,11,10)            105.2268         estimate D2E/DX2                !
 ! A41   A(7,11,12)            100.5159         estimate D2E/DX2                !
 ! A42   A(7,11,47)            109.121          estimate D2E/DX2                !
 ! A43   A(10,11,12)           134.9128         estimate D2E/DX2                !
 ! A44   A(10,11,47)            93.9259         estimate D2E/DX2                !
 ! A45   A(12,11,47)           111.7632         estimate D2E/DX2                !
 ! A46   A(11,12,13)           142.5417         estimate D2E/DX2                !
 ! A47   A(11,12,32)           113.8839         estimate D2E/DX2                !
 ! A48   A(11,12,48)            64.4224         estimate D2E/DX2                !
 ! A49   A(13,12,32)            97.1505         estimate D2E/DX2                !
 ! A50   A(13,12,48)            90.3546         estimate D2E/DX2                !
 ! A51   A(32,12,48)           101.0223         estimate D2E/DX2                !
 ! A52   A(12,13,14)           117.8649         estimate D2E/DX2                !
 ! A53   A(12,13,33)            97.0495         estimate D2E/DX2                !
 ! A54   A(12,13,49)           130.4927         estimate D2E/DX2                !
 ! A55   A(14,13,33)           110.25           estimate D2E/DX2                !
 ! A56   A(14,13,49)            85.0087         estimate D2E/DX2                !
 ! A57   A(33,13,49)           116.2979         estimate D2E/DX2                !
 ! A58   A(13,14,15)           101.4748         estimate D2E/DX2                !
 ! A59   A(14,15,16)            97.446          estimate D2E/DX2                !
 ! A60   A(14,15,50)            91.2782         estimate D2E/DX2                !
 ! A61   A(14,15,56)            70.5313         estimate D2E/DX2                !
 ! A62   A(16,15,50)           103.0432         estimate D2E/DX2                !
 ! A63   A(16,15,56)           122.3836         estimate D2E/DX2                !
 ! A64   A(50,15,56)           132.2699         estimate D2E/DX2                !
 ! A65   A(15,16,17)            81.3688         estimate D2E/DX2                !
 ! A66   A(15,16,51)           132.918          estimate D2E/DX2                !
 ! A67   A(15,16,52)           107.5104         estimate D2E/DX2                !
 ! A68   A(17,16,51)           107.3389         estimate D2E/DX2                !
 ! A69   A(17,16,52)           127.3414         estimate D2E/DX2                !
 ! A70   A(51,16,52)           102.8748         estimate D2E/DX2                !
 ! A71   A(16,17,18)           106.6665         estimate D2E/DX2                !
 ! A72   A(16,17,27)            96.9538         estimate D2E/DX2                !
 ! A73   A(16,17,53)           117.9766         estimate D2E/DX2                !
 ! A74   A(18,17,27)           110.9409         estimate D2E/DX2                !
 ! A75   A(18,17,53)           121.1793         estimate D2E/DX2                !
 ! A76   A(27,17,53)            99.9715         estimate D2E/DX2                !
 ! A77   A(17,18,19)           126.9832         estimate D2E/DX2                !
 ! A78   A(17,18,26)           118.0639         estimate D2E/DX2                !
 ! A79   A(19,18,26)           113.2959         estimate D2E/DX2                !
 ! A80   A(18,19,20)           128.8751         estimate D2E/DX2                !
 ! A81   A(19,20,21)           117.2937         estimate D2E/DX2                !
 ! A82   A(19,20,54)           116.6214         estimate D2E/DX2                !
 ! A83   A(21,20,54)           126.0348         estimate D2E/DX2                !
 ! A84   A(20,21,22)           116.8718         estimate D2E/DX2                !
 ! A85   A(20,21,55)           120.0581         estimate D2E/DX2                !
 ! A86   A(22,21,55)           123.07           estimate D2E/DX2                !
 ! A87   A(21,22,23)           127.9375         estimate D2E/DX2                !
 ! A88   A(21,22,26)           123.1759         estimate D2E/DX2                !
 ! A89   A(23,22,26)           108.8243         estimate D2E/DX2                !
 ! A90   A(22,23,24)           107.8045         estimate D2E/DX2                !
 ! A91   A(23,24,25)           100.3985         estimate D2E/DX2                !
 ! A92   A(24,25,26)           103.1735         estimate D2E/DX2                !
 ! A93   A(18,26,22)           118.247          estimate D2E/DX2                !
 ! A94   A(18,26,25)           122.2577         estimate D2E/DX2                !
 ! A95   A(22,26,25)           119.4914         estimate D2E/DX2                !
 ! A96   A(17,27,28)           114.5841         estimate D2E/DX2                !
 ! A97   A(17,27,29)           120.9165         estimate D2E/DX2                !
 ! A98   A(17,27,30)            99.3581         estimate D2E/DX2                !
 ! A99   A(17,27,31)           109.067          estimate D2E/DX2                !
 ! A100  A(17,27,32)           121.3788         estimate D2E/DX2                !
 ! A101  A(28,27,30)           138.1108         estimate D2E/DX2                !
 ! A102  A(28,27,31)            86.1196         estimate D2E/DX2                !
 ! A103  A(28,27,32)           122.9353         estimate D2E/DX2                !
 ! A104  A(29,27,30)           123.5034         estimate D2E/DX2                !
 ! A105  A(29,27,31)           126.8065         estimate D2E/DX2                !
 ! A106  A(29,27,32)            98.8729         estimate D2E/DX2                !
 ! A107  A(27,28,57)           112.9551         estimate D2E/DX2                !
 ! A108  A(27,29,56)            64.9626         estimate D2E/DX2                !
 ! A109  A(27,29,57)            89.8486         estimate D2E/DX2                !
 ! A110  A(28,29,56)           127.8995         estimate D2E/DX2                !
 ! A111  A(56,29,57)           126.5568         estimate D2E/DX2                !
 ! A112  A(27,30,58)           155.0499         estimate D2E/DX2                !
 ! A113  A(27,30,60)            83.1341         estimate D2E/DX2                !
 ! A114  A(31,30,58)            90.8024         estimate D2E/DX2                !
 ! A115  A(58,30,60)            74.4305         estimate D2E/DX2                !
 ! A116  A(27,31,59)           107.0953         estimate D2E/DX2                !
 ! A117  A(27,31,60)            85.8149         estimate D2E/DX2                !
 ! A118  A(30,31,59)           114.2566         estimate D2E/DX2                !
 ! A119  A(32,31,59)           136.5785         estimate D2E/DX2                !
 ! A120  A(12,32,27)           118.8492         estimate D2E/DX2                !
 ! A121  A(12,32,31)           132.9642         estimate D2E/DX2                !
 ! A122  A(12,32,56)            64.7195         estimate D2E/DX2                !
 ! A123  A(12,32,58)           106.5656         estimate D2E/DX2                !
 ! A124  A(12,32,60)            71.7858         estimate D2E/DX2                !
 ! A125  A(27,32,56)            73.8092         estimate D2E/DX2                !
 ! A126  A(27,32,58)           132.0123         estimate D2E/DX2                !
 ! A127  A(27,32,60)            92.2707         estimate D2E/DX2                !
 ! A128  A(30,32,56)           107.023          estimate D2E/DX2                !
 ! A129  A(31,32,56)           130.3155         estimate D2E/DX2                !
 ! A130  A(31,32,58)            81.4049         estimate D2E/DX2                !
 ! A131  A(56,32,58)           145.1909         estimate D2E/DX2                !
 ! A132  A(56,32,60)           117.9872         estimate D2E/DX2                !
 ! A133  A(58,32,60)            87.5221         estimate D2E/DX2                !
 ! A134  A(13,33,34)           158.014          estimate D2E/DX2                !
 ! A135  A(13,33,61)            81.0306         estimate D2E/DX2                !
 ! A136  A(34,33,61)            79.4741         estimate D2E/DX2                !
 ! A137  A(3,34,33)             92.9309         estimate D2E/DX2                !
 ! A138  A(3,34,35)            112.5264         estimate D2E/DX2                !
 ! A139  A(33,34,35)           151.9636         estimate D2E/DX2                !
 ! A140  A(1,35,34)             92.206          estimate D2E/DX2                !
 ! A141  A(1,35,62)             95.3266         estimate D2E/DX2                !
 ! A142  A(15,56,29)           102.9191         estimate D2E/DX2                !
 ! A143  A(15,56,32)           106.0482         estimate D2E/DX2                !
 ! A144  A(29,56,32)            91.8098         estimate D2E/DX2                !
 ! A145  L(35,1,36,2,-1)       185.6632         estimate D2E/DX2                !
 ! A146  L(59,31,60,27,-1)     192.9102         estimate D2E/DX2                !
 ! A147  L(12,32,30,56,-1)     171.7425         estimate D2E/DX2                !
 ! A148  L(34,35,62,1,-1)      187.5326         estimate D2E/DX2                !
 ! A149  L(35,1,36,2,-2)       170.8222         estimate D2E/DX2                !
 ! A150  L(59,31,60,27,-2)     177.7955         estimate D2E/DX2                !
 ! A151  L(12,32,30,56,-2)     174.6086         estimate D2E/DX2                !
 ! A152  L(34,35,62,1,-2)      187.0804         estimate D2E/DX2                !
 ! D1    D(35,1,2,3)           -85.44           estimate D2E/DX2                !
 ! D2    D(35,1,2,38)           26.7305         estimate D2E/DX2                !
 ! D3    D(36,1,2,3)           103.7379         estimate D2E/DX2                !
 ! D4    D(36,1,2,38)         -144.0916         estimate D2E/DX2                !
 ! D5    D(37,1,2,3)           -23.5125         estimate D2E/DX2                !
 ! D6    D(37,1,2,38)           88.658          estimate D2E/DX2                !
 ! D7    D(2,1,35,34)           58.0027         estimate D2E/DX2                !
 ! D8    D(2,1,35,62)         -129.0777         estimate D2E/DX2                !
 ! D9    D(37,1,35,34)         -93.4399         estimate D2E/DX2                !
 ! D10   D(37,1,35,62)          79.4797         estimate D2E/DX2                !
 ! D11   D(1,2,3,4)            -61.8536         estimate D2E/DX2                !
 ! D12   D(1,2,3,34)            55.9965         estimate D2E/DX2                !
 ! D13   D(38,2,3,4)          -179.7254         estimate D2E/DX2                !
 ! D14   D(38,2,3,34)          -61.8753         estimate D2E/DX2                !
 ! D15   D(2,3,4,5)             74.1155         estimate D2E/DX2                !
 ! D16   D(2,3,4,39)           -45.333          estimate D2E/DX2                !
 ! D17   D(2,3,4,40)          -167.3311         estimate D2E/DX2                !
 ! D18   D(34,3,4,5)           -29.6536         estimate D2E/DX2                !
 ! D19   D(34,3,4,39)         -149.1021         estimate D2E/DX2                !
 ! D20   D(34,3,4,40)           88.8998         estimate D2E/DX2                !
 ! D21   D(2,3,34,33)          174.9517         estimate D2E/DX2                !
 ! D22   D(2,3,34,35)          -17.0775         estimate D2E/DX2                !
 ! D23   D(4,3,34,33)          -53.3845         estimate D2E/DX2                !
 ! D24   D(4,3,34,35)          114.5864         estimate D2E/DX2                !
 ! D25   D(3,4,5,6)             81.1295         estimate D2E/DX2                !
 ! D26   D(3,4,5,41)            -9.0331         estimate D2E/DX2                !
 ! D27   D(3,4,5,42)          -137.7401         estimate D2E/DX2                !
 ! D28   D(39,4,5,6)          -155.186          estimate D2E/DX2                !
 ! D29   D(39,4,5,41)          114.6514         estimate D2E/DX2                !
 ! D30   D(39,4,5,42)          -14.0556         estimate D2E/DX2                !
 ! D31   D(40,4,5,6)           -43.2955         estimate D2E/DX2                !
 ! D32   D(40,4,5,41)         -133.4581         estimate D2E/DX2                !
 ! D33   D(40,4,5,42)           97.8349         estimate D2E/DX2                !
 ! D34   D(4,5,6,7)           -176.6867         estimate D2E/DX2                !
 ! D35   D(4,5,6,43)            76.2076         estimate D2E/DX2                !
 ! D36   D(41,5,6,7)           -49.866          estimate D2E/DX2                !
 ! D37   D(41,5,6,43)         -156.9717         estimate D2E/DX2                !
 ! D38   D(42,5,6,7)            46.9893         estimate D2E/DX2                !
 ! D39   D(42,5,6,43)          -60.1164         estimate D2E/DX2                !
 ! D40   D(5,6,7,8)            -35.2886         estimate D2E/DX2                !
 ! D41   D(5,6,7,11)          -149.915          estimate D2E/DX2                !
 ! D42   D(5,6,7,44)            94.0312         estimate D2E/DX2                !
 ! D43   D(43,6,7,8)            70.553          estimate D2E/DX2                !
 ! D44   D(43,6,7,11)          -44.0734         estimate D2E/DX2                !
 ! D45   D(43,6,7,44)         -160.1272         estimate D2E/DX2                !
 ! D46   D(6,7,8,9)           -128.7603         estimate D2E/DX2                !
 ! D47   D(6,7,8,45)            75.0105         estimate D2E/DX2                !
 ! D48   D(11,7,8,9)           -16.6148         estimate D2E/DX2                !
 ! D49   D(11,7,8,45)         -172.844          estimate D2E/DX2                !
 ! D50   D(44,7,8,9)            99.6784         estimate D2E/DX2                !
 ! D51   D(44,7,8,45)          -56.5508         estimate D2E/DX2                !
 ! D52   D(6,7,11,10)          113.8733         estimate D2E/DX2                !
 ! D53   D(6,7,11,12)          -28.7578         estimate D2E/DX2                !
 ! D54   D(6,7,11,47)         -146.3697         estimate D2E/DX2                !
 ! D55   D(8,7,11,10)          -18.3658         estimate D2E/DX2                !
 ! D56   D(8,7,11,12)         -160.9969         estimate D2E/DX2                !
 ! D57   D(8,7,11,47)           81.3912         estimate D2E/DX2                !
 ! D58   D(44,7,11,10)        -130.222          estimate D2E/DX2                !
 ! D59   D(44,7,11,12)          87.1469         estimate D2E/DX2                !
 ! D60   D(44,7,11,47)         -30.4651         estimate D2E/DX2                !
 ! D61   D(7,8,9,10)            38.0983         estimate D2E/DX2                !
 ! D62   D(45,8,9,10)         -165.8898         estimate D2E/DX2                !
 ! D63   D(8,9,10,11)          -48.2185         estimate D2E/DX2                !
 ! D64   D(8,9,10,46)         -179.0295         estimate D2E/DX2                !
 ! D65   D(9,10,11,7)           45.3674         estimate D2E/DX2                !
 ! D66   D(9,10,11,12)         167.9461         estimate D2E/DX2                !
 ! D67   D(9,10,11,47)         -65.6691         estimate D2E/DX2                !
 ! D68   D(46,10,11,7)         178.9181         estimate D2E/DX2                !
 ! D69   D(46,10,11,12)        -58.5031         estimate D2E/DX2                !
 ! D70   D(46,10,11,47)         67.8817         estimate D2E/DX2                !
 ! D71   D(7,11,12,13)          -9.0733         estimate D2E/DX2                !
 ! D72   D(7,11,12,32)        -152.3736         estimate D2E/DX2                !
 ! D73   D(7,11,12,48)         -61.235          estimate D2E/DX2                !
 ! D74   D(10,11,12,13)       -133.2857         estimate D2E/DX2                !
 ! D75   D(10,11,12,32)         83.414          estimate D2E/DX2                !
 ! D76   D(10,11,12,48)        174.5526         estimate D2E/DX2                !
 ! D77   D(47,11,12,13)        106.5743         estimate D2E/DX2                !
 ! D78   D(47,11,12,32)        -36.7259         estimate D2E/DX2                !
 ! D79   D(47,11,12,48)         54.4126         estimate D2E/DX2                !
 ! D80   D(11,12,13,14)       -113.2562         estimate D2E/DX2                !
 ! D81   D(11,12,13,33)          4.1227         estimate D2E/DX2                !
 ! D82   D(11,12,13,49)        137.9589         estimate D2E/DX2                !
 ! D83   D(32,12,13,14)         33.3268         estimate D2E/DX2                !
 ! D84   D(32,12,13,33)        150.7057         estimate D2E/DX2                !
 ! D85   D(32,12,13,49)        -75.4581         estimate D2E/DX2                !
 ! D86   D(48,12,13,14)        -67.8286         estimate D2E/DX2                !
 ! D87   D(48,12,13,33)         49.5503         estimate D2E/DX2                !
 ! D88   D(48,12,13,49)       -176.6134         estimate D2E/DX2                !
 ! D89   D(11,12,32,27)         86.9002         estimate D2E/DX2                !
 ! D90   D(11,12,32,31)         16.6066         estimate D2E/DX2                !
 ! D91   D(11,12,32,56)        139.1492         estimate D2E/DX2                !
 ! D92   D(11,12,32,58)        -77.0608         estimate D2E/DX2                !
 ! D93   D(11,12,32,60)          4.5806         estimate D2E/DX2                !
 ! D94   D(13,12,32,27)        -71.6114         estimate D2E/DX2                !
 ! D95   D(13,12,32,31)       -141.905          estimate D2E/DX2                !
 ! D96   D(13,12,32,56)        -19.3624         estimate D2E/DX2                !
 ! D97   D(13,12,32,58)        124.4276         estimate D2E/DX2                !
 ! D98   D(13,12,32,60)       -153.931          estimate D2E/DX2                !
 ! D99   D(48,12,32,27)         20.1531         estimate D2E/DX2                !
 ! D100  D(48,12,32,31)        -50.1406         estimate D2E/DX2                !
 ! D101  D(48,12,32,56)         72.402          estimate D2E/DX2                !
 ! D102  D(48,12,32,58)       -143.808          estimate D2E/DX2                !
 ! D103  D(48,12,32,60)        -62.1665         estimate D2E/DX2                !
 ! D104  D(12,13,14,15)        -45.0015         estimate D2E/DX2                !
 ! D105  D(33,13,14,15)       -155.062          estimate D2E/DX2                !
 ! D106  D(49,13,14,15)         88.719          estimate D2E/DX2                !
 ! D107  D(12,13,33,34)       -162.3896         estimate D2E/DX2                !
 ! D108  D(12,13,33,61)        169.8535         estimate D2E/DX2                !
 ! D109  D(14,13,33,34)        -39.1874         estimate D2E/DX2                !
 ! D110  D(14,13,33,61)        -66.9443         estimate D2E/DX2                !
 ! D111  D(49,13,33,34)         55.3364         estimate D2E/DX2                !
 ! D112  D(49,13,33,61)         27.5795         estimate D2E/DX2                !
 ! D113  D(13,14,15,16)        157.9922         estimate D2E/DX2                !
 ! D114  D(13,14,15,50)        -98.6767         estimate D2E/DX2                !
 ! D115  D(13,14,15,56)         36.2098         estimate D2E/DX2                !
 ! D116  D(14,15,16,17)       -150.7143         estimate D2E/DX2                !
 ! D117  D(14,15,16,51)        103.5933         estimate D2E/DX2                !
 ! D118  D(14,15,16,52)        -24.1709         estimate D2E/DX2                !
 ! D119  D(50,15,16,17)        116.2264         estimate D2E/DX2                !
 ! D120  D(50,15,16,51)         10.534          estimate D2E/DX2                !
 ! D121  D(50,15,16,52)       -117.2302         estimate D2E/DX2                !
 ! D122  D(56,15,16,17)        -79.0835         estimate D2E/DX2                !
 ! D123  D(56,15,16,51)        175.2242         estimate D2E/DX2                !
 ! D124  D(56,15,16,52)         47.4599         estimate D2E/DX2                !
 ! D125  D(14,15,56,29)         87.8034         estimate D2E/DX2                !
 ! D126  D(14,15,56,32)       -176.4748         estimate D2E/DX2                !
 ! D127  D(16,15,56,29)          1.3256         estimate D2E/DX2                !
 ! D128  D(16,15,56,32)         97.0474         estimate D2E/DX2                !
 ! D129  D(50,15,56,29)        160.9843         estimate D2E/DX2                !
 ! D130  D(50,15,56,32)       -103.2939         estimate D2E/DX2                !
 ! D131  D(15,16,17,18)        -61.7335         estimate D2E/DX2                !
 ! D132  D(15,16,17,27)         52.6195         estimate D2E/DX2                !
 ! D133  D(15,16,17,53)        157.8266         estimate D2E/DX2                !
 ! D134  D(51,16,17,18)         70.6546         estimate D2E/DX2                !
 ! D135  D(51,16,17,27)       -174.9925         estimate D2E/DX2                !
 ! D136  D(51,16,17,53)        -69.7853         estimate D2E/DX2                !
 ! D137  D(52,16,17,18)       -167.2178         estimate D2E/DX2                !
 ! D138  D(52,16,17,27)        -52.8648         estimate D2E/DX2                !
 ! D139  D(52,16,17,53)         52.3423         estimate D2E/DX2                !
 ! D140  D(16,17,18,19)         48.3308         estimate D2E/DX2                !
 ! D141  D(16,17,18,26)       -147.3975         estimate D2E/DX2                !
 ! D142  D(27,17,18,19)        -56.1397         estimate D2E/DX2                !
 ! D143  D(27,17,18,26)        108.132          estimate D2E/DX2                !
 ! D144  D(53,17,18,19)       -172.773          estimate D2E/DX2                !
 ! D145  D(53,17,18,26)         -8.5012         estimate D2E/DX2                !
 ! D146  D(16,17,27,28)         93.6596         estimate D2E/DX2                !
 ! D147  D(16,17,27,29)         27.1517         estimate D2E/DX2                !
 ! D148  D(16,17,27,30)       -111.5059         estimate D2E/DX2                !
 ! D149  D(16,17,27,31)       -171.787          estimate D2E/DX2                !
 ! D150  D(16,17,27,32)        -98.0069         estimate D2E/DX2                !
 ! D151  D(18,17,27,28)       -155.4836         estimate D2E/DX2                !
 ! D152  D(18,17,27,29)        138.0085         estimate D2E/DX2                !
 ! D153  D(18,17,27,30)         -0.6491         estimate D2E/DX2                !
 ! D154  D(18,17,27,31)        -60.9302         estimate D2E/DX2                !
 ! D155  D(18,17,27,32)         12.8499         estimate D2E/DX2                !
 ! D156  D(53,17,27,28)        -26.425          estimate D2E/DX2                !
 ! D157  D(53,17,27,29)        -92.9329         estimate D2E/DX2                !
 ! D158  D(53,17,27,30)        128.4095         estimate D2E/DX2                !
 ! D159  D(53,17,27,31)         68.1284         estimate D2E/DX2                !
 ! D160  D(53,17,27,32)        141.9086         estimate D2E/DX2                !
 ! D161  D(17,18,19,20)       -176.5456         estimate D2E/DX2                !
 ! D162  D(26,18,19,20)         18.5503         estimate D2E/DX2                !
 ! D163  D(17,18,26,22)        179.8284         estimate D2E/DX2                !
 ! D164  D(17,18,26,25)          0.5442         estimate D2E/DX2                !
 ! D165  D(19,18,26,22)        -13.8079         estimate D2E/DX2                !
 ! D166  D(19,18,26,25)        166.9079         estimate D2E/DX2                !
 ! D167  D(18,19,20,21)         -9.9275         estimate D2E/DX2                !
 ! D168  D(18,19,20,54)        167.6537         estimate D2E/DX2                !
 ! D169  D(19,20,21,22)         -2.2563         estimate D2E/DX2                !
 ! D170  D(19,20,21,55)        177.8832         estimate D2E/DX2                !
 ! D171  D(54,20,21,22)       -179.5821         estimate D2E/DX2                !
 ! D172  D(54,20,21,55)          0.5575         estimate D2E/DX2                !
 ! D173  D(20,21,22,23)       -178.1382         estimate D2E/DX2                !
 ! D174  D(20,21,22,26)          5.0594         estimate D2E/DX2                !
 ! D175  D(55,21,22,23)          1.7177         estimate D2E/DX2                !
 ! D176  D(55,21,22,26)       -175.0848         estimate D2E/DX2                !
 ! D177  D(21,22,23,24)       -179.9071         estimate D2E/DX2                !
 ! D178  D(26,22,23,24)         -2.7343         estimate D2E/DX2                !
 ! D179  D(21,22,26,18)          4.0523         estimate D2E/DX2                !
 ! D180  D(21,22,26,25)       -176.6432         estimate D2E/DX2                !
 ! D181  D(23,22,26,18)       -173.2837         estimate D2E/DX2                !
 ! D182  D(23,22,26,25)          6.0208         estimate D2E/DX2                !
 ! D183  D(22,23,24,25)         -0.3065         estimate D2E/DX2                !
 ! D184  D(23,24,25,26)          3.402          estimate D2E/DX2                !
 ! D185  D(24,25,26,18)        173.4298         estimate D2E/DX2                !
 ! D186  D(24,25,26,22)         -5.8457         estimate D2E/DX2                !
 ! D187  D(17,27,28,57)       -174.6751         estimate D2E/DX2                !
 ! D188  D(30,27,28,57)         44.2567         estimate D2E/DX2                !
 ! D189  D(31,27,28,57)         76.1149         estimate D2E/DX2                !
 ! D190  D(32,27,28,57)         17.1952         estimate D2E/DX2                !
 ! D191  D(17,27,29,56)        -97.2064         estimate D2E/DX2                !
 ! D192  D(17,27,29,57)        131.5982         estimate D2E/DX2                !
 ! D193  D(30,27,29,56)         31.3834         estimate D2E/DX2                !
 ! D194  D(30,27,29,57)        -99.8121         estimate D2E/DX2                !
 ! D195  D(31,27,29,56)        105.3207         estimate D2E/DX2                !
 ! D196  D(31,27,29,57)        -25.8748         estimate D2E/DX2                !
 ! D197  D(32,27,29,56)         37.8475         estimate D2E/DX2                !
 ! D198  D(32,27,29,57)        -93.348          estimate D2E/DX2                !
 ! D199  D(17,27,30,58)       -138.7774         estimate D2E/DX2                !
 ! D200  D(17,27,30,60)       -164.6592         estimate D2E/DX2                !
 ! D201  D(28,27,30,58)          5.8325         estimate D2E/DX2                !
 ! D202  D(28,27,30,60)        -20.0493         estimate D2E/DX2                !
 ! D203  D(29,27,30,58)         84.0366         estimate D2E/DX2                !
 ! D204  D(29,27,30,60)         58.1548         estimate D2E/DX2                !
 ! D205  D(17,27,31,59)        -18.2824         estimate D2E/DX2                !
 ! D206  D(17,27,31,60)        163.9221         estimate D2E/DX2                !
 ! D207  D(28,27,31,59)         96.4099         estimate D2E/DX2                !
 ! D208  D(28,27,31,60)        -81.3856         estimate D2E/DX2                !
 ! D209  D(29,27,31,59)        141.367          estimate D2E/DX2                !
 ! D210  D(29,27,31,60)        -36.4285         estimate D2E/DX2                !
 ! D211  D(17,27,32,12)        136.3934         estimate D2E/DX2                !
 ! D212  D(17,27,32,56)         88.2789         estimate D2E/DX2                !
 ! D213  D(17,27,32,58)        -64.4873         estimate D2E/DX2                !
 ! D214  D(17,27,32,60)       -153.1972         estimate D2E/DX2                !
 ! D215  D(28,27,32,12)        -56.2625         estimate D2E/DX2                !
 ! D216  D(28,27,32,56)       -104.377          estimate D2E/DX2                !
 ! D217  D(28,27,32,58)        102.8568         estimate D2E/DX2                !
 ! D218  D(28,27,32,60)         14.1469         estimate D2E/DX2                !
 ! D219  D(29,27,32,12)          1.6198         estimate D2E/DX2                !
 ! D220  D(29,27,32,56)        -46.4947         estimate D2E/DX2                !
 ! D221  D(29,27,32,58)        160.7391         estimate D2E/DX2                !
 ! D222  D(29,27,32,60)         72.0293         estimate D2E/DX2                !
 ! D223  D(27,29,56,15)         65.8608         estimate D2E/DX2                !
 ! D224  D(27,29,56,32)        -41.0579         estimate D2E/DX2                !
 ! D225  D(28,29,56,15)         87.7728         estimate D2E/DX2                !
 ! D226  D(28,29,56,32)        -19.1459         estimate D2E/DX2                !
 ! D227  D(57,29,56,15)        135.3744         estimate D2E/DX2                !
 ! D228  D(57,29,56,32)         28.4557         estimate D2E/DX2                !
 ! D229  D(58,30,31,59)        -99.1241         estimate D2E/DX2                !
 ! D230  D(59,31,32,12)        179.4623         estimate D2E/DX2                !
 ! D231  D(59,31,32,56)         88.0344         estimate D2E/DX2                !
 ! D232  D(59,31,32,58)        -75.8666         estimate D2E/DX2                !
 ! D233  D(32,31,60,30)         -3.1435         estimate D2E/DX2                !
 ! D234  D(12,32,56,15)        159.4726         estimate D2E/DX2                !
 ! D235  D(12,32,56,29)        -96.5319         estimate D2E/DX2                !
 ! D236  D(27,32,56,15)        -66.677          estimate D2E/DX2                !
 ! D237  D(27,32,56,29)         37.3185         estimate D2E/DX2                !
 ! D238  D(30,32,56,15)        -15.136          estimate D2E/DX2                !
 ! D239  D(30,32,56,29)         88.8595         estimate D2E/DX2                !
 ! D240  D(31,32,56,15)        -74.5291         estimate D2E/DX2                !
 ! D241  D(31,32,56,29)         29.4664         estimate D2E/DX2                !
 ! D242  D(58,32,56,15)         76.7651         estimate D2E/DX2                !
 ! D243  D(58,32,56,29)       -179.2394         estimate D2E/DX2                !
 ! D244  D(60,32,56,15)       -150.5013         estimate D2E/DX2                !
 ! D245  D(60,32,56,29)        -46.5058         estimate D2E/DX2                !
 ! D246  D(13,33,34,3)         -92.9336         estimate D2E/DX2                !
 ! D247  D(13,33,34,35)        111.2439         estimate D2E/DX2                !
 ! D248  D(61,33,34,3)         -65.0356         estimate D2E/DX2                !
 ! D249  D(61,33,34,35)        139.1419         estimate D2E/DX2                !
 ! D250  D(3,34,35,1)          -33.2262         estimate D2E/DX2                !
 ! D251  D(33,34,35,1)         120.4902         estimate D2E/DX2                !
 --------------------------------------------------------------------------------
 Trust Radius=3.00D-01 FncErr=1.00D-07 GrdErr=1.00D-06
 Number of steps in this run=    372 maximum allowed number of steps=    372.
 GradGradGradGradGradGradGradGradGradGradGradGradGradGradGradGradGradGrad

 Stoichiometry    C24H27N7OS3
 Framework group  C1[X(C24H27N7OS3)]
 Deg. of freedom   180
 Full point group                 C1      NOp   1
 Largest Abelian subgroup         C1      NOp   1
 Largest concise Abelian subgroup C1      NOp   1
                         Standard orientation:                         
 ---------------------------------------------------------------------
 Center     Atomic      Atomic             Coordinates (Angstroms)
 Number     Number       Type             X           Y           Z
 ---------------------------------------------------------------------
      1          6           0        5.714291   -1.709563   -0.656625
      2          6           0        5.221702   -3.020788    0.035137
      3          6           0        4.244355   -2.522497    0.779597
      4          6           0        4.293211   -1.473045    1.928544
      5          6           0        4.511737   -0.163595    1.261077
      6          6           0        3.142768    0.068579    0.882304
      7          6           0        3.215298    1.464705    0.035127
      8          7           0        4.103875    2.627745    0.276612
      9         16           0        3.273173    4.055790    0.350843
     10          7           0        2.046356    3.202155    1.172659
     11          6           0        1.817424    1.997899    0.368546
     12          6           0        0.954116    0.499358    0.610721
     13          6           0        1.124821   -1.454215    0.412755
     14          8           0        0.234285   -2.149522   -0.621524
     15          6           0       -1.186453   -1.461647   -0.333414
     16          6           0       -1.853880   -1.756827   -1.762048
     17          6           0       -2.566020   -0.534333   -1.437320
     18          6           0       -3.385511   -0.824267   -0.126201
     19          7           0       -2.894688   -1.440174    1.090510
     20          6           0       -3.559723   -1.756202    2.185055
     21          6           0       -4.832656   -1.298172    2.293941
     22          6           0       -5.314770   -0.474453    1.232958
     23          7           0       -6.506879    0.117372    1.130235
     24         16           0       -6.538047    0.956888   -0.315562
     25          7           0       -5.046923    0.623639   -0.881328
     26          6           0       -4.556096   -0.207811    0.030458
     27          6           0       -1.239333    0.388868   -1.111030
     28          7           0       -0.701493    1.234137   -2.346053
     29         16           0        0.022838    0.104649   -1.722907
     30          7           0       -1.394989    0.538468    0.149326
     31          6           0       -1.676980    1.678574   -0.547369
     32          6           0       -0.781102    0.605851    0.261184
     33          6           0        2.499729   -1.468565   -0.022196
     34          6           0        3.699962   -1.979513   -0.608958
     35          6           0        4.668172   -1.990083   -1.599188
     36          1           0        6.621309   -1.503254   -0.108918
     37          1           0        5.465087   -0.612019   -0.999001
     38          1           0        4.684836   -3.815722   -0.744338
     39          1           0        5.080781   -1.624078    2.650663
     40          1           0        3.357579   -1.375870    2.556274
     41          1           0        4.742695    0.000407    0.245247
     42          1           0        5.209877    0.542942    1.687809
     43          1           0        2.685525    0.378159    1.855898
     44          1           0        3.309050    1.262823   -1.030844
     45          1           0        5.092144    2.593440    0.029865
     46          1           0        1.203654    3.688255    1.462254
     47          1           0        1.418008    2.573526   -0.521172
     48          1           0        1.394744    0.650149   -0.427271
     49          1           0        0.804096   -2.305186    1.113083
     50          1           0       -1.507693   -2.322009    0.273384
     51          1           0       -2.586369   -2.476816   -2.097212
     52          1           0       -1.031777   -1.881519   -2.494808
     53          1           0       -2.990112    0.028747   -2.242726
     54          1           0       -3.043386   -2.400116    2.903973
     55          1           0       -5.422148   -1.555563    3.144909
     56          1           0       -0.175274   -0.524196   -0.163992
     57          1           0        0.184021    1.737011   -2.138201
     58          1           0       -1.386691    1.272239    1.386221
     59          1           0       -2.731747    1.799009   -0.802570
     60          1           0       -0.184616    1.846950   -0.074388
     61          1           0        2.336564   -2.736504    0.172310
     62          1           0        5.300949   -1.894813   -2.484286
 ---------------------------------------------------------------------
 Rotational constants (GHZ):      0.2147517      0.0658124      0.0582208
 Standard basis: 6-31++G(d,p) (6D, 7F)
 There are   839 symmetry adapted basis functions of A   symmetry.
 Integral buffers will be    131072 words long.
 Raffenetti 2 integral format.
 Two-electron integral symmetry is turned on.
   839 basis functions,  1408 primitive gaussians,   839 cartesian basis functions
   138 alpha electrons      138 beta electrons
       nuclear repulsion energy      4772.8674089005 Hartrees.
 NAtoms=   62 NActive=   62 NUniq=   62 SFac= 1.00D+00 NAtFMM=   60 NAOKFM=T Big=T
 One-electron integrals computed using PRISM.
 NBasis=   839 RedAO= T  NBF=   839
 NBsUse=   830 1.00D-06 NBFU=   830
 Harris functional with IExCor=  402 diagonalized for initial guess.
 ExpMin= 3.60D-02 ExpMax= 2.19D+04 ExpMxC= 3.30D+03 IAcc=3 IRadAn=         5 AccDes= 0.00D+00
 HarFok:  IExCor=  402 AccDes= 0.00D+00 IRadAn=         5 IDoV= 1
 ScaDFX=  1.000000  1.000000  1.000000  1.000000
 FoFCou: FMM=F IPFlag=           0 FMFlag=      100000 FMFlg1=        2001
         NFxFlg=           0 DoJE=T BraDBF=F KetDBF=T FulRan=T
         Omega=  0.000000  0.000000  1.000000  0.000000  0.000000 ICntrl=     500 IOpCl=  0
         NMat0=    1 NMatS0=    1 NMatT0=    0 NMatD0=    1 NMtDS0=    0 NMtDT0=    0
         I1Cent=           4 NGrid=           0.
 Petite list used in FoFCou.
 Initial guess orbital symmetries:
       Occupied  (A) (A) (A) (A) (A) (A) (A) (A) (A) (A) (A) (A)
                 (A) (A) (A) (A) (A) (A) (A) (A) (A) (A) (A) (A)
                 (A) (A) (A) (A) (A) (A) (A) (A) (A) (A) (A) (A)
                 (A) (A) (A) (A) (A) (A) (A) (A) (A) (A) (A) (A)
                 (A) (A) (A) (A) (A) (A) (A) (A) (A) (A) (A) (A)
                 (A) (A) (A) (A) (A) (A) (A) (A) (A) (A) (A) (A)
                 (A) (A) (A) (A) (A) (A) (A) (A) (A) (A) (A) (A)
                 (A) (A) (A) (A) (A) (A) (A) (A) (A) (A) (A) (A)
                 (A) (A) (A) (A) (A) (A) (A) (A) (A) (A) (A) (A)
                 (A) (A) (A) (A) (A) (A) (A) (A) (A) (A) (A) (A)
                 (A) (A) (A) (A) (A) (A) (A) (A) (A) (A) (A) (A)
                 (A) (A) (A) (A) (A) (A)
       Virtual   (A) (A) (A) (A) (A) (A) (A) (A) (A) (A) (A) (A)
                 (A) (A) (A) (A) (A) (A) (A) (A) (A) (A) (A) (A)
                 (A) (A) (A) (A) (A) (A) (A) (A) (A) (A) (A) (A)
                 (A) (A) (A) (A) (A) (A) (A) (A) (A) (A) (A) (A)
                 (A) (A) (A) (A) (A) (A) (A) (A) (A) (A) (A) (A)
                 (A) (A) (A) (A) (A) (A) (A) (A) (A) (A) (A) (A)
                 (A) (A) (A) (A) (A) (A) (A) (A) (A) (A) (A) (A)
                 (A) (A) (A) (A) (A) (A) (A) (A) (A) (A) (A) (A)
                 (A) (A) (A) (A) (A) (A) (A) (A) (A) (A) (A) (A)
                 (A) (A) (A) (A) (A) (A) (A) (A) (A) (A) (A) (A)
                 (A) (A) (A) (A) (A) (A) (A) (A) (A) (A) (A) (A)
                 (A) (A) (A) (A) (A) (A) (A) (A) (A) (A) (A) (A)
                 (A) (A) (A) (A) (A) (A) (A) (A) (A) (A) (A) (A)
                 (A) (A) (A) (A) (A) (A) (A) (A) (A) (A) (A) (A)
                 (A) (A) (A) (A) (A) (A) (A) (A) (A) (A) (A) (A)
                 (A) (A) (A) (A) (A) (A) (A) (A) (A) (A) (A) (A)
                 (A) (A) (A) (A) (A) (A) (A) (A) (A) (A) (A) (A)
                 (A) (A) (A) (A) (A) (A) (A) (A) (A) (A) (A) (A)
                 (A) (A) (A) (A) (A) (A) (A) (A) (A) (A) (A) (A)
                 (A) (A) (A) (A) (A) (A) (A) (A) (A) (A) (A) (A)
                 (A) (A) (A) (A) (A) (A) (A) (A) (A) (A) (A) (A)
                 (A) (A) (A) (A) (A) (A) (A) (A) (A) (A) (A) (A)
                 (A) (A) (A) (A) (A) (A) (A) (A) (A) (A) (A) (A)
                 (A) (A) (A) (A) (A) (A) (A) (A) (A) (A) (A) (A)
                 (A) (A) (A) (A) (A) (A) (A) (A) (A) (A) (A) (A)
                 (A) (A) (A) (A) (A) (A) (A) (A) (A) (A) (A) (A)
                 (A) (A) (A) (A) (A) (A) (A) (A) (A) (A) (A) (A)
                 (A) (A) (A) (A) (A) (A) (A) (A) (A) (A) (A) (A)
                 (A) (A) (A) (A) (A) (A) (A) (A) (A) (A) (A) (A)
                 (A) (A) (A) (A) (A) (A) (A) (A) (A) (A) (A) (A)
                 (A) (A) (A) (A) (A) (A) (A) (A) (A) (A) (A) (A)
                 (A) (A) (A) (A) (A) (A) (A) (A) (A) (A) (A) (A)
                 (A) (A) (A) (A) (A) (A) (A) (A) (A) (A) (A) (A)
                 (A) (A) (A) (A) (A) (A) (A) (A) (A) (A) (A) (A)
                 (A) (A) (A) (A) (A) (A) (A) (A) (A) (A) (A) (A)
                 (A) (A) (A) (A) (A) (A) (A) (A) (A) (A) (A) (A)
                 (A) (A) (A) (A) (A) (A) (A) (A) (A) (A) (A) (A)
                 (A) (A) (A) (A) (A) (A) (A) (A) (A) (A) (A) (A)
                 (A) (A) (A) (A) (A) (A) (A) (A) (A) (A) (A) (A)
                 (A) (A) (A) (A) (A) (A) (A) (A) (A) (A) (A) (A)
                 (A) (A) (A) (A) (A) (A) (A) (A) (A) (A) (A) (A)
                 (A) (A) (A) (A) (A) (A) (A) (A) (A) (A) (A) (A)
                 (A) (A) (A) (A) (A) (A) (A) (A) (A) (A) (A) (A)
                 (A) (A) (A) (A) (A) (A) (A) (A) (A) (A) (A) (A)
                 (A) (A) (A) (A) (A) (A) (A) (A) (A) (A) (A) (A)
                 (A) (A) (A) (A) (A) (A) (A) (A) (A) (A) (A) (A)
                 (A) (A) (A) (A) (A) (A) (A) (A) (A) (A) (A) (A)
                 (A) (A) (A) (A) (A) (A) (A) (A) (A) (A) (A) (A)
                 (A) (A) (A) (A) (A) (A) (A) (A) (A) (A) (A) (A)
                 (A) (A) (A) (A) (A) (A) (A) (A) (A) (A) (A) (A)
                 (A) (A) (A) (A) (A) (A) (A) (A) (A) (A) (A) (A)
                 (A) (A) (A) (A) (A) (A) (A) (A) (A) (A) (A) (A)
                 (A) (A) (A) (A) (A) (A) (A) (A) (A) (A) (A) (A)
                 (A) (A) (A) (A) (A) (A) (A) (A) (A) (A) (A) (A)
                 (A) (A) (A) (A) (A) (A) (A) (A) (A) (A) (A) (A)
                 (A) (A) (A) (A) (A) (A) (A) (A) (A) (A) (A) (A)
                 (A) (A) (A) (A) (A) (A) (A) (A) (A) (A) (A) (A)
                 (A) (A) (A) (A) (A) (A) (A) (A)
 The electronic state of the initial guess is 1-A.
 Requested convergence on RMS density matrix=1.00D-08 within 128 cycles.
 Requested convergence on MAX density matrix=1.00D-06.
 Requested convergence on             energy=1.00D-06.
 No special actions if energy rises.
 EnCoef did     5 forward-backward iterations
 EnCoef did   100 forward-backward iterations
 EnCoef did   100 forward-backward iterations
 EnCoef did     5 forward-backward iterations
 EnCoef did     5 forward-backward iterations
 EnCoef did     7 forward-backward iterations
 EnCoef did     6 forward-backward iterations
 EnCoef did    10 forward-backward iterations
 EnCoef did     3 forward-backward iterations
 Restarting incremental Fock formation.
 Restarting incremental Fock formation.
 SCF Done:  E(RB3LYP) =  -2578.34082311     A.U. after   47 cycles
             Convg  =    0.7802D-08             -V/T =  1.9994

 **********************************************************************

            Population analysis using the SCF density.

 **********************************************************************

 Orbital symmetries:
       Occupied  (A) (A) (A) (A) (A) (A) (A) (A) (A) (A) (A) (A)
                 (A) (A) (A) (A) (A) (A) (A) (A) (A) (A) (A) (A)
                 (A) (A) (A) (A) (A) (A) (A) (A) (A) (A) (A) (A)
                 (A) (A) (A) (A) (A) (A) (A) (A) (A) (A) (A) (A)
                 (A) (A) (A) (A) (A) (A) (A) (A) (A) (A) (A) (A)
                 (A) (A) (A) (A) (A) (A) (A) (A) (A) (A) (A) (A)
                 (A) (A) (A) (A) (A) (A) (A) (A) (A) (A) (A) (A)
                 (A) (A) (A) (A) (A) (A) (A) (A) (A) (A) (A) (A)
                 (A) (A) (A) (A) (A) (A) (A) (A) (A) (A) (A) (A)
                 (A) (A) (A) (A) (A) (A) (A) (A) (A) (A) (A) (A)
                 (A) (A) (A) (A) (A) (A) (A) (A) (A) (A) (A) (A)
                 (A) (A) (A) (A) (A) (A)
       Virtual   (A) (A) (A) (A) (A) (A) (A) (A) (A) (A) (A) (A)
                 (A) (A) (A) (A) (A) (A) (A) (A) (A) (A) (A) (A)
                 (A) (A) (A) (A) (A) (A) (A) (A) (A) (A) (A) (A)
                 (A) (A) (A) (A) (A) (A) (A) (A) (A) (A) (A) (A)
                 (A) (A) (A) (A) (A) (A) (A) (A) (A) (A) (A) (A)
                 (A) (A) (A) (A) (A) (A) (A) (A) (A) (A) (A) (A)
                 (A) (A) (A) (A) (A) (A) (A) (A) (A) (A) (A) (A)
                 (A) (A) (A) (A) (A) (A) (A) (A) (A) (A) (A) (A)
                 (A) (A) (A) (A) (A) (A) (A) (A) (A) (A) (A) (A)
                 (A) (A) (A) (A) (A) (A) (A) (A) (A) (A) (A) (A)
                 (A) (A) (A) (A) (A) (A) (A) (A) (A) (A) (A) (A)
                 (A) (A) (A) (A) (A) (A) (A) (A) (A) (A) (A) (A)
                 (A) (A) (A) (A) (A) (A) (A) (A) (A) (A) (A) (A)
                 (A) (A) (A) (A) (A) (A) (A) (A) (A) (A) (A) (A)
                 (A) (A) (A) (A) (A) (A) (A) (A) (A) (A) (A) (A)
                 (A) (A) (A) (A) (A) (A) (A) (A) (A) (A) (A) (A)
                 (A) (A) (A) (A) (A) (A) (A) (A) (A) (A) (A) (A)
                 (A) (A) (A) (A) (A) (A) (A) (A) (A) (A) (A) (A)
                 (A) (A) (A) (A) (A) (A) (A) (A) (A) (A) (A) (A)
                 (A) (A) (A) (A) (A) (A) (A) (A) (A) (A) (A) (A)
                 (A) (A) (A) (A) (A) (A) (A) (A) (A) (A) (A) (A)
                 (A) (A) (A) (A) (A) (A) (A) (A) (A) (A) (A) (A)
                 (A) (A) (A) (A) (A) (A) (A) (A) (A) (A) (A) (A)
                 (A) (A) (A) (A) (A) (A) (A) (A) (A) (A) (A) (A)
                 (A) (A) (A) (A) (A) (A) (A) (A) (A) (A) (A) (A)
                 (A) (A) (A) (A) (A) (A) (A) (A) (A) (A) (A) (A)
                 (A) (A) (A) (A) (A) (A) (A) (A) (A) (A) (A) (A)
                 (A) (A) (A) (A) (A) (A) (A) (A) (A) (A) (A) (A)
                 (A) (A) (A) (A) (A) (A) (A) (A) (A) (A) (A) (A)
                 (A) (A) (A) (A) (A) (A) (A) (A) (A) (A) (A) (A)
                 (A) (A) (A) (A) (A) (A) (A) (A) (A) (A) (A) (A)
                 (A) (A) (A) (A) (A) (A) (A) (A) (A) (A) (A) (A)
                 (A) (A) (A) (A) (A) (A) (A) (A) (A) (A) (A) (A)
                 (A) (A) (A) (A) (A) (A) (A) (A) (A) (A) (A) (A)
                 (A) (A) (A) (A) (A) (A) (A) (A) (A) (A) (A) (A)
                 (A) (A) (A) (A) (A) (A) (A) (A) (A) (A) (A) (A)
                 (A) (A) (A) (A) (A) (A) (A) (A) (A) (A) (A) (A)
                 (A) (A) (A) (A) (A) (A) (A) (A) (A) (A) (A) (A)
                 (A) (A) (A) (A) (A) (A) (A) (A) (A) (A) (A) (A)
                 (A) (A) (A) (A) (A) (A) (A) (A) (A) (A) (A) (A)
                 (A) (A) (A) (A) (A) (A) (A) (A) (A) (A) (A) (A)
                 (A) (A) (A) (A) (A) (A) (A) (A) (A) (A) (A) (A)
                 (A) (A) (A) (A) (A) (A) (A) (A) (A) (A) (A) (A)
                 (A) (A) (A) (A) (A) (A) (A) (A) (A) (A) (A) (A)
                 (A) (A) (A) (A) (A) (A) (A) (A) (A) (A) (A) (A)
                 (A) (A) (A) (A) (A) (A) (A) (A) (A) (A) (A) (A)
                 (A) (A) (A) (A) (A) (A) (A) (A) (A) (A) (A) (A)
                 (A) (A) (A) (A) (A) (A) (A) (A) (A) (A) (A) (A)
                 (A) (A) (A) (A) (A) (A) (A) (A) (A) (A) (A) (A)
                 (A) (A) (A) (A) (A) (A) (A) (A) (A) (A) (A) (A)
                 (A) (A) (A) (A) (A) (A) (A) (A) (A) (A) (A) (A)
                 (A) (A) (A) (A) (A) (A) (A) (A) (A) (A) (A) (A)
                 (A) (A) (A) (A) (A) (A) (A) (A) (A) (A) (A) (A)
                 (A) (A) (A) (A) (A) (A) (A) (A) (A) (A) (A) (A)
                 (A) (A) (A) (A) (A) (A) (A) (A) (A) (A) (A) (A)
                 (A) (A) (A) (A) (A) (A) (A) (A) (A) (A) (A) (A)
                 (A) (A) (A) (A) (A) (A) (A) (A) (A) (A) (A) (A)
                 (A) (A) (A) (A) (A) (A) (A) (A)
 The electronic state is 1-A.
 Alpha  occ. eigenvalues --  -88.98891 -88.94008 -88.91212 -19.14109 -14.58113
 Alpha  occ. eigenvalues --  -14.38463 -14.38321 -14.36411 -14.35654 -14.34173
 Alpha  occ. eigenvalues --  -14.31587 -10.52134 -10.33426 -10.27643 -10.27318
 Alpha  occ. eigenvalues --  -10.26852 -10.26661 -10.26089 -10.26077 -10.26031
 Alpha  occ. eigenvalues --  -10.25948 -10.25514 -10.25096 -10.25000 -10.24887
 Alpha  occ. eigenvalues --  -10.24452 -10.24329 -10.24180 -10.21464 -10.21440
 Alpha  occ. eigenvalues --  -10.21391 -10.21025 -10.21012 -10.19124 -10.17494
 Alpha  occ. eigenvalues --   -8.04180  -7.99294  -7.98931  -6.00725  -6.00158
 Alpha  occ. eigenvalues --   -5.99948  -5.95975  -5.95610  -5.95178  -5.95011
 Alpha  occ. eigenvalues --   -5.94569  -5.94290  -1.34408  -1.09417  -1.03823
 Alpha  occ. eigenvalues --   -1.01008  -0.99073  -0.98253  -0.96469  -0.95022
 Alpha  occ. eigenvalues --   -0.91413  -0.90780  -0.88280  -0.87343  -0.86382
 Alpha  occ. eigenvalues --   -0.82480  -0.81231  -0.80684  -0.78656  -0.77869
 Alpha  occ. eigenvalues --   -0.76700  -0.72969  -0.71264  -0.69827  -0.68915
 Alpha  occ. eigenvalues --   -0.68420  -0.66632  -0.65998  -0.64620  -0.62752
 Alpha  occ. eigenvalues --   -0.62370  -0.60961  -0.60724  -0.60289  -0.58007
 Alpha  occ. eigenvalues --   -0.57739  -0.56971  -0.55822  -0.53764  -0.53595
 Alpha  occ. eigenvalues --   -0.52891  -0.51867  -0.51465  -0.50801  -0.50076
 Alpha  occ. eigenvalues --   -0.49301  -0.48612  -0.48017  -0.47638  -0.47508
 Alpha  occ. eigenvalues --   -0.47029  -0.47014  -0.46202  -0.45745  -0.44256
 Alpha  occ. eigenvalues --   -0.43615  -0.43229  -0.42289  -0.42083  -0.41787
 Alpha  occ. eigenvalues --   -0.40557  -0.40151  -0.39733  -0.39487  -0.39128
 Alpha  occ. eigenvalues --   -0.38673  -0.38145  -0.36987  -0.36502  -0.35642
 Alpha  occ. eigenvalues --   -0.35142  -0.34700  -0.34075  -0.33228  -0.31663
 Alpha  occ. eigenvalues --   -0.31446  -0.31017  -0.30789  -0.30157  -0.29499
 Alpha  occ. eigenvalues --   -0.28159  -0.27027  -0.25669  -0.25061  -0.24289
 Alpha  occ. eigenvalues --   -0.23950  -0.21560  -0.20841  -0.19525  -0.18618
 Alpha  occ. eigenvalues --   -0.16762  -0.15833  -0.14978
 Alpha virt. eigenvalues --   -0.12087  -0.11491  -0.09932  -0.08874  -0.07614
 Alpha virt. eigenvalues --   -0.05825  -0.03961  -0.03702  -0.03089  -0.02390
 Alpha virt. eigenvalues --   -0.01733  -0.01300  -0.01210  -0.00670  -0.00360
 Alpha virt. eigenvalues --    0.00075   0.00274   0.00500   0.00857   0.01559
 Alpha virt. eigenvalues --    0.01772   0.01829   0.02076   0.02478   0.02592
 Alpha virt. eigenvalues --    0.02841   0.02933   0.03313   0.03400   0.03906
 Alpha virt. eigenvalues --    0.04260   0.04508   0.04791   0.05259   0.05413
 Alpha virt. eigenvalues --    0.05517   0.05764   0.06044   0.06236   0.06599
 Alpha virt. eigenvalues --    0.06791   0.06855   0.07164   0.07621   0.07787
 Alpha virt. eigenvalues --    0.08023   0.08238   0.08328   0.08903   0.08955
 Alpha virt. eigenvalues --    0.09082   0.09616   0.09671   0.09733   0.09953
 Alpha virt. eigenvalues --    0.10067   0.10215   0.10338   0.10630   0.10783
 Alpha virt. eigenvalues --    0.10939   0.11178   0.11237   0.11468   0.11660
 Alpha virt. eigenvalues --    0.11716   0.12000   0.12210   0.12313   0.12520
 Alpha virt. eigenvalues --    0.12602   0.12817   0.13072   0.13178   0.13225
 Alpha virt. eigenvalues --    0.13498   0.13648   0.13884   0.13956   0.14232
 Alpha virt. eigenvalues --    0.14306   0.14709   0.14869   0.14912   0.15027
 Alpha virt. eigenvalues --    0.15259   0.15437   0.15651   0.15753   0.16091
 Alpha virt. eigenvalues --    0.16324   0.16471   0.17068   0.17215   0.17335
 Alpha virt. eigenvalues --    0.17491   0.17645   0.17957   0.18043   0.18061
 Alpha virt. eigenvalues --    0.18315   0.18498   0.18547   0.18718   0.19127
 Alpha virt. eigenvalues --    0.19167   0.19278   0.19484   0.19832   0.20031
 Alpha virt. eigenvalues --    0.20236   0.20582   0.20754   0.20907   0.20969
 Alpha virt. eigenvalues --    0.21343   0.21382   0.21792   0.21870   0.21938
 Alpha virt. eigenvalues --    0.22054   0.22227   0.22389   0.22488   0.22807
 Alpha virt. eigenvalues --    0.23239   0.23321   0.23374   0.23658   0.23763
 Alpha virt. eigenvalues --    0.24070   0.24200   0.24299   0.24735   0.24993
 Alpha virt. eigenvalues --    0.25100   0.25478   0.25605   0.25780   0.26016
 Alpha virt. eigenvalues --    0.26296   0.26567   0.26699   0.26832   0.27207
 Alpha virt. eigenvalues --    0.27250   0.27590   0.27605   0.27938   0.28256
 Alpha virt. eigenvalues --    0.28420   0.28654   0.28812   0.28878   0.29209
 Alpha virt. eigenvalues --    0.29456   0.29539   0.29822   0.30015   0.30196
 Alpha virt. eigenvalues --    0.30467   0.30862   0.30887   0.31184   0.31335
 Alpha virt. eigenvalues --    0.32043   0.32142   0.32299   0.32605   0.32850
 Alpha virt. eigenvalues --    0.33118   0.33407   0.33447   0.33900   0.33934
 Alpha virt. eigenvalues --    0.34221   0.34392   0.34907   0.35330   0.35414
 Alpha virt. eigenvalues --    0.35837   0.36080   0.36432   0.36737   0.37116
 Alpha virt. eigenvalues --    0.37496   0.37737   0.38071   0.38272   0.38560
 Alpha virt. eigenvalues --    0.38747   0.38930   0.39033   0.39461   0.39922
 Alpha virt. eigenvalues --    0.40167   0.40246   0.40459   0.40912   0.40980
 Alpha virt. eigenvalues --    0.41271   0.41711   0.41978   0.42212   0.42652
 Alpha virt. eigenvalues --    0.42730   0.43401   0.43863   0.44399   0.44605
 Alpha virt. eigenvalues --    0.44918   0.45011   0.45299   0.45647   0.46019
 Alpha virt. eigenvalues --    0.46482   0.47187   0.47204   0.47482   0.47914
 Alpha virt. eigenvalues --    0.48065   0.48639   0.49368   0.49475   0.50704
 Alpha virt. eigenvalues --    0.51297   0.51442   0.52266   0.52898   0.53594
 Alpha virt. eigenvalues --    0.53739   0.55021   0.56276   0.57012   0.57919
 Alpha virt. eigenvalues --    0.58187   0.60335   0.61731   0.62017   0.62855
 Alpha virt. eigenvalues --    0.63864   0.65947   0.66362   0.66770   0.67542
 Alpha virt. eigenvalues --    0.68423   0.68866   0.69216   0.70168   0.70840
 Alpha virt. eigenvalues --    0.71202   0.71660   0.72087   0.72183   0.72640
 Alpha virt. eigenvalues --    0.72928   0.73801   0.73983   0.74316   0.74908
 Alpha virt. eigenvalues --    0.75483   0.75660   0.76368   0.76794   0.77250
 Alpha virt. eigenvalues --    0.78255   0.78458   0.78888   0.78956   0.79726
 Alpha virt. eigenvalues --    0.80362   0.80471   0.80655   0.80851   0.81627
 Alpha virt. eigenvalues --    0.81728   0.81993   0.82824   0.83154   0.83459
 Alpha virt. eigenvalues --    0.83686   0.84138   0.84452   0.84949   0.85284
 Alpha virt. eigenvalues --    0.85974   0.86811   0.87477   0.87995   0.88350
 Alpha virt. eigenvalues --    0.88723   0.89003   0.89356   0.89474   0.90233
 Alpha virt. eigenvalues --    0.91255   0.91723   0.92299   0.93179   0.93338
 Alpha virt. eigenvalues --    0.93855   0.94600   0.95217   0.95728   0.96292
 Alpha virt. eigenvalues --    0.96515   0.96800   0.96932   0.97328   0.98437
 Alpha virt. eigenvalues --    0.98892   0.99974   1.00448   1.00826   1.01276
 Alpha virt. eigenvalues --    1.01756   1.01934   1.02370   1.03173   1.03599
 Alpha virt. eigenvalues --    1.04052   1.04173   1.04270   1.04714   1.05178
 Alpha virt. eigenvalues --    1.05731   1.06136   1.06319   1.06682   1.07338
 Alpha virt. eigenvalues --    1.07881   1.08314   1.08745   1.09419   1.09665
 Alpha virt. eigenvalues --    1.10202   1.10567   1.10774   1.11334   1.11553
 Alpha virt. eigenvalues --    1.11755   1.12202   1.12692   1.13546   1.13617
 Alpha virt. eigenvalues --    1.13830   1.14331   1.14466   1.14898   1.15106
 Alpha virt. eigenvalues --    1.15665   1.16524   1.16794   1.17231   1.17881
 Alpha virt. eigenvalues --    1.17905   1.18903   1.19482   1.19869   1.20162
 Alpha virt. eigenvalues --    1.20530   1.21459   1.22205   1.22920   1.23149
 Alpha virt. eigenvalues --    1.24156   1.24296   1.25503   1.26314   1.26962
 Alpha virt. eigenvalues --    1.27570   1.28346   1.29042   1.29287   1.29937
 Alpha virt. eigenvalues --    1.31474   1.31835   1.32403   1.33119   1.33804
 Alpha virt. eigenvalues --    1.34561   1.34988   1.35555   1.35898   1.36768
 Alpha virt. eigenvalues --    1.37655   1.37912   1.38238   1.39693   1.39846
 Alpha virt. eigenvalues --    1.40940   1.42018   1.42653   1.44483   1.44900
 Alpha virt. eigenvalues --    1.45074   1.46971   1.47566   1.48219   1.48969
 Alpha virt. eigenvalues --    1.50129   1.51207   1.51435   1.52014   1.52517
 Alpha virt. eigenvalues --    1.53631   1.54809   1.56217   1.56899   1.57408
 Alpha virt. eigenvalues --    1.58403   1.59488   1.60294   1.60982   1.62078
 Alpha virt. eigenvalues --    1.62882   1.63793   1.64079   1.65437   1.65768
 Alpha virt. eigenvalues --    1.67117   1.68737   1.68938   1.69785   1.70090
 Alpha virt. eigenvalues --    1.71066   1.71201   1.71603   1.72732   1.73706
 Alpha virt. eigenvalues --    1.73781   1.74984   1.75231   1.76167   1.76931
 Alpha virt. eigenvalues --    1.77866   1.78293   1.79368   1.79526   1.81345
 Alpha virt. eigenvalues --    1.81716   1.82458   1.82722   1.83555   1.83913
 Alpha virt. eigenvalues --    1.84409   1.85641   1.86392   1.87551   1.87863
 Alpha virt. eigenvalues --    1.88977   1.89957   1.90500   1.91372   1.91978
 Alpha virt. eigenvalues --    1.92444   1.92624   1.93665   1.94184   1.94587
 Alpha virt. eigenvalues --    1.95576   1.96702   1.96907   1.97131   1.98218
 Alpha virt. eigenvalues --    1.99581   2.00194   2.01050   2.01994   2.02928
 Alpha virt. eigenvalues --    2.03304   2.03808   2.04372   2.05044   2.05889
 Alpha virt. eigenvalues --    2.06288   2.06796   2.07294   2.09423   2.09493
 Alpha virt. eigenvalues --    2.10750   2.11290   2.11405   2.12230   2.13677
 Alpha virt. eigenvalues --    2.13827   2.15019   2.15600   2.15800   2.16932
 Alpha virt. eigenvalues --    2.17549   2.18854   2.19204   2.19547   2.19772
 Alpha virt. eigenvalues --    2.20062   2.20563   2.21270   2.21652   2.22326
 Alpha virt. eigenvalues --    2.23154   2.23454   2.24442   2.24980   2.25532
 Alpha virt. eigenvalues --    2.27092   2.27571   2.27866   2.29735   2.30010
 Alpha virt. eigenvalues --    2.30342   2.31285   2.31673   2.33334   2.33868
 Alpha virt. eigenvalues --    2.34229   2.34890   2.35894   2.36215   2.36959
 Alpha virt. eigenvalues --    2.38099   2.38614   2.39010   2.39575   2.40581
 Alpha virt. eigenvalues --    2.41219   2.42100   2.42130   2.42944   2.43408
 Alpha virt. eigenvalues --    2.44305   2.44561   2.45331   2.45607   2.46535
 Alpha virt. eigenvalues --    2.47457   2.47882   2.48883   2.49336   2.49978
 Alpha virt. eigenvalues --    2.51297   2.52286   2.53021   2.53102   2.53399
 Alpha virt. eigenvalues --    2.53972   2.54204   2.54764   2.55133   2.55875
 Alpha virt. eigenvalues --    2.56690   2.57318   2.57869   2.58395   2.58658
 Alpha virt. eigenvalues --    2.59444   2.60667   2.60964   2.62214   2.63164
 Alpha virt. eigenvalues --    2.63483   2.64030   2.64132   2.64862   2.65298
 Alpha virt. eigenvalues --    2.66345   2.66963   2.67306   2.67583   2.68369
 Alpha virt. eigenvalues --    2.68766   2.69572   2.69713   2.70625   2.70875
 Alpha virt. eigenvalues --    2.72318   2.72651   2.73485   2.74241   2.74633
 Alpha virt. eigenvalues --    2.76297   2.76935   2.77818   2.78022   2.79447
 Alpha virt. eigenvalues --    2.79626   2.81290   2.82042   2.82854   2.83519
 Alpha virt. eigenvalues --    2.83735   2.84843   2.85612   2.86537   2.86761
 Alpha virt. eigenvalues --    2.87556   2.88712   2.89351   2.90951   2.92049
 Alpha virt. eigenvalues --    2.92757   2.94029   2.94394   2.95241   2.96177
 Alpha virt. eigenvalues --    2.96765   2.99181   2.99371   3.00938   3.01301
 Alpha virt. eigenvalues --    3.04018   3.04662   3.05457   3.06712   3.08502
 Alpha virt. eigenvalues --    3.09902   3.11965   3.15501   3.16034   3.17179
 Alpha virt. eigenvalues --    3.18099   3.21690   3.24143   3.26323   3.26616
 Alpha virt. eigenvalues --    3.29251   3.30490   3.31931   3.33750   3.35021
 Alpha virt. eigenvalues --    3.35596   3.37196   3.38182   3.38304   3.40575
 Alpha virt. eigenvalues --    3.41485   3.43566   3.44350   3.46139   3.47456
 Alpha virt. eigenvalues --    3.48128   3.48535   3.51959   3.53799   3.53942
 Alpha virt. eigenvalues --    3.55774   3.57300   3.64380   3.65881   3.68712
 Alpha virt. eigenvalues --    3.70677   3.76114   3.83300   3.98227   3.98917
 Alpha virt. eigenvalues --    4.03151   4.04064   4.12836   4.24634   4.28186
 Alpha virt. eigenvalues --    4.29346   4.29956   4.39468   4.40682   4.48245
 Alpha virt. eigenvalues --    4.48538   4.50829   4.51872   4.53922   4.56002
 Alpha virt. eigenvalues --    4.56613   4.58970   4.60718   4.62986   4.65499
 Alpha virt. eigenvalues --    4.68187   4.72507   4.73542   4.79520   4.80648
 Alpha virt. eigenvalues --    4.82740   4.84526   4.90209   4.91552   4.97348
 Alpha virt. eigenvalues --    4.98650   5.02014   5.07086   5.14170   5.32042
 Alpha virt. eigenvalues --    6.78099  11.45033
          Condensed to atoms (all electrons):
 Mulliken atomic charges:
              1
     1  C    0.295962
     2  C   -0.237173
     3  C   -0.360155
     4  C   -0.477897
     5  C   -0.312179
     6  C   -0.108148
     7  C   -0.036559
     8  N   -0.449534
     9  S    0.362097
    10  N   -0.321876
    11  C   -0.384552
    12  C   -0.027905
    13  C    0.290054
    14  O   -0.094930
    15  C   -1.948921
    16  C    0.212564
    17  C    0.046117
    18  C   -0.742974
    19  N    0.356187
    20  C    0.368923
    21  C   -0.218522
    22  C    0.168545
    23  N   -0.384544
    24  S    0.893234
    25  N   -0.301223
    26  C   -0.424338
    27  C   -0.246159
    28  N   -0.078257
    29  S    0.275848
    30  N    2.332333
    31  C   -0.194691
    32  C   -2.954676
    33  C    0.100912
    34  C    0.336234
    35  C   -0.329282
    36  H    0.177274
    37  H    0.043640
    38  H    0.175802
    39  H    0.149342
    40  H    0.179045
    41  H    0.308342
    42  H    0.147667
    43  H    0.188056
    44  H    0.230597
    45  H    0.343785
    46  H    0.365216
    47  H    0.447340
    48  H    0.272141
    49  H    0.258970
    50  H    0.164424
    51  H    0.159306
    52  H    0.193441
    53  H    0.248320
    54  H    0.130380
    55  H    0.173372
    56  H   -0.333579
    57  H    0.295601
    58  H   -0.178960
    59  H    0.212447
    60  H   -0.193918
    61  H    0.203108
    62  H    0.234324
 Sum of Mulliken atomic charges =  -0.00000
 Mulliken charges with hydrogens summed into heavy atoms:
              1
     1  C    0.516876
     2  C   -0.061370
     3  C   -0.360155
     4  C   -0.149510
     5  C    0.143831
     6  C    0.079908
     7  C    0.194039
     8  N   -0.105748
     9  S    0.362097
    10  N    0.043339
    11  C    0.062788
    12  C    0.244235
    13  C    0.549024
    14  O   -0.094930
    15  C   -1.784497
[...]
   D214       3.03142   0.00180   0.04439   0.02455   0.05968   3.09111
   D215      -1.65976  -0.00201  -0.04150  -0.04645  -0.09378  -1.75354
   D216      -2.31477  -0.00230  -0.00465  -0.01364  -0.02388  -2.33865
   D217       2.73552  -0.00349  -0.02370  -0.03331  -0.05437   2.68116
   D218       0.85959  -0.00148   0.00284  -0.00943  -0.01153   0.84806
   D219      -1.00402  -0.00141  -0.03600  -0.04799  -0.08581  -1.08983
   D220      -1.65903  -0.00170   0.00085  -0.01518  -0.01591  -1.67494
   D221      -2.89192  -0.00290  -0.01820  -0.03485  -0.04640  -2.93832
   D222       1.51533  -0.00088   0.00834  -0.01097  -0.00357   1.51176
   D223       1.35983  -0.00393  -0.01276  -0.02282  -0.04658   1.31324
   D224      -1.78135  -0.00381  -0.02324  -0.02606  -0.04701  -1.82835
   D225       2.65563  -0.00288  -0.01181  -0.06445  -0.08102   2.57461
   D226      -0.48554  -0.00276  -0.02229  -0.06769  -0.08145  -0.56698
   D227      -2.74059   0.00030  -0.00526  -0.00700  -0.01698  -2.75757
   D228       0.40142   0.00041  -0.01575  -0.01023  -0.01740   0.38402
   D229      -2.60038   0.00364   0.07237   0.02385   0.09071  -2.50967
   D230      -2.65740   0.00012   0.00422   0.02700   0.01756  -2.63984
   D231       2.68382   0.00394   0.11938   0.10428   0.18186   2.86568
   D232       1.58322   0.00168   0.10203   0.09222   0.16405   1.74727
   D233      -0.93751  -0.00200  -0.03857  -0.03499  -0.07138  -1.00889
   D234      -2.07252   0.00031   0.02152   0.00513  -0.01305  -2.08557
   D235      -1.89815  -0.00107  -0.01322  -0.02086  -0.03738  -1.93553
   D236       0.64829  -0.00099   0.01658   0.01895  -0.00091   0.64739
   D237       0.82266  -0.00237  -0.01816  -0.00704  -0.02523   0.79743
   D238       1.16625  -0.00162   0.00199   0.00979  -0.02644   1.13981
   D239       1.34062  -0.00300  -0.03275  -0.01620  -0.05077   1.28985
   D240       0.82119  -0.00131   0.00260   0.01035  -0.02299   0.79819
   D241       0.99556  -0.00269  -0.03214  -0.01564  -0.04732   0.94824
   D242       2.00254   0.00053   0.00976  -0.00469  -0.03825   1.96428
   D243       2.17691  -0.00085  -0.02498  -0.03068  -0.06258   2.11433
   D244       0.88587   0.00113   0.05192   0.02714   0.05419   0.94006
   D245       1.06023  -0.00025   0.01718   0.00115   0.02986   1.09010
   D246       3.02713   0.00287  -0.01285   0.02551   0.01242   3.03955
   D247       0.35766  -0.00098  -0.02379  -0.00125  -0.02567   0.33199
   D248      -1.24328   0.00253  -0.01357   0.02927   0.01549  -1.22779
   D249       2.37044  -0.00132  -0.02451   0.00250  -0.02261   2.34782
   D250      -0.96854  -0.00533   0.00785  -0.02152  -0.01348  -0.98202
   D251       1.77076  -0.00221   0.01859  -0.00124   0.01777   1.78853
         Item               Value     Threshold  Converged?
 Maximum Force            0.026474     0.000450     NO 
 RMS     Force            0.002643     0.000300     NO 
 Maximum Displacement     0.376523     0.001800     NO 
 RMS     Displacement     0.054628     0.001200     NO 
 Predicted change in Energy=-1.319311D-02
 GradGradGradGradGradGradGradGradGradGradGradGradGradGradGradGradGradGrad

 Stoichiometry    C24H27N7OS3
 Framework group  C1[X(C24H27N7OS3)]
 Deg. of freedom   180
 Full point group                 C1      NOp   1
 Largest Abelian subgroup         C1      NOp   1
 Largest concise Abelian subgroup C1      NOp   1
                         Standard orientation:                         
 ---------------------------------------------------------------------
 Center     Atomic      Atomic             Coordinates (Angstroms)
 Number     Number       Type             X           Y           Z
 ---------------------------------------------------------------------
      1          6           0        4.239520   -2.899079   -1.447140
      2          6           0        4.699648   -3.472411   -0.109769
      3          6           0        4.908048   -2.355741    0.906921
      4          6           0        6.005024   -1.537718    1.514436
      5          6           0        5.860767   -0.099585    0.929609
      6          6           0        4.423802    0.525278    0.971086
      7          6           0        4.197809    1.349140   -0.329709
      8          7           0        4.817694    2.704386   -0.123498
      9         16           0        3.623438    3.971449   -0.542567
     10          7           0        2.335252    2.841111   -0.144462
     11          6           0        2.735642    1.582646   -0.809780
     12          6           0        1.751722    0.427119   -0.554094
     13          6           0        1.867803    0.012756    0.992159
     14          8           0        0.950321   -0.962596    1.514677
     15          6           0       -0.392324   -0.410463    1.360276
     16          6           0       -1.504285   -1.431161    1.174673
     17          6           0       -2.657452   -0.971580    0.174660
     18          6           0       -3.773965   -0.218242    0.874610
     19          7           0       -3.514545    0.503404    1.939284
     20          6           0       -4.516506    1.204954    2.571200
     21          6           0       -5.834829    1.225878    2.186316
     22          6           0       -6.171942    0.461010    1.037691
     23          7           0       -7.379072    0.322565    0.465745
     24         16           0       -7.164256   -0.665954   -0.828424
     25          7           0       -5.551638   -0.951930   -0.714336
     26          6           0       -5.126571   -0.271334    0.361679
     27          6           0       -2.187517   -0.188701   -1.052857
     28          7           0       -0.837300   -0.820318   -3.269405
     29         16           0       -0.520718   -0.844739   -1.693694
     30          7           0       -2.233259    1.263180   -1.272878
     31          6           0       -2.850514    0.526962   -2.116825
     32          6           0        0.340382    0.822010   -1.176007
     33          6           0        3.278271   -0.519735    1.300891
     34          6           0        3.647911   -1.882956    0.770760
     35          6           0        3.271348   -2.947611   -0.267278
     36          1           0        4.063512   -3.623241   -2.245110
     37          1           0        4.639989   -1.943650   -1.788314
     38          1           0        4.973281   -4.521768   -0.027379
     39          1           0        7.008462   -1.936677    1.314531
     40          1           0        5.896008   -1.510753    2.610063
     41          1           0        6.174494   -0.185753   -0.121932
     42          1           0        6.568619    0.592130    1.405251
     43          1           0        4.386443    1.250262    1.791261
     44          1           0        4.705465    0.844201   -1.165759
     45          1           0        5.587144    2.828277   -0.781625
     46          1           0        1.464943    3.211424   -0.531011
     47          1           0        2.787847    1.726480   -1.904302
     48          1           0        2.122603   -0.428089   -1.135308
     49          1           0        1.745804    0.960394    1.555425
     50          1           0       -0.585031    0.307839    2.158135
     51          1           0       -2.011624   -1.667450    2.115069
     52          1           0       -1.077313   -2.356576    0.783482
     53          1           0       -3.077124   -1.901686   -0.232172
     54          1           0       -4.194713    1.770085    3.441103
     55          1           0       -6.584599    1.794335    2.726633
     56          1           0       -0.126583    0.036535    0.440413
     57          1           0        0.023853   -0.883860   -3.828167
     58          1           0       -0.316443    1.417070   -0.558180
     59          1           0       -3.645627    0.810476   -2.794636
     60          1           0        0.454322    1.287187   -2.156480
     61          1           0        3.292435   -0.616372    2.396856
     62          1           0        2.375155   -3.557542   -0.294495
 ---------------------------------------------------------------------
 Rotational constants (GHZ):      0.2042375      0.0516762      0.0484414
 Standard basis: 6-31++G(d,p) (6D, 7F)
 There are   839 symmetry adapted basis functions of A   symmetry.
 Integral buffers will be    131072 words long.
 Raffenetti 2 integral format.
 Two-electron integral symmetry is turned on.
   839 basis functions,  1408 primitive gaussians,   839 cartesian basis functions
   138 alpha electrons      138 beta electrons
       nuclear repulsion energy      4406.3231072319 Hartrees.
 NAtoms=   62 NActive=   62 NUniq=   62 SFac= 1.00D+00 NAtFMM=   60 NAOKFM=T Big=T
 One-electron integrals computed using PRISM.
 NBasis=   839 RedAO= T  NBF=   839
 NBsUse=   834 1.00D-06 NBFU=   834
 Initial guess read from the read-write file.
 B after Tr=     0.000000    0.000000    0.000000
         Rot=    1.000000   -0.000000   -0.000000    0.000000 Ang=   0.00 deg.
 Initial guess orbital symmetries:
       Occupied  (A) (A) (A) (A) (A) (A) (A) (A) (A) (A) (A) (A)
                 (A) (A) (A) (A) (A) (A) (A) (A) (A) (A) (A) (A)
                 (A) (A) (A) (A) (A) (A) (A) (A) (A) (A) (A) (A)
                 (A) (A) (A) (A) (A) (A) (A) (A) (A) (A) (A) (A)
                 (A) (A) (A) (A) (A) (A) (A) (A) (A) (A) (A) (A)
                 (A) (A) (A) (A) (A) (A) (A) (A) (A) (A) (A) (A)
                 (A) (A) (A) (A) (A) (A) (A) (A) (A) (A) (A) (A)
                 (A) (A) (A) (A) (A) (A) (A) (A) (A) (A) (A) (A)
                 (A) (A) (A) (A) (A) (A) (A) (A) (A) (A) (A) (A)
                 (A) (A) (A) (A) (A) (A) (A) (A) (A) (A) (A) (A)
                 (A) (A) (A) (A) (A) (A) (A) (A) (A) (A) (A) (A)
                 (A) (A) (A) (A) (A) (A)
       Virtual   (A) (A) (A) (A) (A) (A) (A) (A) (A) (A) (A) (A)
                 (A) (A) (A) (A) (A) (A) (A) (A) (A) (A) (A) (A)
                 (A) (A) (A) (A) (A) (A) (A) (A) (A) (A) (A) (A)
                 (A) (A) (A) (A) (A) (A) (A) (A) (A) (A) (A) (A)
                 (A) (A) (A) (A) (A) (A) (A) (A) (A) (A) (A) (A)
                 (A) (A) (A) (A) (A) (A) (A) (A) (A) (A) (A) (A)
                 (A) (A) (A) (A) (A) (A) (A) (A) (A) (A) (A) (A)
                 (A) (A) (A) (A) (A) (A) (A) (A) (A) (A) (A) (A)
                 (A) (A) (A) (A) (A) (A) (A) (A) (A) (A) (A) (A)
                 (A) (A) (A) (A) (A) (A) (A) (A) (A) (A) (A) (A)
                 (A) (A) (A) (A) (A) (A) (A) (A) (A) (A) (A) (A)
                 (A) (A) (A) (A) (A) (A) (A) (A) (A) (A) (A) (A)
                 (A) (A) (A) (A) (A) (A) (A) (A) (A) (A) (A) (A)
                 (A) (A) (A) (A) (A) (A) (A) (A) (A) (A) (A) (A)
                 (A) (A) (A) (A) (A) (A) (A) (A) (A) (A) (A) (A)
                 (A) (A) (A) (A) (A) (A) (A) (A) (A) (A) (A) (A)
                 (A) (A) (A) (A) (A) (A) (A) (A) (A) (A) (A) (A)
                 (A) (A) (A) (A) (A) (A) (A) (A) (A) (A) (A) (A)
                 (A) (A) (A) (A) (A) (A) (A) (A) (A) (A) (A) (A)
                 (A) (A) (A) (A) (A) (A) (A) (A) (A) (A) (A) (A)
                 (A) (A) (A) (A) (A) (A) (A) (A) (A) (A) (A) (A)
                 (A) (A) (A) (A) (A) (A) (A) (A) (A) (A) (A) (A)
                 (A) (A) (A) (A) (A) (A) (A) (A) (A) (A) (A) (A)
                 (A) (A) (A) (A) (A) (A) (A) (A) (A) (A) (A) (A)
                 (A) (A) (A) (A) (A) (A) (A) (A) (A) (A) (A) (A)
                 (A) (A) (A) (A) (A) (A) (A) (A) (A) (A) (A) (A)
                 (A) (A) (A) (A) (A) (A) (A) (A) (A) (A) (A) (A)
                 (A) (A) (A) (A) (A) (A) (A) (A) (A) (A) (A) (A)
                 (A) (A) (A) (A) (A) (A) (A) (A) (A) (A) (A) (A)
                 (A) (A) (A) (A) (A) (A) (A) (A) (A) (A) (A) (A)
                 (A) (A) (A) (A) (A) (A) (A) (A) (A) (A) (A) (A)
                 (A) (A) (A) (A) (A) (A) (A) (A) (A) (A) (A) (A)
                 (A) (A) (A) (A) (A) (A) (A) (A) (A) (A) (A) (A)
                 (A) (A) (A) (A) (A) (A) (A) (A) (A) (A) (A) (A)
                 (A) (A) (A) (A) (A) (A) (A) (A) (A) (A) (A) (A)
                 (A) (A) (A) (A) (A) (A) (A) (A) (A) (A) (A) (A)
                 (A) (A) (A) (A) (A) (A) (A) (A) (A) (A) (A) (A)
                 (A) (A) (A) (A) (A) (A) (A) (A) (A) (A) (A) (A)
                 (A) (A) (A) (A) (A) (A) (A) (A) (A) (A) (A) (A)
                 (A) (A) (A) (A) (A) (A) (A) (A) (A) (A) (A) (A)
                 (A) (A) (A) (A) (A) (A) (A) (A) (A) (A) (A) (A)
                 (A) (A) (A) (A) (A) (A) (A) (A) (A) (A) (A) (A)
                 (A) (A) (A) (A) (A) (A) (A) (A) (A) (A) (A) (A)
                 (A) (A) (A) (A) (A) (A) (A) (A) (A) (A) (A) (A)
                 (A) (A) (A) (A) (A) (A) (A) (A) (A) (A) (A) (A)
                 (A) (A) (A) (A) (A) (A) (A) (A) (A) (A) (A) (A)
                 (A) (A) (A) (A) (A) (A) (A) (A) (A) (A) (A) (A)
                 (A) (A) (A) (A) (A) (A) (A) (A) (A) (A) (A) (A)
                 (A) (A) (A) (A) (A) (A) (A) (A) (A) (A) (A) (A)
                 (A) (A) (A) (A) (A) (A) (A) (A) (A) (A) (A) (A)
                 (A) (A) (A) (A) (A) (A) (A) (A) (A) (A) (A) (A)
                 (A) (A) (A) (A) (A) (A) (A) (A) (A) (A) (A) (A)
                 (A) (A) (A) (A) (A) (A) (A) (A) (A) (A) (A) (A)
                 (A) (A) (A) (A) (A) (A) (A) (A) (A) (A) (A) (A)
                 (A) (A) (A) (A) (A) (A) (A) (A) (A) (A) (A) (A)
                 (A) (A) (A) (A) (A) (A) (A) (A) (A) (A) (A) (A)
                 (A) (A) (A) (A) (A) (A) (A) (A) (A) (A) (A) (A)
                 (A) (A) (A) (A) (A) (A) (A) (A) (A) (A) (A) (A)
 Harris functional with IExCor=  402 diagonalized for initial guess.
 ExpMin= 3.60D-02 ExpMax= 2.19D+04 ExpMxC= 3.30D+03 IAcc=3 IRadAn=         5 AccDes= 0.00D+00
 HarFok:  IExCor=  402 AccDes= 0.00D+00 IRadAn=         5 IDoV= 1
 ScaDFX=  1.000000  1.000000  1.000000  1.000000
 FoFCou: FMM=F IPFlag=           0 FMFlag=      100000 FMFlg1=        2001
         NFxFlg=           0 DoJE=T BraDBF=F KetDBF=T FulRan=T
         Omega=  0.000000  0.000000  1.000000  0.000000  0.000000 ICntrl=     500 IOpCl=  0
         NMat0=    1 NMatS0=    1 NMatT0=    0 NMatD0=    1 NMtDS0=    0 NMtDT0=    0
         I1Cent=           4 NGrid=           0.
 Petite list used in FoFCou.
 Requested convergence on RMS density matrix=1.00D-08 within 128 cycles.
 Requested convergence on MAX density matrix=1.00D-06.
 Requested convergence on             energy=1.00D-06.
 No special actions if energy rises.
 Restarting incremental Fock formation.
 SCF Done:  E(RB3LYP) =  -2583.50767705     A.U. after   24 cycles
             Convg  =    0.2121D-08             -V/T =  2.0067
 Calling FoFJK, ICntrl=      2127 FMM=T ISym2X=0 I1Cent= 0 IOpClX= 0 NMat=1 NMatS=1 NMatT=0.
 ***** Axes restored to original set *****
 -------------------------------------------------------------------
 Center     Atomic                   Forces (Hartrees/Bohr)
 Number     Number              X              Y              Z
 -------------------------------------------------------------------
      1        6           0.001781801   -0.001745603    0.001907566
      2        6          -0.002062527    0.000860168   -0.001588276
      3        6          -0.002116592    0.005614841    0.003925089
      4        6           0.000990284   -0.000490871    0.000459173
      5        6           0.000693039   -0.000417813   -0.001560479
      6        6          -0.002352153    0.001421193    0.003789165
      7        6          -0.001412942    0.002405257   -0.001040913
      8        7          -0.000368067    0.001115996   -0.002842950
      9       16           0.000993615   -0.001667626   -0.000105014
     10        7          -0.003107625    0.000080401   -0.000003843
     11        6           0.002326433   -0.002334201   -0.000297108
     12        6          -0.003013565    0.000766857    0.009617419
     13        6           0.010323851   -0.001041797   -0.004952650
     14        8          -0.005771071   -0.003773914    0.002000608
     15        6          -0.003994610   -0.019669898   -0.011577033
     16        6          -0.001139382    0.010782275    0.002633643
     17        6          -0.002623872   -0.006690343    0.005469706
     18        6          -0.001543284    0.005921836    0.002392306
     19        7          -0.000317325   -0.000164453    0.000075538
     20        6          -0.000719536    0.001094806    0.000123417
     21        6           0.000831857   -0.001732466   -0.000065342
     22        6          -0.000502135    0.000841924   -0.000549904
     23        7           0.000663745   -0.001264115    0.000105563
     24       16          -0.000143255    0.000120322   -0.000142512
     25        7           0.001134836   -0.001863910    0.000395585
     26        6           0.000417266   -0.002520115   -0.001962006
     27        6          -0.004070672   -0.009773316   -0.026923268
     28        7           0.003297325    0.009504366    0.000924152
     29       16           0.009226026   -0.000833873   -0.000917643
     30        7          -0.007897881    0.011713854    0.014298226
     31        6           0.014516644    0.004362663    0.023865987
     32        6          -0.008517902   -0.028454876   -0.028319206
     33        6          -0.002045693    0.003865053   -0.002449959
     34        6           0.001149783   -0.004284433   -0.006297686
     35        6           0.003096116   -0.000856952    0.001233809
     36        1           0.000351760   -0.000252106    0.000756656
     37        1          -0.001302753    0.000115869    0.000763067
     38        1           0.001472179   -0.000589999    0.001437893
     39        1           0.000548724    0.002095300    0.000545546
     40        1          -0.000473474    0.000673055   -0.000800237
     41        1           0.001347155   -0.000375885    0.002012690
     42        1          -0.001600326    0.000103776    0.000488182
     43        1           0.001190396    0.000565789   -0.001553033
     44        1           0.000204582   -0.001290160    0.002107929
     45        1          -0.000073002    0.000890437    0.001078578
     46        1           0.000096276   -0.000831304   -0.000768945
     47        1           0.000786436   -0.000620076    0.001065211
     48        1           0.000663673    0.000200898   -0.000124386
     49        1          -0.005121135    0.000510899   -0.001552796
     50        1           0.002021230    0.002981911    0.002035155
     51        1           0.000453786   -0.003148430   -0.001615559
     52        1           0.000295069   -0.000788786   -0.001284781
     53        1           0.000803639    0.001765043    0.002665471
     54        1           0.000021332   -0.000290261   -0.000376336
     55        1          -0.000174006   -0.000230210   -0.000796548
     56        1           0.005145027    0.031947138    0.024776409
     57        1          -0.005168135   -0.002074108    0.005611883
     58        1           0.007199929   -0.001493917   -0.001983622
     59        1          -0.010828456   -0.000350277   -0.012611786
     60        1           0.004473837   -0.000885838   -0.002516151
     61        1          -0.000554920    0.000214934   -0.001626627
     62        1           0.000498644    0.000265069    0.000644977
 -------------------------------------------------------------------
 Cartesian Forces:  Max     0.031947138 RMS     0.006326424

 GradGradGradGradGradGradGradGradGradGradGradGradGradGradGradGradGradGrad
 Berny optimization.
 Using GEDIIS/GDIIS optimizer.
 NTrRot=    -1 NTRed=   480 NAtoms=    62 NSkip=   300 IsLin=F
 Error in internal coordinate system.
 Error termination via Lnk1e in /opt/gaussian/g09/l103.exe at Mon Dec 30 01:06:19 2013.
 Job cpu time:  9 days 14 hours 43 minutes 35.0 seconds.
 File lengths (MBytes):  RWF=    455 Int=      0 D2E=      0 Chk=     56 Scr=      1
