 Entering Gaussian System, Link 0=g09
 Initial command:
 /opt/gaussian/g09/l1.exe /panfs/panfs.cluster/home/shuo/Gau-26858.inp -scrdir=/panfs/panfs.cluster/home/shuo/
 Default is to use a total of  12 processors:
                               12 via shared-memory
                                1 via Linda
 Entering Link 1 = /opt/gaussian/g09/l1.exe PID=     26859.
  
 Copyright (c) 1988,1990,1992,1993,1995,1998,2003,2009,2011,
            Gaussian, Inc.  All Rights Reserved.
  
 This is part of the Gaussian(R) 09 program.  It is based on
 the Gaussian(R) 03 system (copyright 2003, Gaussian, Inc.),
 the Gaussian(R) 98 system (copyright 1998, Gaussian, Inc.),
 the Gaussian(R) 94 system (copyright 1995, Gaussian, Inc.),
 the Gaussian 92(TM) system (copyright 1992, Gaussian, Inc.),
 the Gaussian 90(TM) system (copyright 1990, Gaussian, Inc.),
 the Gaussian 88(TM) system (copyright 1988, Gaussian, Inc.),
 the Gaussian 86(TM) system (copyright 1986, Carnegie Mellon
 University), and the Gaussian 82(TM) system (copyright 1983,
 Carnegie Mellon University). Gaussian is a federally registered
 trademark of Gaussian, Inc.
  
 This software contains proprietary and confidential information,
 including trade secrets, belonging to Gaussian, Inc.
  
 This software is provided under written license and may be
 used, copied, transmitted, or stored only in accord with that
 written license.
  
 The following legend is applicable only to US Government
 contracts under FAR:
  
                    RESTRICTED RIGHTS LEGEND
  
 Use, reproduction and disclosure by the US Government is
 subject to restrictions as set forth in subparagraphs (a)
 and (c) of the Commercial Computer Software - Restricted
 Rights clause in FAR 52.227-19.
  
 Gaussian, Inc.
 340 Quinnipiac St., Bldg. 40, Wallingford CT 06492
  
  
 ---------------------------------------------------------------
 Warning -- This program may not be used in any manner that
 competes with the business of Gaussian, Inc. or will provide
 assistance to any competitor of Gaussian, Inc.  The licensee
 of this program is prohibited from giving any competitor of
 Gaussian, Inc. access to this program.  By using this program,
 the user acknowledges that Gaussian, Inc. is engaged in the
 business of creating and licensing software in the field of
 computational chemistry and represents and warrants to the
 licensee that it is not a competitor of Gaussian, Inc. and that
 it will not use this program in any manner prohibited above.
 ---------------------------------------------------------------
  

 Cite this work as:
 Gaussian 09, Revision C.01,
 M. J. Frisch, G. W. Trucks, H. B. Schlegel, G. E. Scuseria, 
 M. A. Robb, J. R. Cheeseman, G. Scalmani, V. Barone, B. Mennucci, 
 G. A. Petersson, H. Nakatsuji, M. Caricato, X. Li, H. P. Hratchian, 
 A. F. Izmaylov, J. Bloino, G. Zheng, J. L. Sonnenberg, M. Hada, 
 M. Ehara, K. Toyota, R. Fukuda, J. Hasegawa, M. Ishida, T. Nakajima, 
 Y. Honda, O. Kitao, H. Nakai, T. Vreven, J. A. Montgomery, Jr., 
 J. E. Peralta, F. Ogliaro, M. Bearpark, J. J. Heyd, E. Brothers, 
 K. N. Kudin, V. N. Staroverov, T. Keith, R. Kobayashi, J. Normand, 
 K. Raghavachari, A. Rendell, J. C. Burant, S. S. Iyengar, J. Tomasi, 
 M. Cossi, N. Rega, J. M. Millam, M. Klene, J. E. Knox, J. B. Cross, 
 V. Bakken, C. Adamo, J. Jaramillo, R. Gomperts, R. E. Stratmann, 
 O. Yazyev, A. J. Austin, R. Cammi, C. Pomelli, J. W. Ochterski, 
 R. L. Martin, K. Morokuma, V. G. Zakrzewski, G. A. Voth, 
 P. Salvador, J. J. Dannenberg, S. Dapprich, A. D. Daniels, 
 O. Farkas, J. B. Foresman, J. V. Ortiz, J. Cioslowski, 
 and D. J. Fox, Gaussian, Inc., Wallingford CT, 2010.
 
 ******************************************
 Gaussian 09:  EM64L-G09RevC.01 23-Sep-2011
                29-Dec-2013 
 ******************************************
 %chk=61_C19H12N4S3Si.chk
 %NProcShared=12
 Will use up to   12 processors via shared memory.
 %Mem=8000MB
 Default route:  MaxDisk=100GB
 --------------------------------------------
 #B3LYP/6-31++G(d,p) opt scf=direct freq test
 --------------------------------------------
 1/14=-1,18=20,19=15,26=3,38=1/1,3;
 2/9=110,12=2,17=6,18=5,40=1/2;
 3/5=1,6=6,7=1111,11=2,16=1,25=1,30=1,71=1,74=-5/1,2,3;
 4//1;
 5/5=2,38=5/2;
 6/7=2,8=2,9=2,10=2,28=1/1;
 7//1,2,3,16;
 1/14=-1,18=20,19=15/3(2);
 2/9=110/2;
 99//99;
 2/9=110/2;
 3/5=1,6=6,7=1111,11=2,16=1,25=1,30=1,71=1,74=-5/1,2,3;
 4/5=5,16=3/1;
 5/5=2,38=5/2;
 7//1,2,3,16;
 1/14=-1,18=20,19=15/3(-5);
 2/9=110/2;
 6/7=2,8=2,9=2,10=2,19=2,28=1/1;
 99/9=1/99;
 ----------------------------------------------------------------------
 Geom opt of No.61 candidate from the CEPDB database with SMILE code of
  [SiH2]1C=Cc2c1c1oc3cc(sc3c1c1ccccc21)-c1cncc2nsnc12, HPC, 20131227, S
 huo Dai, Gaussian09
 ----------------------------------------------------------------------
 Charge =  0 Multiplicity = 1
 Symbolic Z-Matrix:
 Si                    3.07628   1.44522   0.35864 
 H                     4.38987   0.8098   -0.40288 
 H                     2.55329   1.27282  -1.09881 
 C                     2.72727  -0.53712   0.0151 
 C                     3.64118  -0.94721   0.9203 
 C                     2.99971  -0.64542   2.21225 
 C                     2.59327   0.68817   2.4486 
 C                     1.88241   0.88004   3.69843 
 O                     1.46553   2.02428   4.46504 
 C                     0.66648   1.52029   5.51415 
 C                    -0.10341   1.95689   6.66495 
 C                     0.86796   2.44039   7.55173 
 S                     1.29603   0.39683   7.65871 
 C                     1.20048   0.33124   5.8152 
 C                     1.55604  -0.27914   4.53964 
 C                     1.72043  -1.63055   3.99915 
 C                     1.2219   -2.90609   4.45506 
 C                     1.42186  -4.11365   3.71514 
 C                     2.10585  -4.14417   2.53432 
 C                     2.65326  -2.95297   2.12111 
 C                     2.46242  -1.76656   2.85765 
 C                     0.4147    3.45358   8.64809 
 C                     0.45577   4.89751   8.56824 
 N                    -0.03043   5.87594   9.46372 
 C                    -0.70697   5.51632   10.58879 
 C                    -0.98942   4.14882   10.73264 
 N                    -1.70047   3.61324   11.73714 
 S                    -1.78803   1.99143   11.42576 
 N                    -0.92329   1.8874    10.01701 
 C                    -0.45314   3.11223   9.72795 
 H                     1.64145  -0.61718   0.15894 
 H                     4.69825  -0.68134   0.95195 
 H                    -0.85894   1.49285   7.35547 
 H                     0.64395  -2.97494   5.36292 
 H                     1.02631  -5.06962   4.05817 
 H                     2.27224  -4.99208   1.88839 
 H                     3.16889  -3.00798   1.17315 
 H                     0.90831   5.42516   7.71865 
 H                    -1.00794   6.26436   11.31961 
 

 GradGradGradGradGradGradGradGradGradGradGradGradGradGradGradGradGradGrad
 Berny optimization.
 Initialization pass.
                           ----------------------------
                           !    Initial Parameters    !
                           ! (Angstroms and Degrees)  !
 --------------------------                            --------------------------
 ! Name  Definition              Value          Derivative Info.                !
 --------------------------------------------------------------------------------
 ! R1    R(1,2)                  1.646          estimate D2E/DX2                !
 ! R2    R(1,3)                  1.558          estimate D2E/DX2                !
 ! R3    R(1,4)                  2.0419         estimate D2E/DX2                !
 ! R4    R(4,5)                  1.3501         estimate D2E/DX2                !
 ! R5    R(4,31)                 1.0982         estimate D2E/DX2                !
 ! R6    R(5,6)                  1.4737         estimate D2E/DX2                !
 ! R7    R(5,32)                 1.0905         estimate D2E/DX2                !
 ! R8    R(6,7)                  1.414          estimate D2E/DX2                !
 ! R9    R(6,21)                 1.4008         estimate D2E/DX2                !
 ! R10   R(7,8)                  1.4506         estimate D2E/DX2                !
 ! R11   R(8,9)                  1.439          estimate D2E/DX2                !
 ! R12   R(8,15)                 1.469          estimate D2E/DX2                !
 ! R13   R(9,10)                 1.4118         estimate D2E/DX2                !
 ! R14   R(10,11)                1.4518         estimate D2E/DX2                !
 ! R15   R(10,14)                1.3378         estimate D2E/DX2                !
 ! R16   R(11,12)                1.4013         estimate D2E/DX2                !
 ! R17   R(11,13)                2.3194         estimate D2E/DX2                !
 ! R18   R(11,33)                1.1238         estimate D2E/DX2                !
 ! R19   R(12,13)                2.0907         estimate D2E/DX2                !
 ! R20   R(12,22)                1.5601         estimate D2E/DX2                !
 ! R21   R(13,14)                1.8471         estimate D2E/DX2                !
 ! R22   R(14,15)                1.4581         estimate D2E/DX2                !
 ! R23   R(15,16)                1.4647         estimate D2E/DX2                !
 ! R24   R(16,17)                1.4434         estimate D2E/DX2                !
 ! R25   R(16,21)                1.3682         estimate D2E/DX2                !
 ! R26   R(17,18)                1.4303         estimate D2E/DX2                !
 ! R27   R(17,34)                1.0784         estimate D2E/DX2                !
 ! R28   R(18,19)                1.365          estimate D2E/DX2                !
 ! R29   R(18,35)                1.09           estimate D2E/DX2                !
 ! R30   R(19,20)                1.3745         estimate D2E/DX2                !
 ! R31   R(19,36)                1.0788         estimate D2E/DX2                !
 ! R32   R(20,21)                1.4094         estimate D2E/DX2                !
 ! R33   R(20,37)                1.0805         estimate D2E/DX2                !
 ! R34   R(22,23)                1.4467         estimate D2E/DX2                !
 ! R35   R(22,30)                1.4268         estimate D2E/DX2                !
 ! R36   R(23,24)                1.4127         estimate D2E/DX2                !
 ! R37   R(23,38)                1.0977         estimate D2E/DX2                !
 ! R38   R(24,25)                1.3612         estimate D2E/DX2                !
 ! R39   R(25,26)                1.4038         estimate D2E/DX2                !
 ! R40   R(25,39)                1.0882         estimate D2E/DX2                !
 ! R41   R(26,27)                1.3422         estimate D2E/DX2                !
 ! R42   R(26,30)                1.54           estimate D2E/DX2                !
 ! R43   R(27,28)                1.6538         estimate D2E/DX2                !
 ! R44   R(28,29)                1.6563         estimate D2E/DX2                !
 ! R45   R(29,30)                1.3434         estimate D2E/DX2                !
 ! A1    A(2,1,3)               78.017          estimate D2E/DX2                !
 ! A2    A(2,1,4)               71.5659         estimate D2E/DX2                !
 ! A3    A(3,1,4)               71.2051         estimate D2E/DX2                !
 ! A4    A(1,4,5)               93.8062         estimate D2E/DX2                !
 ! A5    A(1,4,31)             102.5755         estimate D2E/DX2                !
 ! A6    A(5,4,31)             124.0082         estimate D2E/DX2                !
 ! A7    A(4,5,6)              103.352          estimate D2E/DX2                !
 ! A8    A(4,5,32)             126.9842         estimate D2E/DX2                !
 ! A9    A(6,5,32)             110.2787         estimate D2E/DX2                !
 ! A10   A(5,6,7)              117.6964         estimate D2E/DX2                !
 ! A11   A(5,6,21)             114.0156         estimate D2E/DX2                !
 ! A12   A(7,6,21)             124.5811         estimate D2E/DX2                !
 ! A13   A(6,7,8)              114.1805         estimate D2E/DX2                !
 ! A14   A(7,8,9)              134.9221         estimate D2E/DX2                !
 ! A15   A(7,8,15)             119.8613         estimate D2E/DX2                !
 ! A16   A(9,8,15)             104.9533         estimate D2E/DX2                !
 ! A17   A(8,9,10)             106.0207         estimate D2E/DX2                !
 ! A18   A(9,10,11)            141.429          estimate D2E/DX2                !
 ! A19   A(9,10,14)            104.9873         estimate D2E/DX2                !
 ! A20   A(11,10,14)           107.4936         estimate D2E/DX2                !
 ! A21   A(10,11,12)           103.7558         estimate D2E/DX2                !
 ! A22   A(10,11,13)            79.478          estimate D2E/DX2                !
 ! A23   A(10,11,33)           136.0043         estimate D2E/DX2                !
 ! A24   A(12,11,33)           102.6888         estimate D2E/DX2                !
 ! A25   A(13,11,33)            82.2208         estimate D2E/DX2                !
 ! A26   A(11,12,22)           117.8648         estimate D2E/DX2                !
 ! A27   A(13,12,22)           131.1723         estimate D2E/DX2                !
 ! A28   A(11,13,14)            64.219          estimate D2E/DX2                !
 ! A29   A(12,13,14)            88.4555         estimate D2E/DX2                !
 ! A30   A(10,14,13)           102.3383         estimate D2E/DX2                !
 ! A31   A(10,14,15)           105.816          estimate D2E/DX2                !
 ! A32   A(13,14,15)           151.0852         estimate D2E/DX2                !
 ! A33   A(8,15,14)            102.9917         estimate D2E/DX2                !
 ! A34   A(8,15,16)            119.4599         estimate D2E/DX2                !
 ! A35   A(14,15,16)           137.4257         estimate D2E/DX2                !
 ! A36   A(15,16,17)           131.3013         estimate D2E/DX2                !
 ! A37   A(15,16,21)           117.4148         estimate D2E/DX2                !
 ! A38   A(17,16,21)           111.283          estimate D2E/DX2                !
 ! A39   A(16,17,18)           122.3042         estimate D2E/DX2                !
 ! A40   A(16,17,34)           120.4926         estimate D2E/DX2                !
 ! A41   A(18,17,34)           117.1638         estimate D2E/DX2                !
 ! A42   A(17,18,19)           122.444          estimate D2E/DX2                !
 ! A43   A(17,18,35)           121.7997         estimate D2E/DX2                !
 ! A44   A(19,18,35)           115.7538         estimate D2E/DX2                !
 ! A45   A(18,19,20)           116.1199         estimate D2E/DX2                !
 ! A46   A(18,19,36)           127.794          estimate D2E/DX2                !
 ! A47   A(20,19,36)           116.0855         estimate D2E/DX2                !
 ! A48   A(19,20,21)           121.2297         estimate D2E/DX2                !
 ! A49   A(19,20,37)           114.1837         estimate D2E/DX2                !
 ! A50   A(21,20,37)           124.4675         estimate D2E/DX2                !
 ! A51   A(6,21,16)            120.853          estimate D2E/DX2                !
 ! A52   A(6,21,20)            112.3965         estimate D2E/DX2                !
 ! A53   A(16,21,20)           126.3764         estimate D2E/DX2                !
 ! A54   A(12,22,23)           126.9516         estimate D2E/DX2                !
 ! A55   A(12,22,30)           123.5868         estimate D2E/DX2                !
 ! A56   A(23,22,30)           107.3267         estimate D2E/DX2                !
 ! A57   A(22,23,24)           130.28           estimate D2E/DX2                !
 ! A58   A(22,23,38)           122.2875         estimate D2E/DX2                !
 ! A59   A(24,23,38)           107.4318         estimate D2E/DX2                !
 ! A60   A(23,24,25)           120.7983         estimate D2E/DX2                !
 ! A61   A(24,25,26)           116.2366         estimate D2E/DX2                !
 ! A62   A(24,25,39)           120.7259         estimate D2E/DX2                !
 ! A63   A(26,25,39)           123.0363         estimate D2E/DX2                !
 ! A64   A(25,26,27)           124.8911         estimate D2E/DX2                !
 ! A65   A(25,26,30)           121.2526         estimate D2E/DX2                !
 ! A66   A(27,26,30)           113.8381         estimate D2E/DX2                !
 ! A67   A(26,27,28)           106.1685         estimate D2E/DX2                !
 ! A68   A(27,28,29)           101.1924         estimate D2E/DX2                !
 ! A69   A(28,29,30)           107.9667         estimate D2E/DX2                !
 ! A70   A(22,30,26)           122.9934         estimate D2E/DX2                !
 ! A71   A(22,30,29)           126.4291         estimate D2E/DX2                !
 ! A72   A(26,30,29)           110.5761         estimate D2E/DX2                !
 ! D1    D(2,1,4,5)             69.8361         estimate D2E/DX2                !
 ! D2    D(2,1,4,31)          -164.066          estimate D2E/DX2                !
 ! D3    D(3,1,4,5)            153.0744         estimate D2E/DX2                !
 ! D4    D(3,1,4,31)           -80.8277         estimate D2E/DX2                !
 ! D5    D(1,4,5,6)             72.7903         estimate D2E/DX2                !
 ! D6    D(1,4,5,32)           -55.8691         estimate D2E/DX2                !
 ! D7    D(31,4,5,6)           -35.1556         estimate D2E/DX2                !
 ! D8    D(31,4,5,32)         -163.815          estimate D2E/DX2                !
 ! D9    D(4,5,6,7)            -56.4352         estimate D2E/DX2                !
 ! D10   D(4,5,6,21)           102.8988         estimate D2E/DX2                !
 ! D11   D(32,5,6,7)            81.8841         estimate D2E/DX2                !
 ! D12   D(32,5,6,21)         -118.7819         estimate D2E/DX2                !
 ! D13   D(5,6,7,8)            175.6187         estimate D2E/DX2                !
 ! D14   D(21,6,7,8)            18.6695         estimate D2E/DX2                !
 ! D15   D(5,6,21,16)         -173.4843         estimate D2E/DX2                !
 ! D16   D(5,6,21,20)           -0.0739         estimate D2E/DX2                !
 ! D17   D(7,6,21,16)          -15.7894         estimate D2E/DX2                !
 ! D18   D(7,6,21,20)          157.6209         estimate D2E/DX2                !
 ! D19   D(6,7,8,9)            168.5027         estimate D2E/DX2                !
 ! D20   D(6,7,8,15)            -4.6054         estimate D2E/DX2                !
 ! D21   D(7,8,9,10)           173.0205         estimate D2E/DX2                !
 ! D22   D(15,8,9,10)          -13.163          estimate D2E/DX2                !
 ! D23   D(7,8,15,14)          165.1146         estimate D2E/DX2                !
 ! D24   D(7,8,15,16)          -11.5378         estimate D2E/DX2                !
 ! D25   D(9,8,15,14)           -9.84           estimate D2E/DX2                !
 ! D26   D(9,8,15,16)          173.5076         estimate D2E/DX2                !
 ! D27   D(8,9,10,11)         -179.8643         estimate D2E/DX2                !
 ! D28   D(8,9,10,14)           33.5394         estimate D2E/DX2                !
 ! D29   D(9,10,11,12)         -67.5609         estimate D2E/DX2                !
 ! D30   D(9,10,11,13)        -125.9386         estimate D2E/DX2                !
 ! D31   D(9,10,11,33)         167.0511         estimate D2E/DX2                !
 ! D32   D(14,10,11,12)         78.5494         estimate D2E/DX2                !
 ! D33   D(14,10,11,13)         20.1718         estimate D2E/DX2                !
 ! D34   D(14,10,11,33)        -46.8386         estimate D2E/DX2                !
 ! D35   D(9,10,14,13)         133.0708         estimate D2E/DX2                !
 ! D36   D(9,10,14,15)         -40.2704         estimate D2E/DX2                !
 ! D37   D(11,10,14,13)        -25.8355         estimate D2E/DX2                !
 ! D38   D(11,10,14,15)        160.8233         estimate D2E/DX2                !
 ! D39   D(10,11,12,22)        157.8417         estimate D2E/DX2                !
 ! D40   D(33,11,12,22)        -57.6406         estimate D2E/DX2                !
 ! D41   D(10,11,13,14)        -15.3385         estimate D2E/DX2                !
 ! D42   D(33,11,13,14)        124.4677         estimate D2E/DX2                !
 ! D43   D(22,12,13,14)        165.0906         estimate D2E/DX2                !
 ! D44   D(11,12,22,23)        -93.9081         estimate D2E/DX2                !
 ! D45   D(11,12,22,30)         67.3353         estimate D2E/DX2                !
 ! D46   D(13,12,22,23)        163.5288         estimate D2E/DX2                !
 ! D47   D(13,12,22,30)        -35.2279         estimate D2E/DX2                !
 ! D48   D(11,13,14,10)         16.7928         estimate D2E/DX2                !
 ! D49   D(11,13,14,15)       -176.548          estimate D2E/DX2                !
 ! D50   D(12,13,14,10)        -11.6886         estimate D2E/DX2                !
 ! D51   D(12,13,14,15)        154.9705         estimate D2E/DX2                !
 ! D52   D(10,14,15,8)          31.0903         estimate D2E/DX2                !
 ! D53   D(10,14,15,16)       -153.2196         estimate D2E/DX2                !
 ! D54   D(13,14,15,8)        -135.3603         estimate D2E/DX2                !
 ! D55   D(13,14,15,16)         40.3298         estimate D2E/DX2                !
 ! D56   D(8,15,16,17)        -164.5111         estimate D2E/DX2                !
 ! D57   D(8,15,16,21)          15.0952         estimate D2E/DX2                !
 ! D58   D(14,15,16,17)         20.3132         estimate D2E/DX2                !
 ! D59   D(14,15,16,21)       -160.0805         estimate D2E/DX2                !
 ! D60   D(15,16,17,18)        175.2883         estimate D2E/DX2                !
 ! D61   D(15,16,17,34)         -2.3634         estimate D2E/DX2                !
 ! D62   D(21,16,17,18)         -4.3366         estimate D2E/DX2                !
 ! D63   D(21,16,17,34)        178.0117         estimate D2E/DX2                !
 ! D64   D(15,16,21,6)          -2.2134         estimate D2E/DX2                !
 ! D65   D(15,16,21,20)       -174.6409         estimate D2E/DX2                !
 ! D66   D(17,16,21,6)         177.4692         estimate D2E/DX2                !
 ! D67   D(17,16,21,20)          5.0417         estimate D2E/DX2                !
 ! D68   D(16,17,18,19)          0.5288         estimate D2E/DX2                !
 ! D69   D(16,17,18,35)       -178.8796         estimate D2E/DX2                !
 ! D70   D(34,17,18,19)        178.2545         estimate D2E/DX2                !
 ! D71   D(34,17,18,35)         -1.154          estimate D2E/DX2                !
 ! D72   D(17,18,19,20)          3.0397         estimate D2E/DX2                !
 ! D73   D(17,18,19,36)       -177.2597         estimate D2E/DX2                !
 ! D74   D(35,18,19,20)       -177.5186         estimate D2E/DX2                !
 ! D75   D(35,18,19,36)          2.1821         estimate D2E/DX2                !
 ! D76   D(18,19,20,21)         -2.5406         estimate D2E/DX2                !
 ! D77   D(18,19,20,37)       -178.7435         estimate D2E/DX2                !
 ! D78   D(36,19,20,21)        177.7228         estimate D2E/DX2                !
 ! D79   D(36,19,20,37)          1.5199         estimate D2E/DX2                !
 ! D80   D(19,20,21,6)        -174.7934         estimate D2E/DX2                !
 ! D81   D(19,20,21,16)         -1.8217         estimate D2E/DX2                !
 ! D82   D(37,20,21,6)           1.0045         estimate D2E/DX2                !
 ! D83   D(37,20,21,16)        173.9761         estimate D2E/DX2                !
 ! D84   D(12,22,23,24)        174.2624         estimate D2E/DX2                !
 ! D85   D(12,22,23,38)         -5.3807         estimate D2E/DX2                !
 ! D86   D(30,22,23,24)         10.5584         estimate D2E/DX2                !
 ! D87   D(30,22,23,38)       -169.0848         estimate D2E/DX2                !
 ! D88   D(12,22,30,26)       -174.5496         estimate D2E/DX2                !
 ! D89   D(12,22,30,29)          4.9923         estimate D2E/DX2                !
 ! D90   D(23,22,30,26)        -10.165          estimate D2E/DX2                !
 ! D91   D(23,22,30,29)        169.3769         estimate D2E/DX2                !
 ! D92   D(22,23,24,25)         -2.9341         estimate D2E/DX2                !
 ! D93   D(38,23,24,25)        176.7497         estimate D2E/DX2                !
 ! D94   D(23,24,25,26)         -5.5481         estimate D2E/DX2                !
 ! D95   D(23,24,25,39)        174.8269         estimate D2E/DX2                !
 ! D96   D(24,25,26,27)       -176.6026         estimate D2E/DX2                !
 ! D97   D(24,25,26,30)          5.0447         estimate D2E/DX2                !
 ! D98   D(39,25,26,27)          3.0129         estimate D2E/DX2                !
 ! D99   D(39,25,26,30)       -175.3399         estimate D2E/DX2                !
 ! D100  D(25,26,27,28)        178.2504         estimate D2E/DX2                !
 ! D101  D(30,26,27,28)         -3.2891         estimate D2E/DX2                !
 ! D102  D(25,26,30,22)          3.7103         estimate D2E/DX2                !
 ! D103  D(25,26,30,29)       -175.896          estimate D2E/DX2                !
 ! D104  D(27,26,30,22)       -174.8126         estimate D2E/DX2                !
 ! D105  D(27,26,30,29)          5.5811         estimate D2E/DX2                !
 ! D106  D(26,27,28,29)          0.441          estimate D2E/DX2                !
 ! D107  D(27,28,29,30)          2.8383         estimate D2E/DX2                !
 ! D108  D(28,29,30,22)        175.6046         estimate D2E/DX2                !
 ! D109  D(28,29,30,26)         -4.8058         estimate D2E/DX2                !
 --------------------------------------------------------------------------------
 Trust Radius=3.00D-01 FncErr=1.00D-07 GrdErr=1.00D-06
 Number of steps in this run=    234 maximum allowed number of steps=    234.
 GradGradGradGradGradGradGradGradGradGradGradGradGradGradGradGradGradGrad

                          Input orientation:                          
 ---------------------------------------------------------------------
 Center     Atomic      Atomic             Coordinates (Angstroms)
 Number     Number       Type             X           Y           Z
 ---------------------------------------------------------------------
      1         14           0        3.076280    1.445220    0.358640
      2          1           0        4.389870    0.809800   -0.402880
      3          1           0        2.553290    1.272820   -1.098810
      4          6           0        2.727270   -0.537120    0.015100
      5          6           0        3.641180   -0.947210    0.920300
      6          6           0        2.999710   -0.645420    2.212250
      7          6           0        2.593270    0.688170    2.448600
      8          6           0        1.882410    0.880040    3.698430
      9          8           0        1.465530    2.024280    4.465040
     10          6           0        0.666480    1.520290    5.514150
     11          6           0       -0.103410    1.956890    6.664950
     12          6           0        0.867960    2.440390    7.551730
     13         16           0        1.296030    0.396830    7.658710
     14          6           0        1.200480    0.331240    5.815200
     15          6           0        1.556040   -0.279140    4.539640
     16          6           0        1.720430   -1.630550    3.999150
     17          6           0        1.221900   -2.906090    4.455060
     18          6           0        1.421860   -4.113650    3.715140
     19          6           0        2.105850   -4.144170    2.534320
     20          6           0        2.653260   -2.952970    2.121110
     21          6           0        2.462420   -1.766560    2.857650
     22          6           0        0.414700    3.453580    8.648090
     23          6           0        0.455770    4.897510    8.568240
     24          7           0       -0.030430    5.875940    9.463720
     25          6           0       -0.706970    5.516320   10.588790
     26          6           0       -0.989420    4.148820   10.732640
     27          7           0       -1.700470    3.613240   11.737140
     28         16           0       -1.788030    1.991430   11.425760
     29          7           0       -0.923290    1.887400   10.017010
     30          6           0       -0.453140    3.112230    9.727950
     31          1           0        1.641450   -0.617180    0.158940
     32          1           0        4.698250   -0.681340    0.951950
     33          1           0       -0.858940    1.492850    7.355470
     34          1           0        0.643950   -2.974940    5.362920
     35          1           0        1.026310   -5.069620    4.058170
     36          1           0        2.272240   -4.992080    1.888390
     37          1           0        3.168890   -3.007980    1.173150
     38          1           0        0.908310    5.425160    7.718650
     39          1           0       -1.007940    6.264360   11.319610
 ---------------------------------------------------------------------
                    Distance matrix (angstroms):
                    1          2          3          4          5
     1  Si   0.000000
     2  H    1.645962   0.000000
     3  H    1.558012   2.017853   0.000000
     4  C    2.041935   2.180170   2.132357   0.000000
     5  C    2.521566   2.323451   3.191997   1.350108   0.000000
     6  C    2.795087   3.299866   3.852539   2.216624   1.473667
     7  C    2.274721   3.372463   3.595488   2.727859   2.471494
     8  C    3.591511   4.807602   4.859822   4.035970   3.761665
     9  O    4.448859   5.807183   5.718771   5.287223   5.111593
    10  C    5.691402   7.027067   6.881318   6.222487   6.003404
    11  C    7.081086   8.453378   8.234196   7.645478   7.446929
    12  C    7.589966   8.850904   8.890186   8.314048   7.946222
    13  S    7.586793   8.644745   8.890569   7.832336   7.260327
    14  C    5.876532   7.004695   7.107756   6.060223   5.617072
    15  C    4.771300   5.800421   5.932555   4.680790   4.230100
    16  C    4.954998   5.697288   5.925572   4.252290   3.692635
    17  C    6.257258   6.887921   7.076819   5.252752   4.710059
    18  C    6.701062   7.071600   7.312203   5.309045   4.771043
    19  C    6.075903   6.195620   6.537860   4.443359   3.896518
    20  C    4.757029   4.852296   5.313679   3.205790   2.537913
    21  C    4.115508   4.580802   4.989956   3.108337   2.411252
    22  C    8.934903  10.232869  10.214271   9.787859   9.460225
    23  C    9.283475  10.614495  10.535171  10.385139  10.138963
    24  N   10.591761  11.939624  11.808106  11.747709  11.533695
    25  C   11.642285  12.997920  12.854438  12.658636  12.416253
    26  C   11.465568  12.809591  12.680906  12.273446  11.987243
    27  N   12.529482  13.868367  13.723471  13.199871  12.897091
    28  S   12.101281  13.396993  13.275101  12.529352  12.185098
    29  N   10.463087  11.745850  11.663009  10.919848  10.565015
    30  C   10.149862  11.462532  11.385991  10.852291  10.526975
    31  H    2.520339   3.147336   2.446526   1.098228   2.165066
    32  H    2.739537   2.038176   3.553197   2.187064   1.090452
    33  H    8.027693   9.391941   9.119571   8.417999   8.222918
    34  H    7.106114   7.848606   7.965111   6.235573   5.729917
    35  H    7.767370   8.110615   8.315808   6.307395   5.803278
    36  H    6.665242   6.587571   6.946317   4.854167   4.378603
    37  H    4.528023   4.306983   4.885285   2.764282   2.129264
    38  H    8.643481   9.969055   9.884103   9.909696   9.710471
    39  H   12.651001  14.010901  13.849729  13.711450  13.482088
                    6          7          8          9         10
     6  C    0.000000
     7  C    1.414043   0.000000
     8  C    2.405019   1.450590   0.000000
     9  O    3.815242   2.668898   1.439015   0.000000
    10  C    4.586590   3.715177   2.277113   1.411779   0.000000
    11  C    6.018962   5.163268   3.728717   2.702909   1.451789
    12  C    6.525077   5.664707   4.279220   3.171418   2.244752
    13  S    5.801098   5.377077   4.032512   3.588433   2.501526
    14  C    4.143952   3.660773   2.290617   2.181643   1.337769
    15  C    2.763166   2.526655   1.468962   2.306404   2.231353
    16  C    2.408329   2.922759   2.533719   3.693211   3.651551
    17  C    3.647113   4.338807   3.917083   4.936396   4.585085
    18  C    4.095962   5.102333   5.014910   6.183724   5.962241
    19  C    3.625461   4.857616   5.162147   6.495188   6.560280
    20  C    2.335192   3.656330   4.215936   5.628297   5.955675
    21  C    1.400777   2.492016   2.836867   4.236503   4.591925
    22  C    8.056309   7.129329   5.768571   4.543682   3.690878
    23  C    8.808763   7.729000   6.472281   5.109923   4.558232
    24  N   10.212429   9.110909   7.864893   6.485367   5.920851
    25  C   11.039608  10.023238   8.699255   7.376613   6.603529
    26  C   10.559116   9.666286   8.271181   7.058559   6.073204
    27  N   11.443400  10.642801   9.215654   8.088992   6.979147
    28  S   10.712805  10.073911   8.626642   7.683642   6.418234
    29  N    9.095020   8.431203   6.986500   6.045624   4.789351
    30  C    9.084484   8.255036   6.840510   5.706413   4.641544
    31  H    2.462062   2.802221   3.850678   5.054776   5.847873
    32  H    2.115345   2.923433   4.232023   5.487500   6.474258
    33  H    6.775994   6.053316   4.611342   3.747021   2.391259
    34  H    4.571979   5.070649   4.377805   5.145229   4.497830
    35  H    5.184137   6.180471   6.021692   7.119120   6.758422
    36  H    4.418999   5.716829   6.157110   7.517926   7.624668
    37  H    2.586511   3.952169   4.811317   6.249929   6.753634
    38  H    8.458507   7.283652   6.145662   4.739457   4.490692
    39  H   12.114055  11.079595   9.768695   8.430982   7.682008
                   11         12         13         14         15
    11  C    0.000000
    12  C    1.401325   0.000000
    13  S    2.319435   2.090652   0.000000
    14  C    2.250543   2.752203   1.847149   0.000000
    15  C    3.502934   4.116064   3.202052   1.458095   0.000000
    16  C    4.827277   5.469925   4.205088   2.723418   1.464740
    17  C    5.503511   6.188658   4.601972   3.511516   2.649466
    18  C    6.919486   7.614569   5.992663   4.921007   3.924445
    19  C    7.691935   8.370377   6.894626   5.622558   4.388856
    20  C    7.235498   7.859215   6.612734   5.151981   3.768627
    21  C    5.911269   6.501932   5.393598   3.839318   2.421370
    22  C    2.537984   1.560129   3.331567   4.288557   5.667029
    23  C    3.547174   2.690842   4.667912   5.383739   6.651159
    24  N    4.816367   4.033090   5.919308   6.750595   8.040427
    25  C    5.332012   4.600596   6.229491   7.301410   8.677603
    26  C    4.704856   4.060392   5.361880   6.599303   8.027418
    27  N    5.569669   5.048769   5.996490   7.365895   8.806786
    28  S    5.050193   4.718470   5.122972   6.570069   7.984794
    29  N    3.451570   3.097092   3.564935   4.958552   6.390818
    30  C    3.292277   2.632985   3.835981   5.077202   6.515885
    31  H    7.211001   8.037435   7.575888   5.752150   4.394553
    32  H    7.915464   8.244599   7.597248   6.075435   4.786102
    33  H    1.123822   1.979529   2.436619   2.821875   4.111080
    34  H    5.155267   5.845243   4.130943   3.383062   2.962606
    35  H    7.579143   8.284340   6.551237   5.682146   4.843669
    36  H    8.760561   9.449182   7.955497   6.701212   5.454711
    37  H    8.094303   8.698580   7.560610   6.047616   4.623971
    38  H    3.763344   2.989706   5.043612   5.445779   6.562370
    39  H    6.406117   5.686710   7.289607   8.389134   9.765213
                   16         17         18         19         20
    16  C    0.000000
    17  C    1.443395   0.000000
    18  C    2.517060   1.430268   0.000000
    19  C    2.934717   2.450194   1.364958   0.000000
    20  C    2.479113   2.738305   2.324749   1.374539   0.000000
    21  C    1.368236   2.321452   2.706822   2.425843   1.409425
    22  C    7.011844   7.660188   9.089078   9.897675   9.415758
    23  C    8.067931   8.854455  10.280414  10.994677  10.393483
    24  N    9.448515  10.187201  11.616679  12.368625  11.792615
    25  C   10.019650  10.596234  12.021452  12.888425  12.438715
    26  C    9.278162   9.698954  11.105314  12.065108  11.741507
    27  N    9.953712  10.201500  11.567465  12.623683  12.431336
    28  S    8.976779   9.035266  10.345485  11.483275  11.434538
    29  N    7.455191   7.649489   9.012541  10.077012   9.928048
    30  C    7.748388   8.174919   9.585554  10.533379  10.212756
    31  H    3.972451   4.885875   4.992002   4.277588   3.213998
    32  H    4.365070   5.413529   5.490966   4.606042   3.272495
    33  H    5.260576   5.665064   7.063065   7.988082   7.713585
    34  H    2.196830   1.078414   2.148717   3.391936   3.814072
    35  H    3.508916   2.208311   1.089958   2.084222   3.298390
    36  H    4.007454   3.470211   2.198136   1.078825   2.087416
    37  H    3.461449   3.817340   3.276634   2.067309   1.080522
    38  H    8.017310   8.953161  10.357641  10.949130  10.225965
    39  H   11.106878  11.670107  13.093318  13.971918  13.526861
                   21         22         23         24         25
    21  C    0.000000
    22  C    8.060534   0.000000
    23  C    9.002628   1.446719   0.000000
    24  N   10.404916   2.594460   1.412657   0.000000
    25  C   11.084038   3.046204   2.411952   1.361182   0.000000
    26  C   10.436589   2.607731   2.708088   2.347927   1.403755
    27  N   11.185582   3.747221   4.042357   3.616253   2.434638
    28  S   10.276250   3.834756   4.652457   4.693418   3.780748
    29  N    8.721863   2.473273   3.614070   4.124534   3.680053
    30  C    8.916507   1.426802   2.314794   2.808308   2.566150
    31  H    3.045998   9.494297  10.125906  11.468859  12.325448
    32  H    3.131825   9.730207  10.350366  11.739189  12.668705
    33  H    6.471906   2.671608   3.845905   4.933825   5.163890
    34  H    3.323160   7.222933   8.502056   9.778007  10.061620
    35  H    3.796560   9.699813  10.954904  12.253243  12.558479
    36  H    3.373368  10.976027  12.071618  13.446255  13.964209
    37  H    2.208566  10.257292  11.159980  12.565557  13.279317
    38  H    8.818470   2.234869   1.097730   2.032167   3.294714
    39  H   12.171435   4.130546   3.403052   2.133243   1.088230
                   26         27         28         29         30
    26  C    0.000000
    27  N    1.342184   0.000000
    28  S    2.402608   1.653751   0.000000
    29  N    2.372872   2.557612   1.656253   0.000000
    30  C    1.539973   2.417372   2.433245   1.343430   0.000000
    31  H   11.892828  12.771828  12.062645  10.489631  10.481496
    32  H   12.302111  13.255465  12.606198  10.971575  10.860302
    33  H    4.298427   4.939965   4.204646   2.691395   2.900987
    34  H    9.069165   9.462088   8.205936   6.910799   7.570385
    35  H   11.558173  11.907727  10.585855   9.365300  10.063690
    36  H   13.130698  13.668644  12.498665  11.118144  11.600269
    37  H   12.644966  13.384659  12.437088  10.905253  11.124778
    38  H    3.783459   5.122211   5.727427   4.599235   3.352682
    39  H    2.195538   2.771708   4.344852   4.567462   3.574508
                   31         32         33         34         35
    31  H    0.000000
    32  H    3.158640   0.000000
    33  H    7.905329   8.752973   0.000000
    34  H    5.799607   6.415186   5.117625   0.000000
    35  H    5.950346   6.510664   7.582372   2.497250   0.000000
    36  H    4.746435   5.034374   9.041436   4.335036   2.503258
    37  H    3.012909   2.793049   8.643030   4.891890   4.142988
    38  H    9.705492   9.871232   4.326446   8.728174  11.115460
    39  H   13.376674  13.721943   6.205152  11.116455  13.613441
                   36         37         38         39
    36  H    0.000000
    37  H    2.291768   0.000000
    38  H   12.015454  10.911995   0.000000
    39  H   15.047091  14.365683   4.164515   0.000000
 Stoichiometry    C21H11N3OS2Si
 Framework group  C1[X(C21H11N3OS2Si)]
 Deg. of freedom   111
 Full point group                 C1      NOp   1
 Largest Abelian subgroup         C1      NOp   1
 Largest concise Abelian subgroup C1      NOp   1
                         Standard orientation:                         
 ---------------------------------------------------------------------
 Center     Atomic      Atomic             Coordinates (Angstroms)
 Number     Number       Type             X           Y           Z
 ---------------------------------------------------------------------
      1         14           0       -5.017477   -3.107105   -0.322115
      2          1           0       -6.371544   -3.140975    0.613057
      3          1           0       -6.125588   -3.429146   -1.368910
      4          6           0       -6.094313   -1.410226   -0.683396
      5          6           0       -5.838121   -0.881038    0.531972
      6          6           0       -4.421914   -0.484345    0.438766
      7          6           0       -3.481012   -1.482530    0.095477
      8          6           0       -2.126988   -0.990066   -0.072780
      9          8           0       -0.832099   -1.603181   -0.207377
     10          6           0        0.066479   -0.555072   -0.502578
     11          6           0        1.470570   -0.306884   -0.775751
     12          6           0        2.102294   -0.590784    0.442459
     13         16           0        1.111870    1.171703    0.974933
     14          6           0       -0.407107    0.504383    0.162928
     15          6           0       -1.856698    0.451147    0.014963
     16          6           0       -2.976540    1.395293    0.016979
     17          6           0       -3.020436    2.821649   -0.199745
     18          6           0       -4.250576    3.549544   -0.250646
     19          6           0       -5.464807    2.947765   -0.087508
     20          6           0       -5.440536    1.602777    0.194941
     21          6           0       -4.225900    0.890273    0.253885
     22          6           0        3.621105   -0.946052    0.410850
     23          6           0        4.203740   -2.268778    0.348167
     24          7           0        5.551827   -2.667296    0.208722
     25          6           0        6.538720   -1.743524    0.049026
     26          6           0        6.123781   -0.409535   -0.088174
     27          7           0        6.941964    0.629157   -0.318722
     28         16           0        5.970465    1.961537   -0.444596
     29          7           0        4.474729    1.292871   -0.202036
     30          6           0        4.642381   -0.014665    0.056904
     31          1           0       -5.653132   -1.041755   -1.619181
     32          1           0       -6.039847   -1.336996    1.501763
     33          1           0        2.077304    0.550968   -1.174424
     34          1           0       -2.111989    3.377711   -0.368552
     35          1           0       -4.275115    4.623918   -0.432657
     36          1           0       -6.441408    3.401965   -0.149276
     37          1           0       -6.418232    1.154117    0.296645
     38          1           0        3.595219   -3.180757    0.403009
     39          1           0        7.584072   -2.045077    0.025563
 ---------------------------------------------------------------------
 Rotational constants (GHZ):      0.3638289      0.0627464      0.0544704
 Standard basis: 6-31++G(d,p) (6D, 7F)
 There are   610 symmetry adapted basis functions of A   symmetry.
 Integral buffers will be    131072 words long.
 Raffenetti 2 integral format.
 Two-electron integral symmetry is turned on.
   610 basis functions,  1056 primitive gaussians,   610 cartesian basis functions
   106 alpha electrons      106 beta electrons
       nuclear repulsion energy      2668.4979676278 Hartrees.
 NAtoms=   39 NActive=   39 NUniq=   39 SFac= 1.00D+00 NAtFMM=   60 NAOKFM=F Big=F
 One-electron integrals computed using PRISM.
 NBasis=   610 RedAO= T  NBF=   610
 NBsUse=   602 1.00D-06 NBFU=   602
 Harris functional with IExCor=  402 diagonalized for initial guess.
 ExpMin= 3.31D-02 ExpMax= 2.19D+04 ExpMxC= 3.30D+03 IAcc=3 IRadAn=         5 AccDes= 0.00D+00
 HarFok:  IExCor=  402 AccDes= 0.00D+00 IRadAn=         5 IDoV= 1
 ScaDFX=  1.000000  1.000000  1.000000  1.000000
 FoFCou: FMM=F IPFlag=           0 FMFlag=      100000 FMFlg1=           0
         NFxFlg=           0 DoJE=T BraDBF=F KetDBF=T FulRan=T
         Omega=  0.000000  0.000000  1.000000  0.000000  0.000000 ICntrl=     500 IOpCl=  0
         NMat0=    1 NMatS0=    1 NMatT0=    0 NMatD0=    1 NMtDS0=    0 NMtDT0=    0
         I1Cent=           4 NGrid=           0.
 Petite list used in FoFCou.
 Initial guess orbital symmetries:
       Occupied  (A) (A) (A) (A) (A) (A) (A) (A) (A) (A) (A) (A)
                 (A) (A) (A) (A) (A) (A) (A) (A) (A) (A) (A) (A)
                 (A) (A) (A) (A) (A) (A) (A) (A) (A) (A) (A) (A)
                 (A) (A) (A) (A) (A) (A) (A) (A) (A) (A) (A) (A)
                 (A) (A) (A) (A) (A) (A) (A) (A) (A) (A) (A) (A)
                 (A) (A) (A) (A) (A) (A) (A) (A) (A) (A) (A) (A)
                 (A) (A) (A) (A) (A) (A) (A) (A) (A) (A) (A) (A)
                 (A) (A) (A) (A) (A) (A) (A) (A) (A) (A) (A) (A)
                 (A) (A) (A) (A) (A) (A) (A) (A) (A) (A)
       Virtual   (A) (A) (A) (A) (A) (A) (A) (A) (A) (A) (A) (A)
                 (A) (A) (A) (A) (A) (A) (A) (A) (A) (A) (A) (A)
                 (A) (A) (A) (A) (A) (A) (A) (A) (A) (A) (A) (A)
                 (A) (A) (A) (A) (A) (A) (A) (A) (A) (A) (A) (A)
                 (A) (A) (A) (A) (A) (A) (A) (A) (A) (A) (A) (A)
                 (A) (A) (A) (A) (A) (A) (A) (A) (A) (A) (A) (A)
                 (A) (A) (A) (A) (A) (A) (A) (A) (A) (A) (A) (A)
                 (A) (A) (A) (A) (A) (A) (A) (A) (A) (A) (A) (A)
                 (A) (A) (A) (A) (A) (A) (A) (A) (A) (A) (A) (A)
                 (A) (A) (A) (A) (A) (A) (A) (A) (A) (A) (A) (A)
                 (A) (A) (A) (A) (A) (A) (A) (A) (A) (A) (A) (A)
                 (A) (A) (A) (A) (A) (A) (A) (A) (A) (A) (A) (A)
                 (A) (A) (A) (A) (A) (A) (A) (A) (A) (A) (A) (A)
                 (A) (A) (A) (A) (A) (A) (A) (A) (A) (A) (A) (A)
                 (A) (A) (A) (A) (A) (A) (A) (A) (A) (A) (A) (A)
                 (A) (A) (A) (A) (A) (A) (A) (A) (A) (A) (A) (A)
                 (A) (A) (A) (A) (A) (A) (A) (A) (A) (A) (A) (A)
                 (A) (A) (A) (A) (A) (A) (A) (A) (A) (A) (A) (A)
                 (A) (A) (A) (A) (A) (A) (A) (A) (A) (A) (A) (A)
                 (A) (A) (A) (A) (A) (A) (A) (A) (A) (A) (A) (A)
                 (A) (A) (A) (A) (A) (A) (A) (A) (A) (A) (A) (A)
                 (A) (A) (A) (A) (A) (A) (A) (A) (A) (A) (A) (A)
                 (A) (A) (A) (A) (A) (A) (A) (A) (A) (A) (A) (A)
                 (A) (A) (A) (A) (A) (A) (A) (A) (A) (A) (A) (A)
                 (A) (A) (A) (A) (A) (A) (A) (A) (A) (A) (A) (A)
                 (A) (A) (A) (A) (A) (A) (A) (A) (A) (A) (A) (A)
                 (A) (A) (A) (A) (A) (A) (A) (A) (A) (A) (A) (A)
                 (A) (A) (A) (A) (A) (A) (A) (A) (A) (A) (A) (A)
                 (A) (A) (A) (A) (A) (A) (A) (A) (A) (A) (A) (A)
                 (A) (A) (A) (A) (A) (A) (A) (A) (A) (A) (A) (A)
                 (A) (A) (A) (A) (A) (A) (A) (A) (A) (A) (A) (A)
                 (A) (A) (A) (A) (A) (A) (A) (A) (A) (A) (A) (A)
                 (A) (A) (A) (A) (A) (A) (A) (A) (A) (A) (A) (A)
                 (A) (A) (A) (A) (A) (A) (A) (A) (A) (A) (A) (A)
                 (A) (A) (A) (A) (A) (A) (A) (A) (A) (A) (A) (A)
                 (A) (A) (A) (A) (A) (A) (A) (A) (A) (A) (A) (A)
                 (A) (A) (A) (A) (A) (A) (A) (A) (A) (A) (A) (A)
                 (A) (A) (A) (A) (A) (A) (A) (A) (A) (A) (A) (A)
                 (A) (A) (A) (A) (A) (A) (A) (A) (A) (A) (A) (A)
                 (A) (A) (A) (A) (A) (A) (A) (A) (A) (A) (A) (A)
                 (A) (A) (A) (A) (A) (A) (A) (A) (A) (A) (A) (A)
                 (A) (A) (A) (A)
 The electronic state of the initial guess is 1-A.
 Requested convergence on RMS density matrix=1.00D-08 within 128 cycles.
 Requested convergence on MAX density matrix=1.00D-06.
 Requested convergence on             energy=1.00D-06.
 No special actions if energy rises.
 EnCoef did     2 forward-backward iterations
 EnCoef did     2 forward-backward iterations
 EnCoef did     3 forward-backward iterations
 EnCoef did     5 forward-backward iterations
 EnCoef did     7 forward-backward iterations
 EnCoef did     3 forward-backward iterations
 EnCoef did   100 forward-backward iterations
 Restarting incremental Fock formation.
 SCF Done:  E(RB3LYP) =  -2131.56483687     A.U. after   30 cycles
             Convg  =    0.7242D-08             -V/T =  2.0067

 **********************************************************************

            Population analysis using the SCF density.

 **********************************************************************

 Orbital symmetries:
       Occupied  (A) (A) (A) (A) (A) (A) (A) (A) (A) (A) (A) (A)
                 (A) (A) (A) (A) (A) (A) (A) (A) (A) (A) (A) (A)
                 (A) (A) (A) (A) (A) (A) (A) (A) (A) (A) (A) (A)
                 (A) (A) (A) (A) (A) (A) (A) (A) (A) (A) (A) (A)
                 (A) (A) (A) (A) (A) (A) (A) (A) (A) (A) (A) (A)
                 (A) (A) (A) (A) (A) (A) (A) (A) (A) (A) (A) (A)
                 (A) (A) (A) (A) (A) (A) (A) (A) (A) (A) (A) (A)
                 (A) (A) (A) (A) (A) (A) (A) (A) (A) (A) (A) (A)
                 (A) (A) (A) (A) (A) (A) (A) (A) (A) (A)
       Virtual   (A) (A) (A) (A) (A) (A) (A) (A) (A) (A) (A) (A)
                 (A) (A) (A) (A) (A) (A) (A) (A) (A) (A) (A) (A)
                 (A) (A) (A) (A) (A) (A) (A) (A) (A) (A) (A) (A)
                 (A) (A) (A) (A) (A) (A) (A) (A) (A) (A) (A) (A)
                 (A) (A) (A) (A) (A) (A) (A) (A) (A) (A) (A) (A)
                 (A) (A) (A) (A) (A) (A) (A) (A) (A) (A) (A) (A)
                 (A) (A) (A) (A) (A) (A) (A) (A) (A) (A) (A) (A)
                 (A) (A) (A) (A) (A) (A) (A) (A) (A) (A) (A) (A)
                 (A) (A) (A) (A) (A) (A) (A) (A) (A) (A) (A) (A)
                 (A) (A) (A) (A) (A) (A) (A) (A) (A) (A) (A) (A)
                 (A) (A) (A) (A) (A) (A) (A) (A) (A) (A) (A) (A)
                 (A) (A) (A) (A) (A) (A) (A) (A) (A) (A) (A) (A)
                 (A) (A) (A) (A) (A) (A) (A) (A) (A) (A) (A) (A)
                 (A) (A) (A) (A) (A) (A) (A) (A) (A) (A) (A) (A)
                 (A) (A) (A) (A) (A) (A) (A) (A) (A) (A) (A) (A)
                 (A) (A) (A) (A) (A) (A) (A) (A) (A) (A) (A) (A)
                 (A) (A) (A) (A) (A) (A) (A) (A) (A) (A) (A) (A)
                 (A) (A) (A) (A) (A) (A) (A) (A) (A) (A) (A) (A)
                 (A) (A) (A) (A) (A) (A) (A) (A) (A) (A) (A) (A)
                 (A) (A) (A) (A) (A) (A) (A) (A) (A) (A) (A) (A)
                 (A) (A) (A) (A) (A) (A) (A) (A) (A) (A) (A) (A)
                 (A) (A) (A) (A) (A) (A) (A) (A) (A) (A) (A) (A)
                 (A) (A) (A) (A) (A) (A) (A) (A) (A) (A) (A) (A)
                 (A) (A) (A) (A) (A) (A) (A) (A) (A) (A) (A) (A)
                 (A) (A) (A) (A) (A) (A) (A) (A) (A) (A) (A) (A)
                 (A) (A) (A) (A) (A) (A) (A) (A) (A) (A) (A) (A)
                 (A) (A) (A) (A) (A) (A) (A) (A) (A) (A) (A) (A)
                 (A) (A) (A) (A) (A) (A) (A) (A) (A) (A) (A) (A)
                 (A) (A) (A) (A) (A) (A) (A) (A) (A) (A) (A) (A)
                 (A) (A) (A) (A) (A) (A) (A) (A) (A) (A) (A) (A)
                 (A) (A) (A) (A) (A) (A) (A) (A) (A) (A) (A) (A)
                 (A) (A) (A) (A) (A) (A) (A) (A) (A) (A) (A) (A)
                 (A) (A) (A) (A) (A) (A) (A) (A) (A) (A) (A) (A)
                 (A) (A) (A) (A) (A) (A) (A) (A) (A) (A) (A) (A)
                 (A) (A) (A) (A) (A) (A) (A) (A) (A) (A) (A) (A)
                 (A) (A) (A) (A) (A) (A) (A) (A) (A) (A) (A) (A)
                 (A) (A) (A) (A) (A) (A) (A) (A) (A) (A) (A) (A)
                 (A) (A) (A) (A) (A) (A) (A) (A) (A) (A) (A) (A)
                 (A) (A) (A) (A) (A) (A) (A) (A) (A) (A) (A) (A)
                 (A) (A) (A) (A) (A) (A) (A) (A) (A) (A) (A) (A)
                 (A) (A) (A) (A) (A) (A) (A) (A) (A) (A) (A) (A)
                 (A) (A) (A) (A)
 The electronic state is 1-A.
 Alpha  occ. eigenvalues --  -89.00041 -88.95884 -66.17380 -19.23959 -14.40485
 Alpha  occ. eigenvalues --  -14.39852 -14.37508 -10.29219 -10.28052 -10.27420
 Alpha  occ. eigenvalues --  -10.27389 -10.26886 -10.26625 -10.26520 -10.25715
 Alpha  occ. eigenvalues --  -10.25281 -10.25140 -10.24902 -10.24235 -10.24014
 Alpha  occ. eigenvalues --  -10.23441 -10.23158 -10.22460 -10.21916 -10.21843
 Alpha  occ. eigenvalues --  -10.21743 -10.21030 -10.20780  -8.05323  -8.01239
 Alpha  occ. eigenvalues --   -6.01888  -6.01299  -6.01071  -5.97770  -5.97525
 Alpha  occ. eigenvalues --   -5.96671  -5.31288  -3.67337  -3.67078  -3.67033
 Alpha  occ. eigenvalues --   -1.10617  -1.03670  -0.94776  -0.92214  -0.91649
 Alpha  occ. eigenvalues --   -0.90943  -0.86311  -0.83907  -0.82091  -0.79213
 Alpha  occ. eigenvalues --   -0.78050  -0.77016  -0.76612  -0.72854  -0.71734
 Alpha  occ. eigenvalues --   -0.68685  -0.65778  -0.64937  -0.64392  -0.62747
 Alpha  occ. eigenvalues --   -0.62053  -0.59321  -0.57646  -0.56836  -0.54659
 Alpha  occ. eigenvalues --   -0.53475  -0.53266  -0.52423  -0.52099  -0.50888
 Alpha  occ. eigenvalues --   -0.49216  -0.48701  -0.48591  -0.47720  -0.47022
 Alpha  occ. eigenvalues --   -0.46329  -0.45659  -0.44244  -0.44006  -0.42927
 Alpha  occ. eigenvalues --   -0.42217  -0.42148  -0.41210  -0.40032  -0.39870
 Alpha  occ. eigenvalues --   -0.39193  -0.38071  -0.37529  -0.37148  -0.35496
 Alpha  occ. eigenvalues --   -0.35112  -0.34267  -0.33253  -0.32530  -0.32351
 Alpha  occ. eigenvalues --   -0.31502  -0.30167  -0.29456  -0.29193  -0.28949
 Alpha  occ. eigenvalues --   -0.26774  -0.26227  -0.25241  -0.22913  -0.20653
 Alpha  occ. eigenvalues --   -0.19770
 Alpha virt. eigenvalues --   -0.14821  -0.11771  -0.11493  -0.09236  -0.07437
 Alpha virt. eigenvalues --   -0.05921  -0.05188  -0.03888  -0.03252  -0.02331
 Alpha virt. eigenvalues --   -0.02100  -0.01449  -0.01099  -0.00614  -0.00406
 Alpha virt. eigenvalues --    0.00551   0.00597   0.01098   0.01404   0.01765
 Alpha virt. eigenvalues --    0.01887   0.02206   0.02374   0.02833   0.03107
 Alpha virt. eigenvalues --    0.03411   0.04325   0.04586   0.04712   0.04939
 Alpha virt. eigenvalues --    0.05157   0.05523   0.05659   0.06203   0.06323
 Alpha virt. eigenvalues --    0.06599   0.06821   0.07374   0.07411   0.07724
 Alpha virt. eigenvalues --    0.08007   0.08561   0.08816   0.08846   0.09191
 Alpha virt. eigenvalues --    0.09505   0.09824   0.10186   0.10359   0.10490
 Alpha virt. eigenvalues --    0.10820   0.10981   0.11338   0.11415   0.11565
 Alpha virt. eigenvalues --    0.11752   0.12164   0.12245   0.12355   0.12564
 Alpha virt. eigenvalues --    0.12655   0.12834   0.13212   0.13373   0.13664
 Alpha virt. eigenvalues --    0.13917   0.14310   0.14374   0.14603   0.14676
 Alpha virt. eigenvalues --    0.14886   0.15448   0.15490   0.15698   0.16127
 Alpha virt. eigenvalues --    0.16407   0.16686   0.17074   0.17256   0.17496
 Alpha virt. eigenvalues --    0.17680   0.18269   0.18316   0.18492   0.18815
 Alpha virt. eigenvalues --    0.18880   0.19157   0.19532   0.19795   0.19958
 Alpha virt. eigenvalues --    0.20492   0.20658   0.20963   0.21035   0.21514
 Alpha virt. eigenvalues --    0.21745   0.22024   0.22253   0.22347   0.22824
 Alpha virt. eigenvalues --    0.23108   0.23319   0.23510   0.23651   0.23790
 Alpha virt. eigenvalues --    0.24001   0.24205   0.24510   0.24662   0.24946
 Alpha virt. eigenvalues --    0.25418   0.25424   0.25745   0.25956   0.26183
 Alpha virt. eigenvalues --    0.26514   0.27045   0.27251   0.27548   0.27710
 Alpha virt. eigenvalues --    0.27879   0.28250   0.28358   0.28604   0.28832
 Alpha virt. eigenvalues --    0.28904   0.29428   0.29674   0.29936   0.30239
 Alpha virt. eigenvalues --    0.30728   0.31115   0.31357   0.31585   0.32115
 Alpha virt. eigenvalues --    0.32300   0.33029   0.33085   0.33767   0.33838
 Alpha virt. eigenvalues --    0.34358   0.34565   0.35056   0.35187   0.35857
 Alpha virt. eigenvalues --    0.36189   0.36376   0.36582   0.37070   0.37251
 Alpha virt. eigenvalues --    0.38232   0.38256   0.38673   0.39027   0.39104
 Alpha virt. eigenvalues --    0.39961   0.40666   0.40982   0.41335   0.41673
 Alpha virt. eigenvalues --    0.42201   0.42717   0.42953   0.43433   0.44067
 Alpha virt. eigenvalues --    0.45340   0.45909   0.46174   0.46855   0.48176
 Alpha virt. eigenvalues --    0.49178   0.50178   0.51020   0.51569   0.53770
 Alpha virt. eigenvalues --    0.54187   0.56346   0.57071   0.58076   0.58459
 Alpha virt. eigenvalues --    0.61135   0.61343   0.62027   0.64092   0.64369
 Alpha virt. eigenvalues --    0.64588   0.65710   0.66248   0.66467   0.66789
 Alpha virt. eigenvalues --    0.67313   0.67607   0.68094   0.68669   0.68861
 Alpha virt. eigenvalues --    0.69216   0.70155   0.70702   0.70906   0.71499
 Alpha virt. eigenvalues --    0.71937   0.72286   0.73411   0.73867   0.74259
 Alpha virt. eigenvalues --    0.74392   0.74727   0.74845   0.75482   0.75937
 Alpha virt. eigenvalues --    0.76321   0.76924   0.77398   0.78107   0.78594
 Alpha virt. eigenvalues --    0.78758   0.79476   0.80830   0.80954   0.81331
 Alpha virt. eigenvalues --    0.81911   0.82523   0.83409   0.84340   0.84716
 Alpha virt. eigenvalues --    0.85254   0.86037   0.86783   0.87388   0.88271
 Alpha virt. eigenvalues --    0.89295   0.89977   0.90490   0.91160   0.92725
 Alpha virt. eigenvalues --    0.93108   0.93759   0.93923   0.94289   0.94527
 Alpha virt. eigenvalues --    0.95254   0.95918   0.97115   0.97925   0.98277
 Alpha virt. eigenvalues --    0.98620   0.99300   0.99907   1.01407   1.02016
 Alpha virt. eigenvalues --    1.02770   1.03065   1.03647   1.04071   1.04549
 Alpha virt. eigenvalues --    1.04732   1.06053   1.06542   1.07011   1.08139
 Alpha virt. eigenvalues --    1.08961   1.09371   1.10468   1.11428   1.12375
 Alpha virt. eigenvalues --    1.12687   1.12739   1.13451   1.13813   1.14907
 Alpha virt. eigenvalues --    1.15223   1.15396   1.16046   1.16788   1.17123
 Alpha virt. eigenvalues --    1.17785   1.18343   1.18995   1.19482   1.20181
 Alpha virt. eigenvalues --    1.21153   1.22449   1.23553   1.23705   1.24780
 Alpha virt. eigenvalues --    1.25423   1.25471   1.26517   1.26902   1.28040
 Alpha virt. eigenvalues --    1.28713   1.29688   1.30596   1.31317   1.32263
 Alpha virt. eigenvalues --    1.33789   1.34014   1.34460   1.35528   1.36918
 Alpha virt. eigenvalues --    1.37829   1.38177   1.38691   1.39521   1.40241
 Alpha virt. eigenvalues --    1.41966   1.42436   1.43946   1.44130   1.46047
 Alpha virt. eigenvalues --    1.46757   1.47085   1.47748   1.49215   1.49512
 Alpha virt. eigenvalues --    1.50584   1.54239   1.55229   1.56469   1.57546
 Alpha virt. eigenvalues --    1.60935   1.62459   1.62759   1.65071   1.67592
 Alpha virt. eigenvalues --    1.69297   1.70000   1.70285   1.72554   1.72958
 Alpha virt. eigenvalues --    1.72976   1.75013   1.76607   1.77452   1.78266
 Alpha virt. eigenvalues --    1.79272   1.79328   1.79817   1.80550   1.81823
 Alpha virt. eigenvalues --    1.82388   1.83808   1.84729   1.85825   1.86599
 Alpha virt. eigenvalues --    1.87221   1.87568   1.88088   1.89246   1.89979
 Alpha virt. eigenvalues --    1.91687   1.92579   1.93625   1.95148   1.96727
 Alpha virt. eigenvalues --    1.97050   1.97833   2.00855   2.01593   2.01964
 Alpha virt. eigenvalues --    2.02770   2.03477   2.04631   2.04983   2.05711
 Alpha virt. eigenvalues --    2.06357   2.08044   2.08632   2.08729   2.10256
 Alpha virt. eigenvalues --    2.11131   2.13037   2.14682   2.15454   2.15664
 Alpha virt. eigenvalues --    2.17769   2.19023   2.20556   2.20854   2.22226
 Alpha virt. eigenvalues --    2.23280   2.23477   2.23781   2.25668   2.26568
 Alpha virt. eigenvalues --    2.27252   2.28620   2.28929   2.30739   2.32488
 Alpha virt. eigenvalues --    2.33167   2.33763   2.35039   2.35779   2.36277
 Alpha virt. eigenvalues --    2.37619   2.38057   2.38995   2.39680   2.39977
 Alpha virt. eigenvalues --    2.40650   2.41837   2.42650   2.43240   2.44675
 Alpha virt. eigenvalues --    2.45351   2.46707   2.47526   2.47827   2.48844
 Alpha virt. eigenvalues --    2.51170   2.51655   2.53274   2.54060   2.55569
 Alpha virt. eigenvalues --    2.56028   2.56501   2.57103   2.57782   2.58755
 Alpha virt. eigenvalues --    2.59776   2.60273   2.61060   2.62184   2.63137
 Alpha virt. eigenvalues --    2.63871   2.64638   2.65904   2.66684   2.67078
 Alpha virt. eigenvalues --    2.67802   2.69640   2.69880   2.71824   2.74177
 Alpha virt. eigenvalues --    2.75790   2.77562   2.79137   2.79391   2.81197
 Alpha virt. eigenvalues --    2.83006   2.83664   2.85423   2.86808   2.89347
 Alpha virt. eigenvalues --    2.92644   2.94073   2.94576   2.96763   3.04624
 Alpha virt. eigenvalues --    3.05597   3.07929   3.12649   3.14231   3.15178
 Alpha virt. eigenvalues --    3.18223   3.18659   3.21704   3.26301   3.31802
 Alpha virt. eigenvalues --    3.36753   3.39279   3.41095   3.41716   3.43015
 Alpha virt. eigenvalues --    3.48395   3.55672   3.56130   3.83727   3.92554
 Alpha virt. eigenvalues --    3.93758   4.07956   4.19080   4.20373   4.26697
 Alpha virt. eigenvalues --    4.27399   4.29882   4.32684   4.35085   4.35437
 Alpha virt. eigenvalues --    4.37122   4.41402   4.44912   4.45520   4.48317
 Alpha virt. eigenvalues --    4.48687   4.49632   4.51337   4.56017   4.56458
 Alpha virt. eigenvalues --    4.60415   4.63830   4.69209   4.72744   4.80077
 Alpha virt. eigenvalues --    4.91866
          Condensed to atoms (all electrons):
              1          2          3          4          5          6
     1  Si  13.852338   0.382861   0.296101  -0.688504  -0.199336   0.634624
     2  H    0.382861   0.832234  -0.076573   0.049280  -0.155146   0.357879
     3  H    0.296101  -0.076573   0.737085   0.094033  -0.035951  -0.253491
     4  C   -0.688504   0.049280   0.094033   7.660264  -0.788300  -0.330466
     5  C   -0.199336  -0.155146  -0.035951  -0.788300  11.929434  -1.372374
     6  C    0.634624   0.357879  -0.253491  -0.330466  -1.372374  25.872806
     7  C   -0.889919  -0.455029   0.236234   0.311657   1.422778  -3.135943
     8  C   -0.102380  -0.077525   0.115844   0.266949  -0.161292  -6.932400
     9  O   -0.007032  -0.000308   0.000221   0.003438   0.039248   0.099114
    10  C   -0.039868  -0.001090   0.000111   0.045245  -0.185910  -1.314417
    11  C   -0.005547  -0.000186  -0.000017  -0.001399   0.034980   0.187608
    12  C    0.012049  -0.000292   0.000460   0.001362  -0.006486  -0.012155
    13  S    0.006218  -0.000284  -0.000371  -0.001113  -0.033523  -0.217323
    14  C    0.023840  -0.003524   0.000590   0.068924  -0.244613  -0.611491
    15  C    0.271349  -0.075114   0.031526  -0.073185   0.796518   3.825312
    16  C   -0.069303   0.021880  -0.006453   0.202570  -1.702877  -1.023705
    17  C   -0.098938   0.014411   0.003877   0.066670  -0.410759  -5.981872
    18  C   -0.009232   0.000536  -0.002040  -0.066300   0.280465   0.462751
    19  C    0.150676  -0.002198  -0.017321  -0.015381  -0.979640  -0.925947
    20  C    0.106961   0.112146  -0.064143  -0.009037  -1.555208  -4.043029
    21  C    0.096121   0.141696  -0.066869  -0.230165  -1.663885   0.440155
    22  C    0.001781   0.000074   0.000145  -0.000499   0.004165   0.006803
    23  C   -0.001215   0.000020  -0.000001   0.000064   0.000395   0.004958
    24  N    0.000005   0.000000   0.000000  -0.000000   0.000000   0.000006
    25  C    0.000018  -0.000001  -0.000000  -0.000000  -0.000010   0.000001
    26  C    0.000014  -0.000001  -0.000001   0.000004  -0.000037  -0.000153
    27  N    0.000000   0.000000   0.000000  -0.000000   0.000000   0.000000
    28  S    0.000001   0.000000   0.000000  -0.000001   0.000009   0.000076
    29  N   -0.000032   0.000001   0.000000  -0.000002   0.000034  -0.000081
    30  C    0.002431  -0.000013   0.000039  -0.000120  -0.000560   0.005224
    31  H    0.030332   0.003450  -0.028435   0.273096   0.003780   0.129397
    32  H    0.032750  -0.017098  -0.009000  -0.178638   0.612138  -0.113309
    33  H    0.000886  -0.000018   0.000048  -0.000152   0.000872   0.012677
    34  H   -0.001401   0.000139   0.000032  -0.000410   0.011959  -0.053399
    35  H   -0.000021   0.000006  -0.000040  -0.001478   0.000686   0.000037
    36  H    0.000747  -0.000274   0.000092   0.008770  -0.032008   0.009179
    37  H   -0.010954   0.006167  -0.003398  -0.041856  -0.075977  -0.278787
    38  H   -0.000162   0.000007  -0.000005  -0.000002   0.000034   0.000869
    39  H    0.000000  -0.000000  -0.000000   0.000000  -0.000000  -0.000003
              7          8          9         10         11         12
     1  Si  -0.889919  -0.102380  -0.007032  -0.039868  -0.005547   0.012049
     2  H   -0.455029  -0.077525  -0.000308  -0.001090  -0.000186  -0.000292
     3  H    0.236234   0.115844   0.000221   0.000111  -0.000017   0.000460
     4  C    0.311657   0.266949   0.003438   0.045245  -0.001399   0.001362
     5  C    1.422778  -0.161292   0.039248  -0.185910   0.034980  -0.006486
     6  C   -3.135943  -6.932400   0.099114  -1.314417   0.187608  -0.012155
     7  C   15.934121   1.661694  -0.383232   0.805504   0.098936  -0.286994
     8  C    1.661694  17.533171   0.087425  -2.480584   0.559187  -0.761132
     9  O   -0.383232   0.087425   8.267499   0.247735  -0.001683   0.095485
    10  C    0.805504  -2.480584   0.247735   9.976127  -0.841340  -0.365366
    11  C    0.098936   0.559187  -0.001683  -0.841340   7.719345  -0.294169
    12  C   -0.286994  -0.761132   0.095485  -0.365366  -0.294169  13.609264
    13  S    0.196025  -0.431782  -0.044164   0.187243  -0.435023   0.871992
    14  C    0.054894  -3.174047  -0.313794   0.193058   0.585244  -0.621452
    15  C   -2.416626  -3.022053   0.420101  -1.215824  -0.177057   0.345983
    16  C   -0.770849  -0.273585  -0.065029  -0.023746  -0.073349  -0.128334
    17  C    0.497893   1.764791  -0.049444   0.484320  -0.068610  -0.145844
    18  C   -0.172867   0.036507  -0.003591  -0.029435   0.019618  -0.054548
    19  C   -1.333785  -0.522667  -0.004588   0.025184  -0.012516   0.011654
    20  C   -2.662025   0.573421  -0.033253   0.012088  -0.012762  -0.035071
    21  C   -2.064204   1.768624  -0.127664  -0.185765  -0.111900   0.005120
    22  C   -0.120649   0.186312  -0.011058  -0.953553   1.217898   3.731246
    23  C    0.031970   0.092712  -0.010909  -0.168501   0.393113  -0.863687
    24  N   -0.000446   0.000676   0.000051  -0.000856  -0.012116  -0.031862
    25  C   -0.000403  -0.003997   0.000514   0.023535  -0.083764  -0.178383
    26  C   -0.000567  -0.032014   0.001282  -0.056840  -0.066571  -0.299805
    27  N   -0.000045   0.000236   0.000012   0.007770  -0.009949   0.002600
    28  S   -0.000647   0.008511  -0.000192   0.033320   0.018482  -0.207048
    29  N    0.001944   0.027548  -0.001028  -0.000969   0.089913  -0.075116
    30  C   -0.144922   0.125752   0.019486   1.602075  -2.781937  -7.636882
    31  H   -0.063083  -0.089907   0.001388  -0.012428   0.000048   0.000581
    32  H    0.112069  -0.051062   0.000718  -0.002147   0.000801  -0.000591
    33  H   -0.033558  -0.035900   0.004723   0.042838   0.126069  -0.141612
    34  H   -0.006383   0.058131  -0.000332   0.001392   0.004533   0.002144
    35  H   -0.003944   0.006982  -0.000049  -0.001134   0.000457  -0.001094
    36  H    0.012357  -0.000169   0.000007  -0.000078  -0.000153   0.000269
    37  H   -0.162191   0.012331  -0.001267   0.007622  -0.000296  -0.001510
    38  H    0.004650   0.010228  -0.001238   0.000261  -0.022644  -0.178940
    39  H    0.000000  -0.000220   0.000015  -0.000678  -0.000744   0.008655
             13         14         15         16         17         18
     1  Si   0.006218   0.023840   0.271349  -0.069303  -0.098938  -0.009232
     2  H   -0.000284  -0.003524  -0.075114   0.021880   0.014411   0.000536
     3  H   -0.000371   0.000590   0.031526  -0.006453   0.003877  -0.002040
     4  C   -0.001113   0.068924  -0.073185   0.202570   0.066670  -0.066300
     5  C   -0.033523  -0.244613   0.796518  -1.702877  -0.410759   0.280465
     6  C   -0.217323  -0.611491   3.825312  -1.023705  -5.981872   0.462751
     7  C    0.196025   0.054894  -2.416626  -0.770849   0.497893  -0.172867
     8  C   -0.431782  -3.174047  -3.022053  -0.273585   1.764791   0.036507
     9  O   -0.044164  -0.313794   0.420101  -0.065029  -0.049444  -0.003591
    10  C    0.187243   0.193058  -1.215824  -0.023746   0.484320  -0.029435
    11  C   -0.435023   0.585244  -0.177057  -0.073349  -0.068610   0.019618
    12  C    0.871992  -0.621452   0.345983  -0.128334  -0.145844  -0.054548
    13  S   17.184071  -0.372200  -0.432980  -0.266570   0.127957  -0.032422
    14  C   -0.372200  11.675148   0.295342   0.787981   0.355456  -0.611475
    15  C   -0.432980   0.295342  18.099669  -0.387736  -3.039837   0.399127
    16  C   -0.266570   0.787981  -0.387736  12.764075  -3.903793  -1.186499
    17  C    0.127957   0.355456  -3.039837  -3.903793  16.567497  -1.580231
    18  C   -0.032422  -0.611475   0.399127  -1.186499  -1.580231   8.835664
    19  C    0.030970   0.278613  -0.093023   2.751596  -1.478525   0.393303
    20  C    0.053031  -0.215908  -3.133042  -1.352349   4.642621  -1.949370
    21  C    0.080547  -1.052102  -5.964671   0.315236  -1.175716   0.939958
    22  C    0.206055   0.690964   0.026022   0.039752   0.028738   0.011339
    23  C   -0.215964   0.477814  -0.012876   0.012913   0.001335   0.000654
    24  N   -0.004174   0.002291   0.000961   0.000186  -0.000013   0.000000
    25  C   -0.004451  -0.066758  -0.002882  -0.001263  -0.000213  -0.000020
    26  C    0.107963  -0.072913  -0.011718  -0.003108  -0.000633  -0.000034
    27  N   -0.007647  -0.003679   0.000713   0.000070  -0.000022  -0.000002
    28  S   -0.042189  -0.024530   0.008144   0.000659   0.000285   0.000111
    29  N   -0.058466   0.000393   0.002883  -0.001528   0.002366   0.000289
    30  C   -0.563384  -2.112879   0.420672   0.036763  -0.033815  -0.003255
    31  H   -0.000256  -0.002072   0.053868  -0.044095  -0.031904   0.001208
    32  H   -0.000915  -0.003041   0.071183  -0.064376  -0.030940   0.004701
    33  H    0.059967  -0.104226   0.029952   0.024764  -0.013218   0.002171
    34  H   -0.013123  -0.019112  -0.044456  -0.183466   0.522788  -0.046197
    35  H    0.000284  -0.017655   0.014228  -0.026258  -0.106636   0.406158
    36  H    0.000041   0.009652  -0.005435   0.057404   0.048257  -0.160197
    37  H    0.001557  -0.017823  -0.080866   0.047873   0.090342   0.064926
    38  H   -0.011841  -0.000235  -0.002970   0.000549   0.000090   0.000071
    39  H    0.000104  -0.000312  -0.000103  -0.000016  -0.000001  -0.000000
             19         20         21         22         23         24
     1  Si   0.150676   0.106961   0.096121   0.001781  -0.001215   0.000005
     2  H   -0.002198   0.112146   0.141696   0.000074   0.000020   0.000000
     3  H   -0.017321  -0.064143  -0.066869   0.000145  -0.000001   0.000000
     4  C   -0.015381  -0.009037  -0.230165  -0.000499   0.000064  -0.000000
     5  C   -0.979640  -1.555208  -1.663885   0.004165   0.000395   0.000000
     6  C   -0.925947  -4.043029   0.440155   0.006803   0.004958   0.000006
     7  C   -1.333785  -2.662025  -2.064204  -0.120649   0.031970  -0.000446
     8  C   -0.522667   0.573421   1.768624   0.186312   0.092712   0.000676
     9  O   -0.004588  -0.033253  -0.127664  -0.011058  -0.010909   0.000051
    10  C    0.025184   0.012088  -0.185765  -0.953553  -0.168501  -0.000856
    11  C   -0.012516  -0.012762  -0.111900   1.217898   0.393113  -0.012116
    12  C    0.011654  -0.035071   0.005120   3.731246  -0.863687  -0.031862
    13  S    0.030970   0.053031   0.080547   0.206055  -0.215964  -0.004174
    14  C    0.278613  -0.215908  -1.052102   0.690964   0.477814   0.002291
    15  C   -0.093023  -3.133042  -5.964671   0.026022  -0.012876   0.000961
    16  C    2.751596  -1.352349   0.315236   0.039752   0.012913   0.000186
    17  C   -1.478525   4.642621  -1.175716   0.028738   0.001335  -0.000013
    18  C    0.393303  -1.949370   0.939958   0.011339   0.000654   0.000000
    19  C   11.547527  -1.840561  -1.970362  -0.003896  -0.000210  -0.000000
    20  C   -1.840561  15.191659   2.389116  -0.008102   0.000110  -0.000002
    21  C   -1.970362   2.389116  14.436495  -0.018966  -0.000005  -0.000016
    22  C   -0.003896  -0.008102  -0.018966  25.012514  -2.639083   0.055645
    23  C   -0.000210   0.000110  -0.000005  -2.639083  10.094511   0.186704
    24  N   -0.000000  -0.000002  -0.000016   0.055645   0.186704   6.801422
    25  C    0.000008   0.000001  -0.000012   0.817489  -1.594883  -0.049754
    26  C    0.000066  -0.000041  -0.000561  -1.006099   0.250377   0.201969
    27  N   -0.000000  -0.000000   0.000008  -0.126817   0.012404   0.005150
    28  S   -0.000045  -0.000014   0.000305  -0.767837   0.108183   0.006570
    29  N   -0.000146   0.000080   0.000150  -0.475641   0.065885   0.000245
    30  C    0.000961  -0.003515   0.014579 -19.679561  -0.248683   0.175148
    31  H    0.038173  -0.001143  -0.006426   0.000022  -0.000010   0.000000
    32  H    0.037384  -0.068673  -0.124327  -0.000142   0.000015  -0.000000
    33  H   -0.000386  -0.005286  -0.007301  -0.239595  -0.053148   0.002600
    34  H   -0.032936   0.075428   0.011272  -0.000139   0.000070  -0.000000
    35  H   -0.050899   0.038014   0.036949   0.000138   0.000015   0.000000
    36  H    0.438075  -0.027429  -0.059612  -0.000021  -0.000001  -0.000000
    37  H    0.167224   0.525770  -0.091440  -0.000095  -0.000006  -0.000000
    38  H   -0.000025   0.000022   0.000814  -0.380026   0.612254  -0.135067
    39  H    0.000000   0.000000  -0.000002   0.086609  -0.059756  -0.105385
             25         26         27         28         29         30
     1  Si   0.000018   0.000014   0.000000   0.000001  -0.000032   0.002431
     2  H   -0.000001  -0.000001   0.000000   0.000000   0.000001  -0.000013
     3  H   -0.000000  -0.000001   0.000000   0.000000   0.000000   0.000039
     4  C   -0.000000   0.000004  -0.000000  -0.000001  -0.000002  -0.000120
     5  C   -0.000010  -0.000037   0.000000   0.000009   0.000034  -0.000560
     6  C    0.000001  -0.000153   0.000000   0.000076  -0.000081   0.005224
     7  C   -0.000403  -0.000567  -0.000045  -0.000647   0.001944  -0.144922
     8  C   -0.003997  -0.032014   0.000236   0.008511   0.027548   0.125752
     9  O    0.000514   0.001282   0.000012  -0.000192  -0.001028   0.019486
    10  C    0.023535  -0.056840   0.007770   0.033320  -0.000969   1.602075
    11  C   -0.083764  -0.066571  -0.009949   0.018482   0.089913  -2.781937
    12  C   -0.178383  -0.299805   0.002600  -0.207048  -0.075116  -7.636882
    13  S   -0.004451   0.107963  -0.007647  -0.042189  -0.058466  -0.563384
    14  C   -0.066758  -0.072913  -0.003679  -0.024530   0.000393  -2.112879
    15  C   -0.002882  -0.011718   0.000713   0.008144   0.002883   0.420672
    16  C   -0.001263  -0.003108   0.000070   0.000659  -0.001528   0.036763
    17  C   -0.000213  -0.000633  -0.000022   0.000285   0.002366  -0.033815
    18  C   -0.000020  -0.000034  -0.000002   0.000111   0.000289  -0.003255
    19  C    0.000008   0.000066  -0.000000  -0.000045  -0.000146   0.000961
    20  C    0.000001  -0.000041  -0.000000  -0.000014   0.000080  -0.003515
    21  C   -0.000012  -0.000561   0.000008   0.000305   0.000150   0.014579
    22  C    0.817489  -1.006099  -0.126817  -0.767837  -0.475641 -19.679561
    23  C   -1.594883   0.250377   0.012404   0.108183   0.065885  -0.248683
    24  N   -0.049754   0.201969   0.005150   0.006570   0.000245   0.175148
    25  C   11.890058  -2.316739  -0.598951  -0.222348   0.153239  -2.317711
    26  C   -2.316739  11.809987   0.009134  -0.351901   0.218379  -2.208666
    27  N   -0.598951   0.009134   7.484685   0.055499  -0.154754   0.736281
    28  S   -0.222348  -0.351901   0.055499  15.816734  -0.086388   0.861743
    29  N    0.153239   0.218379  -0.154754  -0.086388   7.555711   0.067427
    30  C   -2.317711  -2.208666   0.736281   0.861743   0.067427  39.178817
    31  H    0.000000   0.000001  -0.000000   0.000000  -0.000001   0.000048
    32  H    0.000000  -0.000000  -0.000000  -0.000000  -0.000000  -0.000059
    33  H    0.008035   0.025427   0.004405  -0.003900  -0.011348   0.500538
    34  H   -0.000020  -0.000415   0.000004   0.000278   0.000512  -0.000719
    35  H   -0.000001  -0.000005   0.000000   0.000002   0.000008  -0.000086
    36  H    0.000000   0.000001  -0.000000  -0.000000  -0.000001   0.000011
    37  H   -0.000000  -0.000001  -0.000000  -0.000001   0.000002  -0.000083
    38  H   -0.005197   0.032891   0.001374   0.001928  -0.001074   0.237264
    39  H    0.730779  -0.339518  -0.010401  -0.016427  -0.001563  -0.092290
             31         32         33         34         35         36
     1  Si   0.030332   0.032750   0.000886  -0.001401  -0.000021   0.000747
     2  H    0.003450  -0.017098  -0.000018   0.000139   0.000006  -0.000274
     3  H   -0.028435  -0.009000   0.000048   0.000032  -0.000040   0.000092
     4  C    0.273096  -0.178638  -0.000152  -0.000410  -0.001478   0.008770
     5  C    0.003780   0.612138   0.000872   0.011959   0.000686  -0.032008
     6  C    0.129397  -0.113309   0.012677  -0.053399   0.000037   0.009179
     7  C   -0.063083   0.112069  -0.033558  -0.006383  -0.003944   0.012357
     8  C   -0.089907  -0.051062  -0.035900   0.058131   0.006982  -0.000169
     9  O    0.001388   0.000718   0.004723  -0.000332  -0.000049   0.000007
    10  C   -0.012428  -0.002147   0.042838   0.001392  -0.001134  -0.000078
    11  C    0.000048   0.000801   0.126069   0.004533   0.000457  -0.000153
    12  C    0.000581  -0.000591  -0.141612   0.002144  -0.001094   0.000269
    13  S   -0.000256  -0.000915   0.059967  -0.013123   0.000284   0.000041
    14  C   -0.002072  -0.003041  -0.104226  -0.019112  -0.017655   0.009652
    15  C    0.053868   0.071183   0.029952  -0.044456   0.014228  -0.005435
    16  C   -0.044095  -0.064376   0.024764  -0.183466  -0.026258   0.057404
    17  C   -0.031904  -0.030940  -0.013218   0.522788  -0.106636   0.048257
    18  C    0.001208   0.004701   0.002171  -0.046197   0.406158  -0.160197
    19  C    0.038173   0.037384  -0.000386  -0.032936  -0.050899   0.438075
    20  C   -0.001143  -0.068673  -0.005286   0.075428   0.038014  -0.027429
    21  C   -0.006426  -0.124327  -0.007301   0.011272   0.036949  -0.059612
    22  C    0.000022  -0.000142  -0.239595  -0.000139   0.000138  -0.000021
    23  C   -0.000010   0.000015  -0.053148   0.000070   0.000015  -0.000001
    24  N    0.000000  -0.000000   0.002600  -0.000000   0.000000  -0.000000
    25  C    0.000000   0.000000   0.008035  -0.000020  -0.000001   0.000000
    26  C    0.000001  -0.000000   0.025427  -0.000415  -0.000005   0.000001
[...]
 ,-0.00001643,-0.00000245,0.00005129,0.00001795,-0.00001163,-0.00000966
 ,-0.00011395,0.00027769,-0.00001486,0.00008006,-0.00015997,-0.00015102
 ,-0.00000094,-0.00024479,-0.00011797,0.00002846,-0.00038294,-0.0000143
 3,-0.00002603,0.00000269,0.00008196,-0.00000868,0.00003102,0.00000339,
 0.00004863,-0.00006219,-0.00010576,-0.00001138,-0.00001542,0.00005194,
 -0.00002807,0.00001088,0.00011992,-0.00041887,-0.00012317,0.00141432,0
 .00210640,-0.00433397,-0.00250761,-0.00571880,-0.01592410,0.02370224,-
 0.02926134,-0.18742712,0.13677285,0.00208868,0.01018102,-0.00844393,0.
 00122462,0.00036586,-0.00220061,0.00020390,-0.00047564,-0.00065998,-0.
 00003118,0.00003337,0.00006751,-0.00000080,-0.00002805,-0.00001787,0.0
 0000254,0.00001316,0.00000614,0.00000794,-0.00001791,-0.00001714,0.000
 00769,-0.00000103,-0.00000951,-0.00000082,-0.00001443,-0.00001557,0.00
 001489,0.00000161,-0.00001368,-0.00000185,0.00001786,-0.00000054,-0.00
 000739,-0.00000314,0.00001066,-0.00000296,-0.00000243,-0.00001117,-0.0
 0001316,0.00000507,0.00001805,0.00000312,-0.00000447,-0.00000687,-0.00
 046125,0.00097696,-0.00034740,0.03062253,0.19625740,-0.00002199,-0.000
 10827,0.00000706,0.00000726,0.00001456,-0.00000208,-0.00000235,0.00001
 916,0.00000289,0.00000571,0.00004669,-0.00007148,0.00001123,0.00000958
 ,0.00009634,-0.00024980,0.00012503,-0.00002159,0.00009268,-0.00001418,
 -0.00007465,-0.00020255,-0.00015704,0.00005029,-0.00002170,0.00003091,
 0.00006934,0.00001295,0.00005730,-0.00004436,0.00000316,-0.00000236,-0
 .00001757,-0.00000555,0.00000754,0.00003347,0.00002063,-0.00002142,0.0
 0000535,0.00003374,-0.00001493,-0.00002083,-0.00000987,-0.00003259,0.0
 0031077,0.00239776,-0.00187657,0.00152190,-0.00080163,-0.00575185,0.00
 795627,0.03979337,0.13726543,-0.20243292,0.00382060,0.02093843,-0.0148
 6289,0.00323520,-0.00296523,-0.00341123,-0.00010691,-0.00093946,-0.000
 05323,0.00000705,-0.00001893,-0.00004511,-0.00000046,0.00001779,0.0000
 0819,0.00000364,-0.00000147,-0.00000801,-0.00000802,0.00000084,0.00001
 264,0.00000343,0.00000840,0.00000502,-0.00000465,0.00001268,0.00001289
 ,0.00000633,-0.00001300,-0.00000874,-0.00000893,0.00000388,0.00000094,
 -0.00000383,-0.00000758,0.00000339,-0.00000451,0.00000725,-0.00000428,
 -0.00003209,-0.00002575,0.00001016,0.00000179,0.00000244,-0.00000128,-
 0.00164873,0.00010829,0.00035044,-0.04534588,-0.14741094,0.21085022,0.
 00002025,0.00001468,0.00011453,-0.00001817,-0.00000918,-0.00001524,-0.
 00000909,-0.00002173,-0.00001489,0.00000657,-0.00012879,-0.00000005,0.
 00021943,0.00008186,-0.00011637,0.00023075,-0.00008071,0.00026862,-0.0
 0046047,-0.00014287,-0.00031306,-0.00002868,-0.00000156,0.00025123,0.0
 0007614,-0.00000098,0.00002418,-0.00001423,0.00004127,-0.00001542,0.00
 001107,0.00001157,-0.00000318,0.00001122,-0.00000481,0.00000695,-0.000
 00626,-0.00002077,-0.00001513,0.00001039,-0.00006043,-0.00002580,-0.00
 075174,0.00018422,-0.00033325,-0.00050299,-0.00046036,-0.00005924,0.00
 451997,0.00057361,0.00341645,0.00150394,0.00996539,0.00096193,-0.04518
 442,0.04347245,0.01386463,0.00426874,-0.00581159,-0.00097622,0.0073508
 3,0.00016886,0.00296793,0.00000878,-0.00000202,-0.00001570,-0.00000195
 ,0.00000550,0.00000278,-0.00000229,0.00000003,-0.00000160,-0.00000093,
 0.00000169,0.00000295,0.00000017,0.00000027,0.00000409,-0.00000380,0.0
 0000710,0.00000492,0.00000351,-0.00000186,-0.00000200,-0.00000562,-0.0
 0000111,0.00000121,0.00000400,-0.00000290,0.00000140,-0.00000628,0.000
 02199,0.00003540,-0.00000448,0.00001200,-0.00003215,0.00000111,0.00000
 130,-0.00000116,0.00011027,0.00050345,0.00010455,-0.00267876,-0.000476
 15,-0.00115840,0.03555153,0.00008919,0.00001491,-0.00017883,-0.0000285
 9,-0.00001916,0.00004029,-0.00001867,-0.00004008,0.00004275,-0.0000094
 3,0.00000406,0.00012757,0.00007964,-0.00003697,-0.00011636,0.00025066,
 -0.00061429,-0.00071294,-0.00013986,-0.00027273,0.00038612,-0.00004225
 ,0.00007340,0.00005521,0.00000658,-0.00004706,0.00001806,0.00001899,-0
 .00001797,-0.00005959,-0.00001472,0.00001145,0.00003323,0.00003221,-0.
 00000217,-0.00007358,-0.00001415,-0.00000057,0.00003789,0.00001230,-0.
 00003499,-0.00002814,-0.00008014,0.00011303,-0.00000596,-0.00020072,0.
 00045022,0.00028213,0.00086483,0.00149669,-0.00143687,0.00042987,-0.00
 473439,0.00088789,0.04356408,-0.32498045,-0.04777705,0.00376299,-0.016
 22962,-0.00598426,-0.00029221,-0.00006792,0.00378103,-0.00002334,0.000
 03059,0.00007074,-0.00000061,-0.00002977,-0.00001657,-0.00000282,0.000
 00177,0.00001125,0.00000995,-0.00000090,-0.00001777,0.00000246,-0.0000
 1480,-0.00000777,0.00000425,-0.00001935,-0.00002013,-0.00000146,0.0000
 1810,0.00001409,0.00000654,-0.00000099,-0.00000673,-0.00000295,0.00000
 751,-0.00000758,-0.00000944,-0.00000465,0.00000080,-0.00001411,-0.0000
 1095,0.00001167,-0.00000012,-0.00000455,0.00000018,0.00002083,-0.00034
 614,0.00010922,-0.00024994,0.00070134,-0.00035287,-0.04744927,0.343704
 69,-0.00001992,0.00008632,0.00009610,0.00000544,-0.00000064,-0.0000183
 4,0.00000827,0.00000272,-0.00003993,0.00003279,-0.00008106,-0.00004923
 ,-0.00002574,0.00002844,-0.00002766,-0.00017593,0.00071696,0.00093856,
 -0.00011975,0.00032442,-0.00025651,0.00009727,-0.00005273,-0.00021536,
 0.00000167,-0.00000467,0.00006205,-0.00000420,-0.00001455,-0.00001322,
 -0.00000044,-0.00004137,0.00002263,-0.00000453,0.00005668,0.00001311,-
 0.00001692,0.00003539,0.00001930,0.00000633,0.00008511,0.00000032,-0.0
 0028401,-0.00019596,0.00007554,0.00009183,0.00061766,-0.00104340,0.003
 33014,-0.00063510,-0.00447048,0.00374257,-0.02866223,-0.00022950,0.014
 07693,-0.04817289,-0.06622535,-0.00379172,0.02358841,0.00817261,0.0030
 9782,0.00301277,-0.00271059,-0.00000451,-0.00000742,0.00002012,0.00000
 296,-0.00000310,-0.00000416,-0.00000259,-0.00000221,-0.00000060,0.0000
 0086,0.00000140,-0.00000116,0.00000245,-0.00000160,-0.00000335,0.00000
 084,-0.00000820,-0.00000915,-0.00000273,0.00000078,0.00000992,0.000004
 31,-0.00000031,-0.00000557,-0.00000120,0.00000580,-0.00000159,-0.00000
 155,0.00001564,0.00002998,0.00002416,0.00004085,-0.00002245,-0.0000018
 2,-0.00000213,0.00000579,0.00027394,-0.00143132,-0.00017056,-0.0012295
 8,0.00032500,0.00063940,-0.01752912,0.05088479,0.06487407,0.00016284,0
 .00003479,-0.00009036,-0.00001793,-0.00000761,-0.00002054,-0.00002747,
 0.00001410,0.00006587,-0.00036133,0.00037826,0.00000442,0.00052199,-0.
 00083405,0.00021988,-0.00262253,-0.00115501,-0.00052221,-0.00004543,0.
 00034213,0.00018818,-0.00022429,-0.00002790,-0.00026927,0.00002377,0.0
 0011708,0.00010871,0.00001879,0.00001467,-0.00007390,-0.00004491,0.000
 01936,-0.00000049,0.00002617,0.00000125,-0.00001096,0.00002304,-0.0000
 0789,0.00001242,0.00019145,0.00004524,-0.00000907,0.00012075,-0.000112
 16,0.00036026,0.00479790,0.00103114,0.00133448,-0.00059791,0.00026655,
 -0.00050579,0.00739701,-0.00054446,0.00221298,0.00244421,0.00197053,0.
 00469038,-0.06297103,0.02713039,0.08030768,0.00193155,0.00135063,0.003
 76222,-0.00002122,0.00000212,-0.00000129,-0.00000101,-0.00000081,-0.00
 000351,0.00000398,-0.00000365,0.00000289,0.00000061,0.00000042,-0.0000
 0127,0.00000121,-0.00000237,0.00000164,-0.00000097,0.00000007,-0.00000
 099,0.00000293,0.00000331,0.00000097,-0.00000473,-0.00000071,-0.000001
 35,0.00000138,-0.00000057,-0.00000075,-0.00006576,0.00003175,-0.000152
 89,-0.00016520,-0.00022024,0.00023451,0.00000548,0.00000025,0.00000201
 ,-0.00104165,-0.00010755,-0.00030611,0.00005839,0.00011499,0.00018113,
 -0.00422969,-0.00056169,-0.00158580,0.05471207,-0.00009372,-0.00058415
 ,-0.00015708,0.00000578,0.00004777,0.00005013,-0.00001287,-0.00000980,
 0.00001062,0.00033605,-0.00033439,-0.00043140,-0.00054860,0.00088845,0
 .00035888,0.00002858,0.00131455,-0.00060858,0.00017952,-0.00014549,0.0
 0011747,0.00000343,0.00013256,-0.00005216,-0.00002056,-0.00021248,-0.0
 0000571,0.00002374,-0.00007524,-0.00005257,-0.00001393,-0.00005785,0.0
 0004050,0.00000808,0.00001098,-0.00002569,-0.00001721,-0.00001586,0.00
 003902,0.00005658,-0.00029028,0.00022086,0.00054126,-0.00000218,-0.001
 71108,0.00044150,-0.00506085,0.00085396,-0.00006952,-0.00092916,0.0003
 7547,-0.00003148,-0.00262610,0.00325952,-0.00689660,0.01055606,0.02062
 799,0.02719955,-0.08427120,-0.07590312,0.00943450,-0.00506788,-0.02836
 309,-0.00000588,-0.00000754,0.00001374,0.00000350,-0.00000140,-0.00000
 428,-0.00000190,-0.00000425,0.00000063,0.00000119,0.00000096,-0.000000
 72,0.00000024,0.00000391,0.00000065,0.00000135,-0.00000321,-0.00000348
 ,-0.00000164,-0.00000369,0.00000241,0.00000425,0.00000016,-0.00000513,
 -0.00000206,0.00000546,-0.00000126,-0.00002574,0.00019994,0.00016042,-
 0.00039820,-0.00034265,0.00028755,0.00000361,-0.00000878,-0.00001122,-
 0.00009231,0.00014327,-0.00012161,-0.00036995,0.00034974,0.00104042,-0
 .00038790,0.00089651,-0.00051322,-0.02928301,0.08550346,0.00007432,-0.
 00006515,-0.00007729,-0.00002314,-0.00000518,0.00002657,-0.00002315,-0
 .00001622,0.00003845,-0.00016875,0.00010737,0.00021909,0.00045251,-0.0
 0055000,0.00005680,-0.00115497,0.00102142,0.00022615,0.00011162,-0.000
 32803,-0.00004378,-0.00005517,0.00003350,0.00020435,0.00001997,-0.0001
 9983,-0.00004772,-0.00001309,-0.00001687,0.00000090,-0.00000833,-0.000
 00502,0.00003419,0.00001215,0.00001978,-0.00004698,-0.00000793,0.00000
 296,0.00000623,-0.00008726,-0.00006552,0.00007406,0.00017822,0.0004267
 3,-0.00004920,0.00122976,-0.00032802,0.00199991,-0.00035383,0.00041551
 ,0.00030622,0.00196016,0.00418261,-0.00066302,0.00713670,-0.00926296,-
 0.01563875,0.08077095,-0.07536476,-0.28634418,0.00162062,-0.00019599,-
 0.00194989,-0.00001723,0.00001632,0.00004543,0.00000444,-0.00001284,-0
 .00001023,-0.00000336,-0.00000108,0.00000712,0.00000765,0.00000112,-0.
 00001128,-0.00000039,-0.00000861,-0.00000320,0.00000369,-0.00001274,-0
 .00001310,-0.00000406,0.00001048,0.00001309,0.00000710,-0.00000242,-0.
 00000714,0.00000028,0.00000423,-0.00000634,-0.00003991,-0.00003891,-0.
 00014119,-0.00013944,0.00031034,0.00012888,0.00000389,-0.00000346,-0.0
 0000067,-0.00024932,-0.00008587,-0.00015062,0.00029435,-0.00050600,-0.
 00086706,-0.00140704,0.00000873,0.00053833,-0.09013302,0.08051102,0.30
 214570,0.00002756,-0.00001208,-0.00000865,-0.00000623,0.00000145,-0.00
 000078,-0.00000654,0.00000281,0.00000089,-0.00000264,0.00000375,0.0000
 0664,0.00000921,0.00000244,-0.00000624,-0.00000959,-0.00000980,0.00001
 239,-0.00002039,0.00001320,0.00000670,0.00000131,-0.00014667,-0.000024
 37,0.00003753,0.00009031,0.00009476,-0.00032765,0.00043076,-0.00037169
 ,-0.00007854,-0.00085518,0.00051117,-0.00201500,0.00045166,-0.00183141
 ,0.00002063,0.00036749,-0.00014636,-0.00014887,-0.00008165,0.00020590,
 0.00012229,0.00004333,-0.00005425,0.00000538,0.00000797,0.00001873,-0.
 00000387,0.00000008,0.00000061,-0.00000130,0.00000719,0.00000132,-0.00
 000213,0.00000627,0.00000011,0.00000037,-0.00000816,-0.00000269,0.0000
 0203,0.00001167,-0.00001378,0.00281286,-0.00230834,0.00669346,-0.11913
 634,-0.08122381,0.10318537,-0.00504871,0.00053016,0.00913311,0.0048008
 6,-0.00048603,0.00243690,-0.00023482,0.00041064,-0.00033061,-0.0002780
 7,-0.00009038,-0.00000199,-0.00100516,0.00017471,-0.00053838,0.0005564
 2,-0.00040277,0.00055383,0.00603640,-0.00182172,0.00181624,-0.00000333
 ,-0.00000209,0.00000012,-0.00000081,0.00000224,-0.00000050,0.00093026,
 0.00038183,-0.00019003,0.00000364,-0.00000465,0.00000322,0.00000130,0.
 00000212,0.00000012,0.00000073,0.00000147,0.00000085,-0.00000157,0.000
 00020,0.00000107,0.11269370,0.00003309,0.00003607,-0.00006066,-0.00000
 616,-0.00000755,0.00000933,-0.00000367,-0.00001407,0.00000809,0.000004
 47,-0.00002916,0.00005221,0.00000352,0.00002109,-0.00007435,-0.0000481
 0,0.00004425,0.00006913,0.00003455,-0.00003088,-0.00005130,-0.00001481
 ,-0.00013175,0.00007695,-0.00006971,0.00010422,0.00012536,0.00055551,-
 0.00006780,-0.00055619,0.00002304,-0.00017840,0.00003821,0.00014936,0.
 00028500,0.00197320,0.00002698,0.00032760,0.00007732,-0.00003385,0.000
 25701,0.00004190,-0.00000079,0.00003303,-0.00015756,-0.00000699,-0.000
 01269,0.00003386,-0.00000125,0.00000599,-0.00000121,0.00000227,0.00000
 923,-0.00000725,-0.00000389,0.00001246,0.00000999,0.00000553,-0.000007
 03,-0.00000707,-0.00000602,0.00000524,0.00000555,-0.01582577,-0.011562
 46,0.02074421,-0.08058235,-0.13423979,0.10221674,0.01281557,0.01065116
 ,-0.01790666,0.00076369,0.00031241,-0.00486635,0.00018288,-0.00078905,
 -0.00050493,0.00011952,0.00048491,0.00007772,0.00009835,-0.00054923,0.
 00035651,-0.00092327,-0.00043308,0.00119425,-0.00173363,-0.00423462,-0
 .00309315,-0.00000429,0.00000083,0.00000178,0.00000233,0.00001891,0.00
 000894,-0.00042771,0.00029880,-0.00115964,-0.00000259,-0.00001160,0.00
 000443,-0.00000027,0.00000338,-0.00000150,-0.00000158,0.00000435,0.000
 00151,0.00000025,0.00000078,0.00000233,0.08475816,0.13905717,0.0000189
 5,0.00000764,-0.00000785,-0.00000619,-0.00000238,0.00000089,-0.0000026
 8,-0.00000300,0.00000183,-0.00000089,-0.00000645,0.00000706,-0.0000007
 4,0.00000601,-0.00001406,-0.00000106,0.00000467,0.00001488,-0.00000494
 ,-0.00000591,0.00000263,-0.00002293,-0.00005757,0.00001214,0.00000650,
 0.00006242,0.00007878,-0.00020211,-0.00004774,0.00000481,-0.00036261,-
 0.00116785,-0.00082881,-0.00117105,-0.00013342,-0.00127515,0.00000369,
 0.00036045,0.00000171,-0.00003952,-0.00000360,-0.00001391,0.00008307,-
 0.00002543,0.00001117,-0.00000129,0.00001179,-0.00000607,0.00000387,-0
 .00000168,-0.00000513,-0.00000679,0.00000185,0.00000682,0.00000213,-0.
 00000052,-0.00000793,-0.00000560,-0.00000251,0.00000207,0.00000284,0.0
 0000526,-0.00000323,-0.00076662,-0.00208843,0.00638747,0.10298396,0.10
 152190,-0.17849462,0.01509228,0.00574023,-0.02757251,0.00311605,-0.002
 99828,-0.00079061,-0.00010615,-0.00026519,-0.00014596,-0.00009169,0.00
 013648,0.00003687,-0.00059166,0.00024172,-0.00015827,0.00011655,-0.000
 21791,0.00054026,0.00268957,-0.00192145,0.00142458,-0.00000116,-0.0000
 0002,0.00000245,-0.00000019,0.00000206,0.00000099,0.00021281,-0.001340
 90,-0.00154538,0.00000373,-0.00000173,0.00000300,0.00000147,0.00000007
 ,-0.00000054,0.00000057,0.00000126,0.00000062,-0.00000027,0.00000016,0
 .00000123,-0.12153034,-0.09819957,0.20275165,-0.00000043,-0.00000997,-
 0.00000195,0.00000040,0.00000213,0.00000015,-0.00000103,0.00000400,0.0
 0000044,-0.00000295,0.00001658,-0.00000332,0.00000721,-0.00001154,0.00
 002277,0.00001053,-0.00001015,-0.00002215,-0.00003563,0.00001069,0.000
 01820,0.00001717,-0.00002621,-0.00004106,0.00000547,0.00001407,0.00005
 764,-0.00002036,-0.00009213,-0.00009224,0.00004520,-0.00007895,0.00011
 545,-0.00112383,0.00039980,-0.00097532,-0.00021920,0.00013737,0.000083
 45,0.00000523,0.00011802,-0.00007715,0.00011916,0.00000486,0.00006477,
 0.00000602,0.00000088,-0.00000028,0.00000273,0.00000045,-0.00000798,-0
 .00000219,-0.00000182,0.00000410,0.00000177,0.00000373,0.00000380,-0.0
 0000010,-0.00000184,0.00000041,-0.00000879,0.00000345,-0.00000694,-0.0
 0061887,0.00023637,0.00036783,0.00842824,-0.00280081,0.00577954,-0.011
 61833,0.00776304,0.01436139,-0.05729680,0.03731544,0.05685067,0.007718
 44,-0.00520510,-0.00428882,-0.00077608,0.00112794,-0.00094370,-0.00045
 043,0.00027622,-0.00036008,0.00018300,-0.00070600,-0.00023103,0.002886
 43,-0.00204690,0.00199139,-0.00000040,-0.00000155,-0.00000193,-0.00000
 153,-0.00000550,-0.00000338,0.00001847,0.00001599,-0.00003844,0.000000
 71,-0.00000205,0.00000430,-0.00000085,-0.00000031,0.00000007,0.0000004
 7,-0.00000031,0.00000065,-0.00000093,0.00000017,-0.00000005,0.00026909
 ,0.00011765,0.00057842,0.05245299,0.00001759,0.00002918,-0.00001359,-0
 .00000333,-0.00000498,0.00000179,-0.00000126,-0.00000908,0.00000068,0.
 00000346,-0.00002652,0.00002215,-0.00000514,0.00001593,-0.00004486,-0.
 00002680,0.00001891,0.00004474,0.00002715,-0.00001841,-0.00003668,-0.0
 0001398,0.00003497,0.00005792,0.00000299,-0.00000592,-0.00005484,-0.00
 003362,0.00018720,0.00000281,0.00008414,0.00000360,-0.00018752,0.00029
 903,0.00011472,0.00040584,-0.00000279,-0.00004623,0.00004961,-0.000028
 20,-0.00004107,0.00011918,-0.00001444,-0.00000003,-0.00001996,-0.00000
 330,-0.00002243,0.00001432,-0.00000217,0.00001340,0.00000535,0.0000047
 6,0.00000092,-0.00001343,-0.00000307,0.00000202,0.00000892,0.00000443,
 0.00000248,-0.00000767,-0.00000773,-0.00001229,0.00000862,-0.00023898,
 -0.00073631,0.00035008,-0.00384871,0.00153671,0.00255260,-0.00266319,0
 .01466430,0.01533982,0.03754083,-0.15892689,-0.13232748,0.00760061,-0.
 01219155,-0.02435320,0.00077360,0.00248622,0.00028648,0.00020013,-0.00
 081072,-0.00049069,-0.00006213,-0.00170316,-0.00084854,-0.00277704,-0.
 00288071,0.00241133,-0.00000166,0.00000121,0.00000204,0.00000143,0.000
 01231,0.00000687,-0.00000534,0.00000927,-0.00001655,-0.00000061,-0.000
 00273,-0.00000014,-0.00000006,0.00000267,-0.00000069,-0.00000065,0.000
 00184,0.00000005,0.00000039,-0.00000011,0.00000104,-0.00024859,0.00032
 527,0.00038757,-0.03656774,0.15797601,-0.00001146,-0.00001495,0.000016
 39,0.00000323,0.00000349,-0.00000294,0.00000054,0.00000635,-0.00000268
 ,-0.00000270,0.00001730,-0.00001742,0.00000488,-0.00001427,0.00003564,
 0.00001711,-0.00001892,-0.00003231,-0.00002935,0.00002059,0.00002480,0
 .00001096,0.00000805,-0.00004964,0.00001567,-0.00000864,-0.00000669,-0
 .00004204,-0.00000579,0.00002618,0.00004224,-0.00002357,-0.00002679,-0
 .00064221,0.00001482,-0.00033020,-0.00010969,0.00000198,-0.00001958,0.
 00000061,-0.00003020,-0.00005679,0.00006067,0.00001843,0.00006781,0.00
 000406,0.00000178,-0.00000723,0.00000314,-0.00000058,0.00000031,-0.000
 00030,-0.00000268,-0.00000014,0.00000028,0.00000094,0.00000439,0.00000
 061,-0.00000018,-0.00000074,-0.00000155,-0.00000059,-0.00000552,-0.000
 07270,-0.00013927,-0.00046570,0.00522157,0.00072746,0.00195099,0.00883
 369,-0.00673140,-0.02712787,0.05744859,-0.13119784,-0.21421838,0.00156
 937,0.00140483,0.00425991,-0.00098622,-0.00033931,0.00036444,-0.000410
 80,-0.00064739,-0.00017390,-0.00002728,0.00043015,0.00052009,0.0019174
 8,0.00068128,0.00081263,0.00000071,-0.00000128,-0.00000219,-0.00000115
 ,-0.00000801,-0.00000472,0.00002366,-0.00000606,0.00003711,0.00000061,
 0.00000237,-0.00000045,-0.00000107,-0.00000087,0.00000091,0.00000069,-
 0.00000191,-0.00000030,-0.00000080,-0.00000005,-0.00000106,0.00036857,
 -0.00048214,-0.00042390,-0.07320962,0.13633606,0.23485553\\-0.00000724
 ,-0.00000827,-0.00000571,0.00000333,0.00000042,0.00000113,0.00001047,0
 .00000441,0.00000375,-0.00000511,0.00000711,0.00001388,0.00000894,-0.0
 0001298,-0.00001099,0.00000675,-0.00000225,-0.00000441,-0.00000496,0.0
 0001227,0.00000280,-0.00000543,0.00000013,0.00000845,-0.00000333,-0.00
 000590,0.00000972,0.00001734,0.00001125,-0.00002012,-0.00000354,-0.000
 01243,0.00000837,-0.00000806,0.00000728,-0.00000879,-0.00000379,0.0000
 1923,0.00000003,0.00001428,-0.00002320,0.00000814,-0.00001032,0.000004
 67,-0.00000530,-0.00000010,-0.00000155,0.00000506,0.00000069,-0.000001
 02,-0.00000229,-0.00000059,0.00000094,0.00000079,-0.00000100,0.0000004
 3,0.00000131,0.00000100,0.00000243,0.00000245,0.00000498,-0.00000277,-
 0.00000473,-0.00001275,0.00001332,0.00002008,0.00000489,-0.00001540,-0
 .00002581,-0.00000977,0.00000310,0.00002321,0.00001525,0.00001674,-0.0
 0001459,-0.00000680,-0.00001869,0.00000174,0.00000530,0.00000541,0.000
 00881,-0.00000784,0.00001259,-0.00001627,0.00001719,-0.00001196,0.0000
 0717,-0.00001369,-0.00000173,-0.00001666,0.00000387,-0.00000563,-0.000
 00652,0.00000166,0.00000076,0.00000439,-0.00000607,0.00000507,0.000009
 60,-0.00000099,0.00000093,0.00000110,-0.00000119,0.00000142,0.00000088
 ,0.00000132,-0.00000031,0.00000050,0.00000111,0.00000011,-0.00000066,0
 .00000443,-0.00000477,0.00000004,-0.00001027,-0.00000115,-0.00000054\\
 \@


 TOM, TOM, THE BURGLAR'S SON
 STOLE A MACHINE AND AWAY HE RUN
 THE JOB WAS NEAT, BUT TOM GOT BEAT
 BY THE TIME HE GOT HOME IT WAS OBSOLETE.
 Job cpu time:  0 days 17 hours  5 minutes 21.0 seconds.
 File lengths (MBytes):  RWF=   1538 Int=      0 D2E=      0 Chk=     26 Scr=      1
 Normal termination of Gaussian 09 at Sun Dec 29 18:47:36 2013.
