 Entering Gaussian System, Link 0=g09
 Initial command:
 /opt/gaussian/g09/l1.exe /panfs/panfs.cluster/home/shuo/Gau-15984.inp -scrdir=/panfs/panfs.cluster/home/shuo/
 Default is to use a total of  12 processors:
                               12 via shared-memory
                                1 via Linda
 Entering Link 1 = /opt/gaussian/g09/l1.exe PID=     15985.
  
 Copyright (c) 1988,1990,1992,1993,1995,1998,2003,2009,2011,
            Gaussian, Inc.  All Rights Reserved.
  
 This is part of the Gaussian(R) 09 program.  It is based on
 the Gaussian(R) 03 system (copyright 2003, Gaussian, Inc.),
 the Gaussian(R) 98 system (copyright 1998, Gaussian, Inc.),
 the Gaussian(R) 94 system (copyright 1995, Gaussian, Inc.),
 the Gaussian 92(TM) system (copyright 1992, Gaussian, Inc.),
 the Gaussian 90(TM) system (copyright 1990, Gaussian, Inc.),
 the Gaussian 88(TM) system (copyright 1988, Gaussian, Inc.),
 the Gaussian 86(TM) system (copyright 1986, Carnegie Mellon
 University), and the Gaussian 82(TM) system (copyright 1983,
 Carnegie Mellon University). Gaussian is a federally registered
 trademark of Gaussian, Inc.
  
 This software contains proprietary and confidential information,
 including trade secrets, belonging to Gaussian, Inc.
  
 This software is provided under written license and may be
 used, copied, transmitted, or stored only in accord with that
 written license.
  
 The following legend is applicable only to US Government
 contracts under FAR:
  
                    RESTRICTED RIGHTS LEGEND
  
 Use, reproduction and disclosure by the US Government is
 subject to restrictions as set forth in subparagraphs (a)
 and (c) of the Commercial Computer Software - Restricted
 Rights clause in FAR 52.227-19.
  
 Gaussian, Inc.
 340 Quinnipiac St., Bldg. 40, Wallingford CT 06492
  
  
 ---------------------------------------------------------------
 Warning -- This program may not be used in any manner that
 competes with the business of Gaussian, Inc. or will provide
 assistance to any competitor of Gaussian, Inc.  The licensee
 of this program is prohibited from giving any competitor of
 Gaussian, Inc. access to this program.  By using this program,
 the user acknowledges that Gaussian, Inc. is engaged in the
 business of creating and licensing software in the field of
 computational chemistry and represents and warrants to the
 licensee that it is not a competitor of Gaussian, Inc. and that
 it will not use this program in any manner prohibited above.
 ---------------------------------------------------------------
  

 Cite this work as:
 Gaussian 09, Revision C.01,
 M. J. Frisch, G. W. Trucks, H. B. Schlegel, G. E. Scuseria, 
 M. A. Robb, J. R. Cheeseman, G. Scalmani, V. Barone, B. Mennucci, 
 G. A. Petersson, H. Nakatsuji, M. Caricato, X. Li, H. P. Hratchian, 
 A. F. Izmaylov, J. Bloino, G. Zheng, J. L. Sonnenberg, M. Hada, 
 M. Ehara, K. Toyota, R. Fukuda, J. Hasegawa, M. Ishida, T. Nakajima, 
 Y. Honda, O. Kitao, H. Nakai, T. Vreven, J. A. Montgomery, Jr., 
 J. E. Peralta, F. Ogliaro, M. Bearpark, J. J. Heyd, E. Brothers, 
 K. N. Kudin, V. N. Staroverov, T. Keith, R. Kobayashi, J. Normand, 
 K. Raghavachari, A. Rendell, J. C. Burant, S. S. Iyengar, J. Tomasi, 
 M. Cossi, N. Rega, J. M. Millam, M. Klene, J. E. Knox, J. B. Cross, 
 V. Bakken, C. Adamo, J. Jaramillo, R. Gomperts, R. E. Stratmann, 
 O. Yazyev, A. J. Austin, R. Cammi, C. Pomelli, J. W. Ochterski, 
 R. L. Martin, K. Morokuma, V. G. Zakrzewski, G. A. Voth, 
 P. Salvador, J. J. Dannenberg, S. Dapprich, A. D. Daniels, 
 O. Farkas, J. B. Foresman, J. V. Ortiz, J. Cioslowski, 
 and D. J. Fox, Gaussian, Inc., Wallingford CT, 2010.
 
 ******************************************
 Gaussian 09:  EM64L-G09RevC.01 23-Sep-2011
                29-Dec-2013 
 ******************************************
 %chk=83_C23H11N3S4Si.chk
 %NProcShared=12
 Will use up to   12 processors via shared memory.
 %Mem=8000MB
 Default route:  MaxDisk=100GB
 --------------------------------------------
 #B3LYP/6-31++G(d,p) opt scf=direct freq test
 --------------------------------------------
 1/14=-1,18=20,19=15,26=3,38=1/1,3;
 2/9=110,12=2,17=6,18=5,40=1/2;
 3/5=1,6=6,7=1111,11=2,16=1,25=1,30=1,71=1,74=-5/1,2,3;
 4//1;
 5/5=2,38=5/2;
 6/7=2,8=2,9=2,10=2,28=1/1;
 7//1,2,3,16;
 1/14=-1,18=20,19=15/3(2);
 2/9=110/2;
 99//99;
 2/9=110/2;
 3/5=1,6=6,7=1111,11=2,16=1,25=1,30=1,71=1,74=-5/1,2,3;
 4/5=5,16=3/1;
 5/5=2,38=5/2;
 7//1,2,3,16;
 1/14=-1,18=20,19=15/3(-5);
 2/9=110/2;
 6/7=2,8=2,9=2,10=2,19=2,28=1/1;
 99/9=1/99;
 ----------------------------------------------------------------------
 Geom opt of No.83 candidate from the CEPDB database with SMILE code of
  C1ccc2c1c(sc2-c1cncs1)-c1cnc(-c2cccc3cscc23)c2nsnc12, HPC, 20131227, 
 Shuo Dai, Gaussian09
 ----------------------------------------------------------------------
 Charge =  0 Multiplicity = 1
 Symbolic Z-Matrix:
 C                    -1.3944    1.16793   0.00599 
 C                    -2.2111   -0.10052  -0.00457 
 C                    -1.39557  -1.18504  -0.00653 
 C                    -0.04519  -0.76905  -0.00229 
 C                     0.00691   0.63087   0.01548 
 C                     1.29633   1.09628   0.05201 
 S                     2.41042  -0.18235   0.00564 
 C                     1.19473  -1.35896  -0.00341 
 C                     1.59168  -2.70517  -0.00747 
 C                     2.88492  -3.20812   0.0134 
 N                     2.97371  -4.57684   0.01638 
 C                     1.75647  -5.0683   -0.00505 
 S                     0.46388  -3.97367  -0.03566 
 C                     1.85206   2.40936   0.07438 
 C                     3.2149    2.72286   0.06437 
 N                     3.73216   3.96697   0.06479 
 C                     2.91231   5.05294  -0.0762 
 C                     3.52876   6.3411    0.00125 
 C                     4.93907   6.5011   -0.08287 
 C                     5.5907    7.7607   -0.06927 
 C                     4.90194   8.98837   0.0071 
 C                     3.52138   8.83149   0.09977 
 C                     2.64981   9.88944   0.18236 
 S                     1.02069   9.35954   0.15824 
 C                     1.54947   7.77584   0.53426 
 C                     2.85602   7.57039   0.14546 
 C                     1.53069   4.82899  -0.26097 
 N                     0.56563   5.65371  -0.71162 
 S                    -0.88441   5.01269  -0.28469 
 N                    -0.33588   3.54033   0.14123 
 C                     0.99433   3.50833  -0.01503 
 H                    -1.62907   1.72449   0.9191 
 H                    -1.61243   1.7437   -0.9006 
 H                    -3.28489  -0.11112   0.00114 
 H                    -1.75103  -2.19699  -0.00267 
 H                     3.79673  -2.61591   0.03045 
 H                     1.54027  -6.11804  -0.00456 
 H                     3.99087   1.95565   0.06093 
 H                     5.56722   5.60618  -0.15628 
 H                     6.67767   7.76393  -0.13067 
 H                     5.40513   9.94021   0.01479 
 H                     2.84653   10.94425   0.2273 
 H                     0.80614   7.10287   0.92449 
 

 GradGradGradGradGradGradGradGradGradGradGradGradGradGradGradGradGradGrad
 Berny optimization.
 Initialization pass.
                           ----------------------------
                           !    Initial Parameters    !
                           ! (Angstroms and Degrees)  !
 --------------------------                            --------------------------
 ! Name  Definition              Value          Derivative Info.                !
 --------------------------------------------------------------------------------
 ! R1    R(1,2)                  1.5087         estimate D2E/DX2                !
 ! R2    R(1,5)                  1.5007         estimate D2E/DX2                !
 ! R3    R(1,32)                 1.0948         estimate D2E/DX2                !
 ! R4    R(1,33)                 1.0959         estimate D2E/DX2                !
 ! R5    R(2,3)                  1.3569         estimate D2E/DX2                !
 ! R6    R(2,34)                 1.0739         estimate D2E/DX2                !
 ! R7    R(3,4)                  1.413          estimate D2E/DX2                !
 ! R8    R(3,35)                 1.0726         estimate D2E/DX2                !
 ! R9    R(4,5)                  1.401          estimate D2E/DX2                !
 ! R10   R(4,8)                  1.3731         estimate D2E/DX2                !
 ! R11   R(5,6)                  1.3713         estimate D2E/DX2                !
 ! R12   R(6,7)                  1.6965         estimate D2E/DX2                !
 ! R13   R(6,14)                 1.426          estimate D2E/DX2                !
 ! R14   R(7,8)                  1.6919         estimate D2E/DX2                !
 ! R15   R(8,9)                  1.4035         estimate D2E/DX2                !
 ! R16   R(9,10)                 1.3878         estimate D2E/DX2                !
 ! R17   R(9,13)                 1.6976         estimate D2E/DX2                !
 ! R18   R(10,11)                1.3716         estimate D2E/DX2                !
 ! R19   R(10,36)                1.0874         estimate D2E/DX2                !
 ! R20   R(11,12)                1.3129         estimate D2E/DX2                !
 ! R21   R(12,13)                1.6941         estimate D2E/DX2                !
 ! R22   R(12,37)                1.0718         estimate D2E/DX2                !
 ! R23   R(14,15)                1.3985         estimate D2E/DX2                !
 ! R24   R(14,31)                1.3969         estimate D2E/DX2                !
 ! R25   R(15,16)                1.3474         estimate D2E/DX2                !
 ! R26   R(15,38)                1.0912         estimate D2E/DX2                !
 ! R27   R(16,17)                1.368          estimate D2E/DX2                !
 ! R28   R(17,18)                1.4302         estimate D2E/DX2                !
 ! R29   R(17,27)                1.4118         estimate D2E/DX2                !
 ! R30   R(18,19)                1.4218         estimate D2E/DX2                !
 ! R31   R(18,26)                1.4087         estimate D2E/DX2                !
 ! R32   R(19,20)                1.4182         estimate D2E/DX2                !
 ! R33   R(19,39)                1.0958         estimate D2E/DX2                !
 ! R34   R(20,21)                1.4098         estimate D2E/DX2                !
 ! R35   R(20,40)                1.0887         estimate D2E/DX2                !
 ! R36   R(21,22)                1.3925         estimate D2E/DX2                !
 ! R37   R(21,41)                1.0767         estimate D2E/DX2                !
 ! R38   R(22,23)                1.3732         estimate D2E/DX2                !
 ! R39   R(22,26)                1.4266         estimate D2E/DX2                !
 ! R40   R(23,24)                1.7133         estimate D2E/DX2                !
 ! R41   R(23,42)                1.0739         estimate D2E/DX2                !
 ! R42   R(24,25)                1.7115         estimate D2E/DX2                !
 ! R43   R(25,26)                1.3786         estimate D2E/DX2                !
 ! R44   R(25,43)                1.076          estimate D2E/DX2                !
 ! R45   R(27,28)                1.3471         estimate D2E/DX2                !
 ! R46   R(27,31)                1.4465         estimate D2E/DX2                !
 ! R47   R(28,29)                1.6419         estimate D2E/DX2                !
 ! R48   R(29,30)                1.6279         estimate D2E/DX2                !
 ! R49   R(30,31)                1.3397         estimate D2E/DX2                !
 ! A1    A(2,1,5)              101.8082         estimate D2E/DX2                !
 ! A2    A(2,1,32)             108.4951         estimate D2E/DX2                !
 ! A3    A(2,1,33)             109.1624         estimate D2E/DX2                !
 ! A4    A(5,1,32)             112.1356         estimate D2E/DX2                !
 ! A5    A(5,1,33)             112.2734         estimate D2E/DX2                !
 ! A6    A(32,1,33)            112.3484         estimate D2E/DX2                !
 ! A7    A(1,2,3)              110.2822         estimate D2E/DX2                !
 ! A8    A(1,2,34)             123.3373         estimate D2E/DX2                !
 ! A9    A(3,2,34)             126.3765         estimate D2E/DX2                !
 ! A10   A(2,3,4)              109.8201         estimate D2E/DX2                !
 ! A11   A(2,3,35)             123.7027         estimate D2E/DX2                !
 ! A12   A(4,3,35)             126.4749         estimate D2E/DX2                !
 ! A13   A(3,4,5)              109.2536         estimate D2E/DX2                !
 ! A14   A(3,4,8)              137.4344         estimate D2E/DX2                !
 ! A15   A(5,4,8)              113.3107         estimate D2E/DX2                !
 ! A16   A(1,5,4)              108.8314         estimate D2E/DX2                !
 ! A17   A(1,5,6)              139.1735         estimate D2E/DX2                !
 ! A18   A(4,5,6)              111.989          estimate D2E/DX2                !
 ! A19   A(5,6,7)              111.1584         estimate D2E/DX2                !
 ! A20   A(5,6,14)             132.7934         estimate D2E/DX2                !
 ! A21   A(7,6,14)             116.008          estimate D2E/DX2                !
 ! A22   A(6,7,8)               93.0052         estimate D2E/DX2                !
 ! A23   A(4,8,7)              110.4919         estimate D2E/DX2                !
 ! A24   A(4,8,9)              131.8723         estimate D2E/DX2                !
 ! A25   A(7,8,9)              117.6356         estimate D2E/DX2                !
 ! A26   A(8,9,10)             127.672          estimate D2E/DX2                !
 ! A27   A(8,9,13)             121.9295         estimate D2E/DX2                !
 ! A28   A(10,9,13)            110.3982         estimate D2E/DX2                !
 ! A29   A(9,10,11)            114.962          estimate D2E/DX2                !
 ! A30   A(9,10,36)            125.7523         estimate D2E/DX2                !
 ! A31   A(11,10,36)           119.2854         estimate D2E/DX2                !
 ! A32   A(10,11,12)           108.27           estimate D2E/DX2                !
 ! A33   A(11,12,13)           117.7642         estimate D2E/DX2                !
 ! A34   A(11,12,37)           123.6184         estimate D2E/DX2                !
 ! A35   A(13,12,37)           118.6174         estimate D2E/DX2                !
 ! A36   A(9,13,12)             88.6031         estimate D2E/DX2                !
 ! A37   A(6,14,15)            125.8799         estimate D2E/DX2                !
 ! A38   A(6,14,31)            118.9541         estimate D2E/DX2                !
 ! A39   A(15,14,31)           114.9324         estimate D2E/DX2                !
 ! A40   A(14,15,16)           125.5294         estimate D2E/DX2                !
 ! A41   A(14,15,38)           122.371          estimate D2E/DX2                !
 ! A42   A(16,15,38)           112.0988         estimate D2E/DX2                !
 ! A43   A(15,16,17)           120.1924         estimate D2E/DX2                !
 ! A44   A(16,17,18)           116.8156         estimate D2E/DX2                !
 ! A45   A(16,17,27)           118.2986         estimate D2E/DX2                !
 ! A46   A(18,17,27)           124.8749         estimate D2E/DX2                !
 ! A47   A(17,18,19)           121.7147         estimate D2E/DX2                !
 ! A48   A(17,18,26)           125.8511         estimate D2E/DX2                !
 ! A49   A(19,18,26)           112.4288         estimate D2E/DX2                !
 ! A50   A(18,19,20)           123.7184         estimate D2E/DX2                !
 ! A51   A(18,19,39)           118.7267         estimate D2E/DX2                !
 ! A52   A(20,19,39)           117.5537         estimate D2E/DX2                !
 ! A53   A(19,20,21)           123.3309         estimate D2E/DX2                !
 ! A54   A(19,20,40)           117.4404         estimate D2E/DX2                !
 ! A55   A(21,20,40)           119.2263         estimate D2E/DX2                !
 ! A56   A(20,21,22)           112.9462         estimate D2E/DX2                !
 ! A57   A(20,21,41)           122.8142         estimate D2E/DX2                !
 ! A58   A(22,21,41)           124.2255         estimate D2E/DX2                !
 ! A59   A(21,22,23)           123.1235         estimate D2E/DX2                !
 ! A60   A(21,22,26)           124.3404         estimate D2E/DX2                !
 ! A61   A(23,22,26)           112.5259         estimate D2E/DX2                !
 ! A62   A(22,23,24)           111.3696         estimate D2E/DX2                !
 ! A63   A(22,23,42)           130.0124         estimate D2E/DX2                !
 ! A64   A(24,23,42)           118.5902         estimate D2E/DX2                !
 ! A65   A(23,24,25)            89.3881         estimate D2E/DX2                !
 ! A66   A(24,25,26)           111.6395         estimate D2E/DX2                !
 ! A67   A(24,25,43)           116.4234         estimate D2E/DX2                !
 ! A68   A(26,25,43)           131.5927         estimate D2E/DX2                !
 ! A69   A(18,26,22)           123.051          estimate D2E/DX2                !
 ! A70   A(18,26,25)           127.6996         estimate D2E/DX2                !
 ! A71   A(22,26,25)           108.622          estimate D2E/DX2                !
 ! A72   A(17,27,28)           130.3736         estimate D2E/DX2                !
 ! A73   A(17,27,31)           119.0423         estimate D2E/DX2                !
 ! A74   A(28,27,31)           110.5002         estimate D2E/DX2                !
 ! A75   A(27,28,29)           107.8599         estimate D2E/DX2                !
 ! A76   A(28,29,30)            97.0976         estimate D2E/DX2                !
 ! A77   A(29,30,31)           109.0044         estimate D2E/DX2                !
 ! A78   A(14,31,27)           120.0977         estimate D2E/DX2                !
 ! A79   A(14,31,30)           128.3867         estimate D2E/DX2                !
 ! A80   A(27,31,30)           111.4808         estimate D2E/DX2                !
 ! D1    D(5,1,2,3)             -0.2263         estimate D2E/DX2                !
 ! D2    D(5,1,2,34)           179.0852         estimate D2E/DX2                !
 ! D3    D(32,1,2,3)          -118.6405         estimate D2E/DX2                !
 ! D4    D(32,1,2,34)           60.671          estimate D2E/DX2                !
 ! D5    D(33,1,2,3)           118.6279         estimate D2E/DX2                !
 ! D6    D(33,1,2,34)          -62.0606         estimate D2E/DX2                !
 ! D7    D(2,1,5,4)              0.5575         estimate D2E/DX2                !
 ! D8    D(2,1,5,6)           -178.4184         estimate D2E/DX2                !
 ! D9    D(32,1,5,4)           116.337          estimate D2E/DX2                !
 ! D10   D(32,1,5,6)           -62.6388         estimate D2E/DX2                !
 ! D11   D(33,1,5,4)          -116.0586         estimate D2E/DX2                !
 ! D12   D(33,1,5,6)            64.9655         estimate D2E/DX2                !
 ! D13   D(1,2,3,4)             -0.1844         estimate D2E/DX2                !
 ! D14   D(1,2,3,35)           179.3            estimate D2E/DX2                !
 ! D15   D(34,2,3,4)          -179.47           estimate D2E/DX2                !
 ! D16   D(34,2,3,35)            0.0144         estimate D2E/DX2                !
 ! D17   D(2,3,4,5)              0.5598         estimate D2E/DX2                !
 ! D18   D(2,3,4,8)           -179.8937         estimate D2E/DX2                !
 ! D19   D(35,3,4,5)          -178.9067         estimate D2E/DX2                !
 ! D20   D(35,3,4,8)             0.6398         estimate D2E/DX2                !
 ! D21   D(3,4,5,1)             -0.7024         estimate D2E/DX2                !
 ! D22   D(3,4,5,6)            178.5755         estimate D2E/DX2                !
 ! D23   D(8,4,5,1)            179.6316         estimate D2E/DX2                !
 ! D24   D(8,4,5,6)             -1.0905         estimate D2E/DX2                !
 ! D25   D(3,4,8,7)           -179.9604         estimate D2E/DX2                !
 ! D26   D(3,4,8,9)             -0.1244         estimate D2E/DX2                !
 ! D27   D(5,4,8,7)             -0.4266         estimate D2E/DX2                !
 ! D28   D(5,4,8,9)            179.4095         estimate D2E/DX2                !
 ! D29   D(1,5,6,7)           -178.9415         estimate D2E/DX2                !
 ! D30   D(1,5,6,14)            -1.4011         estimate D2E/DX2                !
 ! D31   D(4,5,6,7)              2.1039         estimate D2E/DX2                !
 ! D32   D(4,5,6,14)           179.6443         estimate D2E/DX2                !
 ! D33   D(5,6,7,8)             -2.0193         estimate D2E/DX2                !
 ! D34   D(14,6,7,8)           179.9887         estimate D2E/DX2                !
 ! D35   D(5,6,14,15)         -177.5954         estimate D2E/DX2                !
 ! D36   D(5,6,14,31)           -3.4461         estimate D2E/DX2                !
 ! D37   D(7,6,14,15)           -0.1477         estimate D2E/DX2                !
 ! D38   D(7,6,14,31)          174.0017         estimate D2E/DX2                !
 ! D39   D(6,7,8,4)              1.3879         estimate D2E/DX2                !
 ! D40   D(6,7,8,9)           -178.4743         estimate D2E/DX2                !
 ! D41   D(4,8,9,10)          -178.8691         estimate D2E/DX2                !
 ! D42   D(4,8,9,13)             0.932          estimate D2E/DX2                !
 ! D43   D(7,8,9,10)             0.9575         estimate D2E/DX2                !
 ! D44   D(7,8,9,13)          -179.2413         estimate D2E/DX2                !
 ! D45   D(8,9,10,11)          179.389          estimate D2E/DX2                !
 ! D46   D(8,9,10,36)           -0.3881         estimate D2E/DX2                !
 ! D47   D(13,9,10,11)          -0.431          estimate D2E/DX2                !
 ! D48   D(13,9,10,36)         179.7919         estimate D2E/DX2                !
 ! D49   D(8,9,13,12)         -179.3851         estimate D2E/DX2                !
 ! D50   D(10,9,13,12)           0.447          estimate D2E/DX2                !
 ! D51   D(9,10,11,12)           0.1335         estimate D2E/DX2                !
 ! D52   D(36,10,11,12)        179.9261         estimate D2E/DX2                !
 ! D53   D(10,11,12,13)          0.2378         estimate D2E/DX2                !
 ! D54   D(10,11,12,37)       -179.7866         estimate D2E/DX2                !
 ! D55   D(11,12,13,9)          -0.4147         estimate D2E/DX2                !
 ! D56   D(37,12,13,9)         179.6084         estimate D2E/DX2                !
 ! D57   D(6,14,15,16)         178.9087         estimate D2E/DX2                !
 ! D58   D(6,14,15,38)          -1.4522         estimate D2E/DX2                !
 ! D59   D(31,14,15,16)          4.5535         estimate D2E/DX2                !
 ! D60   D(31,14,15,38)       -175.8074         estimate D2E/DX2                !
 ! D61   D(6,14,31,27)        -167.7436         estimate D2E/DX2                !
 ! D62   D(6,14,31,30)          14.5958         estimate D2E/DX2                !
 ! D63   D(15,14,31,27)          7.0305         estimate D2E/DX2                !
 ! D64   D(15,14,31,30)       -170.63           estimate D2E/DX2                !
 ! D65   D(14,15,16,17)         -7.3754         estimate D2E/DX2                !
 ! D66   D(38,15,16,17)        172.9536         estimate D2E/DX2                !
 ! D67   D(15,16,17,18)        176.9669         estimate D2E/DX2                !
 ! D68   D(15,16,17,27)         -1.8963         estimate D2E/DX2                !
 ! D69   D(16,17,18,19)         14.1468         estimate D2E/DX2                !
 ! D70   D(16,17,18,26)       -166.7667         estimate D2E/DX2                !
 ! D71   D(27,17,18,19)       -167.0732         estimate D2E/DX2                !
 ! D72   D(27,17,18,26)         12.0133         estimate D2E/DX2                !
 ! D73   D(16,17,27,28)       -163.3829         estimate D2E/DX2                !
 ! D74   D(16,17,27,31)         12.9392         estimate D2E/DX2                !
 ! D75   D(18,17,27,28)         17.8538         estimate D2E/DX2                !
 ! D76   D(18,17,27,31)       -165.8241         estimate D2E/DX2                !
 ! D77   D(17,18,19,20)        177.1672         estimate D2E/DX2                !
 ! D78   D(17,18,19,39)         -3.2377         estimate D2E/DX2                !
 ! D79   D(26,18,19,20)         -2.0318         estimate D2E/DX2                !
 ! D80   D(26,18,19,39)        177.5633         estimate D2E/DX2                !
 ! D81   D(17,18,26,22)       -174.3636         estimate D2E/DX2                !
 ! D82   D(17,18,26,25)         15.7761         estimate D2E/DX2                !
 ! D83   D(19,18,26,22)          4.7957         estimate D2E/DX2                !
 ! D84   D(19,18,26,25)       -165.0646         estimate D2E/DX2                !
 ! D85   D(18,19,20,21)         -1.091          estimate D2E/DX2                !
 ! D86   D(18,19,20,40)        179.4828         estimate D2E/DX2                !
 ! D87   D(39,19,20,21)        179.3095         estimate D2E/DX2                !
 ! D88   D(39,19,20,40)         -0.1167         estimate D2E/DX2                !
 ! D89   D(19,20,21,22)          1.446          estimate D2E/DX2                !
 ! D90   D(19,20,21,41)       -179.8689         estimate D2E/DX2                !
 ! D91   D(40,20,21,22)       -179.1376         estimate D2E/DX2                !
 ! D92   D(40,20,21,41)         -0.4525         estimate D2E/DX2                !
 ! D93   D(20,21,22,23)       -179.8701         estimate D2E/DX2                !
 ! D94   D(20,21,22,26)          1.3771         estimate D2E/DX2                !
 ! D95   D(41,21,22,23)          1.4664         estimate D2E/DX2                !
 ! D96   D(41,21,22,26)       -177.2864         estimate D2E/DX2                !
 ! D97   D(21,22,23,24)        175.4718         estimate D2E/DX2                !
 ! D98   D(21,22,23,42)         -2.5472         estimate D2E/DX2                !
 ! D99   D(26,22,23,24)         -5.6431         estimate D2E/DX2                !
 ! D100  D(26,22,23,42)        176.3379         estimate D2E/DX2                !
 ! D101  D(21,22,26,18)         -4.8562         estimate D2E/DX2                !
 ! D102  D(21,22,26,25)        166.6912         estimate D2E/DX2                !
 ! D103  D(23,22,26,18)        176.2746         estimate D2E/DX2                !
 ! D104  D(23,22,26,25)        -12.178          estimate D2E/DX2                !
 ! D105  D(22,23,24,25)         16.7047         estimate D2E/DX2                !
 ! D106  D(42,23,24,25)       -165.0232         estimate D2E/DX2                !
 ! D107  D(23,24,25,26)        -24.2899         estimate D2E/DX2                !
 ! D108  D(23,24,25,43)        161.6598         estimate D2E/DX2                !
 ! D109  D(24,25,26,18)       -164.0146         estimate D2E/DX2                !
 ! D110  D(24,25,26,22)         24.9436         estimate D2E/DX2                !
 ! D111  D(43,25,26,18)          8.8556         estimate D2E/DX2                !
 ! D112  D(43,25,26,22)       -162.1863         estimate D2E/DX2                !
 ! D113  D(17,27,28,29)       -163.0202         estimate D2E/DX2                !
 ! D114  D(31,27,28,29)         20.4124         estimate D2E/DX2                !
 ! D115  D(17,27,31,14)        -15.7713         estimate D2E/DX2                !
 ! D116  D(17,27,31,30)        162.2582         estimate D2E/DX2                !
 ! D117  D(28,27,31,14)        161.238          estimate D2E/DX2                !
 ! D118  D(28,27,31,30)        -20.7325         estimate D2E/DX2                !
 ! D119  D(27,28,29,30)        -12.9351         estimate D2E/DX2                !
 ! D120  D(28,29,30,31)          0.975          estimate D2E/DX2                !
 ! D121  D(29,30,31,14)       -171.4869         estimate D2E/DX2                !
 ! D122  D(29,30,31,27)         10.6882         estimate D2E/DX2                !
 --------------------------------------------------------------------------------
 Trust Radius=3.00D-01 FncErr=1.00D-07 GrdErr=1.00D-06
 Number of steps in this run=    258 maximum allowed number of steps=    258.
 GradGradGradGradGradGradGradGradGradGradGradGradGradGradGradGradGradGrad

                          Input orientation:                          
 ---------------------------------------------------------------------
 Center     Atomic      Atomic             Coordinates (Angstroms)
 Number     Number       Type             X           Y           Z
 ---------------------------------------------------------------------
      1          6           0       -1.394400    1.167930    0.005990
      2          6           0       -2.211100   -0.100520   -0.004570
      3          6           0       -1.395570   -1.185040   -0.006530
      4          6           0       -0.045190   -0.769050   -0.002290
      5          6           0        0.006910    0.630870    0.015480
      6          6           0        1.296330    1.096280    0.052010
      7         16           0        2.410420   -0.182350    0.005640
      8          6           0        1.194730   -1.358960   -0.003410
      9          6           0        1.591680   -2.705170   -0.007470
     10          6           0        2.884920   -3.208120    0.013400
     11          7           0        2.973710   -4.576840    0.016380
     12          6           0        1.756470   -5.068300   -0.005050
     13         16           0        0.463880   -3.973670   -0.035660
     14          6           0        1.852060    2.409360    0.074380
     15          6           0        3.214900    2.722860    0.064370
     16          7           0        3.732160    3.966970    0.064790
     17          6           0        2.912310    5.052940   -0.076200
     18          6           0        3.528760    6.341100    0.001250
     19          6           0        4.939070    6.501100   -0.082870
     20          6           0        5.590700    7.760700   -0.069270
     21          6           0        4.901940    8.988370    0.007100
     22          6           0        3.521380    8.831490    0.099770
     23          6           0        2.649810    9.889440    0.182360
     24         16           0        1.020690    9.359540    0.158240
     25          6           0        1.549470    7.775840    0.534260
     26          6           0        2.856020    7.570390    0.145460
     27          6           0        1.530690    4.828990   -0.260970
     28          7           0        0.565630    5.653710   -0.711620
     29         16           0       -0.884410    5.012690   -0.284690
     30          7           0       -0.335880    3.540330    0.141230
     31          6           0        0.994330    3.508330   -0.015030
     32          1           0       -1.629070    1.724490    0.919100
     33          1           0       -1.612430    1.743700   -0.900600
     34          1           0       -3.284890   -0.111120    0.001140
     35          1           0       -1.751030   -2.196990   -0.002670
     36          1           0        3.796730   -2.615910    0.030450
     37          1           0        1.540270   -6.118040   -0.004560
     38          1           0        3.990870    1.955650    0.060930
     39          1           0        5.567220    5.606180   -0.156280
     40          1           0        6.677670    7.763930   -0.130670
     41          1           0        5.405130    9.940210    0.014790
     42          1           0        2.846530   10.944250    0.227300
     43          1           0        0.806140    7.102870    0.924490
 ---------------------------------------------------------------------
                    Distance matrix (angstroms):
                    1          2          3          4          5
     1  C    0.000000
     2  C    1.508667   0.000000
     3  C    2.353004   1.356936   0.000000
     4  C    2.360578   2.266739   1.413008   0.000000
     5  C    1.500731   2.335573   2.294551   1.401002   0.000000
     6  C    2.692077   3.706426   3.529047   2.298278   1.371330
     7  S    4.037315   4.622256   3.935873   2.524738   2.537377
     8  C    3.617852   3.630888   2.596134   1.373097   2.317476
     9  C    4.890579   4.609267   3.351784   2.535336   3.693398
    10  C    6.120657   5.968829   4.734537   3.812460   4.797999
    11  N    7.216847   6.849827   5.531314   4.859359   5.993509
    12  C    6.987036   6.357708   5.001506   4.661495   5.961704
    13  S    5.467265   4.707205   3.351844   3.244974   4.627443
    14  C    3.476396   4.776505   4.844931   3.702395   2.563411
    15  C    4.864860   6.117001   6.044265   4.777663   3.830145
    16  N    5.841207   7.202196   7.269244   6.058280   5.000948
    17  C    5.800673   7.267229   7.581232   6.530531   5.291924
    18  C    7.141373   8.627891   8.993991   7.957849   6.708976
    19  C    8.280304   9.732032   9.960434   8.815011   7.667821
    20  C    9.605306  11.075696  11.350690  10.223716   9.056510
    21  C   10.040079  11.541378  11.964827  10.939901   9.685515
    22  C    9.105155  10.613813  11.158789  10.242129   8.922375
    23  C    9.615169  11.111377  11.791730  10.995478   9.629844
    24  S    8.541564   9.998185  10.819133  10.185784   8.788504
    25  C    7.253269   8.744671   9.447914   8.708959   7.327975
    26  C    7.686157   9.194622   9.734304   8.830918   7.502750
    27  C    4.693696   6.194094   6.693003   5.821371   4.474655
    28  N    4.947616   6.428166   7.149263   6.490616   5.105856
    29  S    3.889314   5.289942   6.224991   5.849150   4.481618
    30  N    2.601353   4.097987   4.844987   4.321557   2.932282
    31  C    3.344241   4.826872   5.266822   4.401902   3.042319
    32  H    1.094805   2.126637   3.062136   3.094411   2.165402
    33  H    1.095880   2.135983   3.069838   3.094691   2.167915
    34  H    2.282530   1.073857   2.173222   3.305834   3.374419
    35  H    3.383777   2.146358   1.072571   2.224613   3.329786
    36  H    6.423852   6.513251   5.385976   4.262900   4.990445
    37  H    7.854792   7.091074   5.740527   5.579013   6.920938
    38  H    5.442853   6.534260   6.235561   4.870089   4.198696
    39  H    8.257636   9.648404   9.727463   8.495082   7.463261
    40  H   10.425172  11.869107  12.053078  10.863935   9.767341
    41  H   11.098945  12.602523  13.039216  12.016427  10.761254
    42  H   10.658841  12.149911  12.851839  12.067152  10.699258
    43  H    6.396056   7.864841   8.625762   7.971876   6.584212
                    6          7          8          9         10
     6  C    0.000000
     7  S    1.696538   0.000000
     8  C    2.457966   1.691861   0.000000
     9  C    3.813370   2.652382   1.403520   0.000000
    10  C    4.588351   3.062759   2.505278   1.387755   0.000000
    11  N    5.916009   4.430457   3.676943   2.326741   1.371600
    12  C    6.181992   4.929531   3.751634   2.368870   2.175778
    13  S    5.138585   4.262022   2.715122   1.697592   2.539667
    14  C    1.426014   2.652066   3.826012   5.121808   5.711970
    15  C    2.515318   3.015109   4.554880   5.665996   5.940371
    16  N    3.764876   4.355152   5.899893   7.007448   7.225121
    17  C    4.275861   5.259929   6.638361   7.870010   8.261591
    18  C    5.700391   6.618618   8.046033   9.251343   9.570908
    19  C    6.519189   7.146356   8.706718   9.796229   9.924603
    20  C    7.929112   8.556392  10.124085  11.204036  11.297924
    21  C    8.676838   9.503146  10.991395  12.153062  12.362151
    22  C    8.049013   9.082533  10.453192  11.697426  12.056730
    23  C    8.897672  10.076184  11.343645  12.640406  13.100760
    24  S    8.268538   9.643770  10.721132  12.079351  12.705999
    25  C    6.701729   8.022061   9.157483  10.495086  11.077098
    26  C    6.659990   7.766794   9.083795  10.354182  10.779358
    27  C    3.753133   5.094952   6.202413   7.538670   8.155020
    28  N    4.678378   6.162573   7.076360   8.451005   9.188949
    29  S    4.495249   6.158623   6.708194   8.110070   9.048670
    30  N    2.940315   4.628055   5.134854   6.537880   7.478735
    31  C    2.431807   3.953082   4.871428   6.242152   6.977524
    32  H    3.115198   4.559378   4.281651   5.554606   6.747373
    33  H    3.128499   4.551292   4.279205   5.554858   6.751450
    34  H    4.737930   5.695757   4.650174   5.523595   6.903486
    35  H    4.487206   4.623474   3.062645   3.381121   4.744963
    36  H    4.475804   2.800837   2.889892   2.207182   1.087383
    37  H    7.218665   5.999140   4.771608   3.413258   3.205626
    38  H    2.828275   2.659309   4.336955   5.242522   5.281089
    39  H    6.214747   6.595353   8.225279   9.214424   9.214956
    40  H    8.570283   9.020608  10.644527  11.639782  11.609978
    41  H    9.751857  10.556258  12.058153  13.207897  13.387682
    42  H    9.970775  11.137349  12.415742  13.708991  14.154038
    43  H    6.089387   7.516145   8.521418   9.883485  10.557837
                   11         12         13         14         15
    11  N    0.000000
    12  C    1.312884   0.000000
    13  S    2.581815   1.694090   0.000000
    14  C    7.075907   7.478693   6.533163   0.000000
    15  C    7.303841   7.926791   7.240278   1.398469   0.000000
    16  N    8.577545   9.249018   8.587520   2.441519   1.347356
    17  C    9.630421  10.187273   9.352868   2.852248   2.353847
    18  C   10.932050  11.546231  10.760545   4.274956   3.632376
    19  C   11.251366  11.999417  11.390802   5.128030   4.155664
    20  C   12.612330  13.389872  12.805501   6.529541   5.571545
    21  C   13.701572  14.404308  13.700828   7.251873   6.488914
    22  C   13.419769  14.011783  13.165818   6.635588   6.116416
    23  C   14.470858  14.985565  14.036084   7.523275   7.189793
    24  S   14.073276  14.447512  13.346240   7.000229   6.990629
    25  C   12.445295  12.857124  11.813310   5.394642   5.341073
    26  C   12.148486  12.687322  11.790694   5.258252   4.861473
    27  C    9.519920   9.903172   8.869931   2.463808   2.716283
    28  N   10.535321  10.811052   9.651618   3.577500   4.026248
    29  S   10.340929  10.424913   9.090356   3.794012   4.708451
    30  N    8.766837   8.860465   7.558512   2.463868   3.644476
    31  C    8.323996   8.610432   7.500808   1.396936   2.356735
    32  H    7.855396   7.645779   6.145001   3.647035   5.019099
    33  H    7.862745   7.652113   6.143900   3.660107   5.019267
    34  H    7.688495   7.070289   5.382743   5.722450   7.091030
    35  H    5.290295   4.532878   2.839631   5.848646   6.990699
    36  H    2.126689   3.190319   3.599413   5.388600   5.370488
    37  H    2.104872   1.071773   2.399564   8.533463   8.998369
    38  H    6.611356   7.371077   6.899697   2.186445   1.091216
    39  H   10.509520  11.335308  10.855052   4.906656   3.727684
    40  H   12.885478  13.744094  13.281245   7.211101   6.118922
    41  H   14.719258  15.445662  14.765316   8.327158   7.542527
    42  H   15.523044  16.051292  15.109285   8.593992   8.231251
    43  H   11.913801  12.243551  11.123343   4.883203   5.072122
                   16         17         18         19         20
    16  N    0.000000
    17  C    1.367978   0.000000
    18  C    2.383674   1.430163   0.000000
    19  C    2.810738   2.490977   1.421848   0.000000
    20  C    4.226645   3.808646   2.504363   1.418238   0.000000
    21  C    5.156178   4.410575   2.982230   2.489174   1.409750
    22  C    4.869210   3.831367   2.492349   2.733847   2.336076
    23  C    6.021707   4.850515   3.660064   4.097793   3.639187
    24  S    6.036606   4.709564   3.927600   4.856183   4.846962
    25  C    4.414978   3.105508   2.502033   3.673581   4.086076
    26  C    3.709281   2.527816   1.408733   2.352576   2.749691
    27  C    2.386560   1.411796   2.519428   3.800622   5.011522
    28  N    3.670806   2.504314   3.124232   4.498930   5.486652
    29  S    4.746408   3.802653   4.617630   6.014068   7.037401
    30  N    4.091065   3.589708   4.774866   6.053220   7.278749
    31  C    2.777127   2.463374   3.801077   4.951994   6.261965
    32  H    5.873785   5.717808   6.982746   8.182934   9.462441
    33  H    5.868522   5.666037   6.955664   8.137794   9.422339
    34  H    8.116271   8.067142   9.383868  10.552821  11.863667
    35  H    8.250111   8.620535  10.038684  10.973634  12.371783
    36  H    6.583286   7.720417   8.961065   9.188996  10.531016
    37  H   10.320689  11.255151  12.616826  13.069073  14.457856
    38  H    2.027894   3.282575   4.410134   4.645522   6.022874
    39  H    2.470491   2.713123   2.172612   1.095830   2.156404
    40  H    4.809484   4.640083   3.457959   2.149361   1.088708
    41  H    6.203300   5.487061   4.058884   3.471920   2.189010
    42  H    7.035139   5.899489   4.658919   4.921027   4.213480
    43  H    4.374305   3.104762   2.974109   4.296279   4.930752
                   21         22         23         24         25
    21  C    0.000000
    22  C    1.392532   0.000000
    23  C    2.432022   1.373213   0.000000
    24  S    3.901886   2.556503   1.713303   0.000000
    25  C    3.603773   2.278510   2.408711   1.711463   0.000000
    26  C    2.493110   1.426592   2.328492   2.563134   1.378567
    27  C    5.360749   4.484750   5.201646   4.578397   3.052322
    28  N    5.517255   4.415099   4.804624   3.833655   2.650206
    29  S    7.026594   5.843118   6.040823   4.766623   3.772194
    30  N    7.558696   6.548019   7.016212   5.975264   4.652802
    31  C    6.730583   5.893657   6.595312   5.853834   4.338380
    32  H    9.810698   8.815208   9.247595   8.117520   6.846171
    33  H    9.784998   8.808718   9.257028   8.127452   6.960111
    34  H   12.240300  11.238564  11.630336  10.404619   9.266034
    35  H   13.014391  12.224409  12.864036  11.885357  10.518504
    36  H   11.656816  11.450921  12.558753  12.293662  10.643894
    37  H   15.475936  15.080588  16.046976  15.487154  13.904327
    38  H    7.091692   6.891959   8.047249   7.978034   6.329225
    39  H    3.450869   3.828008   5.193484   5.904030   4.618072
    40  H    2.161354   3.339903   4.565023   5.884799   5.171142
    41  H    1.076689   2.187463   2.760878   4.425050   4.452018
    42  H    2.845815   2.221585   1.073938   2.418629   3.437355
    43  H    4.601336   3.322773   3.422696   2.392850   1.075968
                   26         27         28         29         30
    26  C    0.000000
    27  C    3.071963   0.000000
    28  N    3.107110   1.347067   0.000000
    29  S    4.551667   2.422192   1.641887   0.000000
    30  N    5.140975   2.303583   2.450806   1.627924   0.000000
    31  C    4.471239   1.446482   2.296013   2.421875   1.339739
    32  H    7.408718   4.584165   4.786933   3.579929   2.361080
    33  H    7.416981   4.450544   4.479714   3.405239   2.437800
    34  H    9.835507   6.903854   6.969060   5.665460   4.695676
    35  H   10.800396   7.758917   8.216022   7.267052   5.911023
    36  H   10.230292   7.787580   8.909393   8.955888   7.415526
    37  H   13.752339  10.950037  11.833172  11.395205   9.839985
    38  H    5.728903   3.796339   5.099485   5.764833   4.608517
    39  H    3.361514   4.112002   5.032550   6.480143   6.261217
    40  H    3.836498   5.926403   6.492116   8.048484   8.191618
    41  H    3.482970   6.419649   6.505576   7.995527   8.598468
    42  H    3.374866   6.274253   5.837284   7.026055   8.059353
    43  H    2.242202   2.664736   2.198810   2.947699   3.822224
                   31         32         33         34         35
    31  C    0.000000
    32  H    3.307100   0.000000
    33  H    3.270069   1.819877   0.000000
    34  H    5.604677   2.637016   2.655299   0.000000
    35  H    6.331495   4.030203   4.044073   2.589130   0.000000
    36  H    6.735119   7.004861   7.009427   7.511603   5.563653
    37  H    9.641844   8.509004   8.517591   7.704887   5.119306
    38  H    3.375772   5.689782   5.689151   7.563848   7.086457
    39  H    5.033115   8.246851   8.186583  10.539077  10.699058
    40  H    7.100976  10.323700  10.274323  12.699858  13.049111
    41  H    7.799046  10.853377  10.828983  13.287056  14.089803
    42  H    7.666960  10.271979  10.286136  12.643839  13.924174
    43  H    3.720058   5.904003   6.156390   8.344504   9.689486
                   36         37         38         39         40
    36  H    0.000000
    37  H    4.166264   0.000000
    38  H    4.575782   8.437666   0.000000
    39  H    8.412625  12.397447   3.982264   0.000000
    40  H   10.773433  14.802631   6.402478   2.426858   0.000000
    41  H   12.658726  16.516807   8.108974   4.340432   2.525215
    42  H   13.594836  17.113790   9.062677   6.003689   4.992015
    43  H   10.207724  13.273829   6.114091   5.106469   6.002102
                   41         42         43
    41  H    0.000000
    42  H    2.756754   0.000000
    43  H    5.479850   4.405164   0.000000
 Stoichiometry    C23H12N4S4
 Framework group  C1[X(C23H12N4S4)]
 Deg. of freedom   123
 Full point group                 C1      NOp   1
 Largest Abelian subgroup         C1      NOp   1
 Largest concise Abelian subgroup C1      NOp   1
                         Standard orientation:                         
 ---------------------------------------------------------------------
 Center     Atomic      Atomic             Coordinates (Angstroms)
 Number     Number       Type             X           Y           Z
 ---------------------------------------------------------------------
      1          6           0        2.091891    2.680929   -0.054627
      2          6           0        3.470636    3.293398   -0.058857
      3          6           0        4.417230    2.321211   -0.049418
      4          6           0        3.799020    1.050706   -0.034417
      5          6           0        2.407602    1.213802   -0.047153
      6          6           0        1.749743    0.010704   -0.065095
      7         16           0        2.842579   -1.285706   -0.007883
      8          6           0        4.191764   -0.264931   -0.018642
      9          6           0        5.461161   -0.863656   -0.013479
     10          6           0        5.759685   -2.218912   -0.018715
     11          7           0        7.098556   -2.516694   -0.024757
     12          6           0        7.771008   -1.389103   -0.021034
     13         16           0        6.887764    0.056420   -0.004217
     14          6           0        0.366864   -0.337209   -0.076005
     15          6           0       -0.151908   -1.635571   -0.046907
     16          7           0       -1.460621   -1.955776   -0.036594
     17          6           0       -2.407255   -0.977288    0.096851
     18          6           0       -3.775103   -1.389717    0.031596
     19          6           0       -4.149097   -2.757597    0.134953
     20          6           0       -5.493794   -3.208361    0.133921
     21          6           0       -6.601666   -2.340410    0.052208
     22          6           0       -6.235362   -1.001554   -0.059292
     23          6           0       -7.147516    0.020908   -0.150181
     24         16           0       -6.373890    1.549603   -0.149363
     25          6           0       -4.891976    0.779369   -0.523228
     26          6           0       -4.887379   -0.538205   -0.117732
     27          6           0       -1.973097    0.355837    0.262543
     28          7           0       -2.637723    1.441639    0.702878
     29         16           0       -1.784063    2.770629    0.254725
     30          7           0       -0.415455    1.997332   -0.168428
     31          6           0       -0.587069    0.680050    0.005401
     32          1           0        1.573259    2.986638   -0.969046
     33          1           0        1.561010    2.996182    0.850765
     34          1           0        3.645783    4.352687   -0.078874
     35          1           0        5.471694    2.517113   -0.061140
     36          1           0        5.034547   -3.029200   -0.021806
     37          1           0        8.841471   -1.336556   -0.027652
     38          1           0        0.487210   -2.519964   -0.035530
     39          1           0       -3.360752   -3.514643    0.213932
     40          1           0       -5.663396   -4.281098    0.209776
     41          1           0       -7.619450   -2.691650    0.054159
     42          1           0       -8.220233   -0.012189   -0.189232
     43          1           0       -4.114955    1.405637   -0.925390
 ---------------------------------------------------------------------
 Rotational constants (GHZ):      0.3360447      0.0515116      0.0448099
 Standard basis: 6-31++G(d,p) (6D, 7F)
 There are   677 symmetry adapted basis functions of A   symmetry.
 Integral buffers will be    131072 words long.
 Raffenetti 2 integral format.
 Two-electron integral symmetry is turned on.
   677 basis functions,  1184 primitive gaussians,   677 cartesian basis functions
   121 alpha electrons      121 beta electrons
       nuclear repulsion energy      3404.3168361491 Hartrees.
 NAtoms=   43 NActive=   43 NUniq=   43 SFac= 1.00D+00 NAtFMM=   60 NAOKFM=F Big=F
 One-electron integrals computed using PRISM.
 NBasis=   677 RedAO= T  NBF=   677
 NBsUse=   666 1.00D-06 NBFU=   666
 Harris functional with IExCor=  402 diagonalized for initial guess.
 ExpMin= 3.60D-02 ExpMax= 2.19D+04 ExpMxC= 3.30D+03 IAcc=3 IRadAn=         5 AccDes= 0.00D+00
 HarFok:  IExCor=  402 AccDes= 0.00D+00 IRadAn=         5 IDoV= 1
 ScaDFX=  1.000000  1.000000  1.000000  1.000000
 FoFCou: FMM=F IPFlag=           0 FMFlag=      100000 FMFlg1=           0
         NFxFlg=           0 DoJE=T BraDBF=F KetDBF=T FulRan=T
         Omega=  0.000000  0.000000  1.000000  0.000000  0.000000 ICntrl=     500 IOpCl=  0
         NMat0=    1 NMatS0=    1 NMatT0=    0 NMatD0=    1 NMtDS0=    0 NMtDT0=    0
         I1Cent=           4 NGrid=           0.
 Petite list used in FoFCou.
 Initial guess orbital symmetries:
       Occupied  (A) (A) (A) (A) (A) (A) (A) (A) (A) (A) (A) (A)
                 (A) (A) (A) (A) (A) (A) (A) (A) (A) (A) (A) (A)
                 (A) (A) (A) (A) (A) (A) (A) (A) (A) (A) (A) (A)
                 (A) (A) (A) (A) (A) (A) (A) (A) (A) (A) (A) (A)
                 (A) (A) (A) (A) (A) (A) (A) (A) (A) (A) (A) (A)
                 (A) (A) (A) (A) (A) (A) (A) (A) (A) (A) (A) (A)
                 (A) (A) (A) (A) (A) (A) (A) (A) (A) (A) (A) (A)
                 (A) (A) (A) (A) (A) (A) (A) (A) (A) (A) (A) (A)
                 (A) (A) (A) (A) (A) (A) (A) (A) (A) (A) (A) (A)
                 (A) (A) (A) (A) (A) (A) (A) (A) (A) (A) (A) (A)
                 (A)
       Virtual   (A) (A) (A) (A) (A) (A) (A) (A) (A) (A) (A) (A)
                 (A) (A) (A) (A) (A) (A) (A) (A) (A) (A) (A) (A)
                 (A) (A) (A) (A) (A) (A) (A) (A) (A) (A) (A) (A)
                 (A) (A) (A) (A) (A) (A) (A) (A) (A) (A) (A) (A)
                 (A) (A) (A) (A) (A) (A) (A) (A) (A) (A) (A) (A)
                 (A) (A) (A) (A) (A) (A) (A) (A) (A) (A) (A) (A)
                 (A) (A) (A) (A) (A) (A) (A) (A) (A) (A) (A) (A)
                 (A) (A) (A) (A) (A) (A) (A) (A) (A) (A) (A) (A)
                 (A) (A) (A) (A) (A) (A) (A) (A) (A) (A) (A) (A)
                 (A) (A) (A) (A) (A) (A) (A) (A) (A) (A) (A) (A)
                 (A) (A) (A) (A) (A) (A) (A) (A) (A) (A) (A) (A)
                 (A) (A) (A) (A) (A) (A) (A) (A) (A) (A) (A) (A)
                 (A) (A) (A) (A) (A) (A) (A) (A) (A) (A) (A) (A)
                 (A) (A) (A) (A) (A) (A) (A) (A) (A) (A) (A) (A)
                 (A) (A) (A) (A) (A) (A) (A) (A) (A) (A) (A) (A)
                 (A) (A) (A) (A) (A) (A) (A) (A) (A) (A) (A) (A)
                 (A) (A) (A) (A) (A) (A) (A) (A) (A) (A) (A) (A)
                 (A) (A) (A) (A) (A) (A) (A) (A) (A) (A) (A) (A)
                 (A) (A) (A) (A) (A) (A) (A) (A) (A) (A) (A) (A)
                 (A) (A) (A) (A) (A) (A) (A) (A) (A) (A) (A) (A)
                 (A) (A) (A) (A) (A) (A) (A) (A) (A) (A) (A) (A)
                 (A) (A) (A) (A) (A) (A) (A) (A) (A) (A) (A) (A)
                 (A) (A) (A) (A) (A) (A) (A) (A) (A) (A) (A) (A)
                 (A) (A) (A) (A) (A) (A) (A) (A) (A) (A) (A) (A)
                 (A) (A) (A) (A) (A) (A) (A) (A) (A) (A) (A) (A)
                 (A) (A) (A) (A) (A) (A) (A) (A) (A) (A) (A) (A)
                 (A) (A) (A) (A) (A) (A) (A) (A) (A) (A) (A) (A)
                 (A) (A) (A) (A) (A) (A) (A) (A) (A) (A) (A) (A)
                 (A) (A) (A) (A) (A) (A) (A) (A) (A) (A) (A) (A)
                 (A) (A) (A) (A) (A) (A) (A) (A) (A) (A) (A) (A)
                 (A) (A) (A) (A) (A) (A) (A) (A) (A) (A) (A) (A)
                 (A) (A) (A) (A) (A) (A) (A) (A) (A) (A) (A) (A)
                 (A) (A) (A) (A) (A) (A) (A) (A) (A) (A) (A) (A)
                 (A) (A) (A) (A) (A) (A) (A) (A) (A) (A) (A) (A)
                 (A) (A) (A) (A) (A) (A) (A) (A) (A) (A) (A) (A)
                 (A) (A) (A) (A) (A) (A) (A) (A) (A) (A) (A) (A)
                 (A) (A) (A) (A) (A) (A) (A) (A) (A) (A) (A) (A)
                 (A) (A) (A) (A) (A) (A) (A) (A) (A) (A) (A) (A)
                 (A) (A) (A) (A) (A) (A) (A) (A) (A) (A) (A) (A)
                 (A) (A) (A) (A) (A) (A) (A) (A) (A) (A) (A) (A)
                 (A) (A) (A) (A) (A) (A) (A) (A) (A) (A) (A) (A)
                 (A) (A) (A) (A) (A) (A) (A) (A) (A) (A) (A) (A)
                 (A) (A) (A) (A) (A) (A) (A) (A) (A) (A) (A) (A)
                 (A) (A) (A) (A) (A) (A) (A) (A) (A) (A) (A) (A)
                 (A) (A) (A) (A) (A) (A) (A) (A) (A) (A) (A) (A)
                 (A) (A) (A) (A) (A)
 The electronic state of the initial guess is 1-A.
 Requested convergence on RMS density matrix=1.00D-08 within 128 cycles.
 Requested convergence on MAX density matrix=1.00D-06.
 Requested convergence on             energy=1.00D-06.
 No special actions if energy rises.
 EnCoef did     2 forward-backward iterations
 Restarting incremental Fock formation.
 SCF Done:  E(RB3LYP) =  -2695.33947795     A.U. after   25 cycles
             Convg  =    0.5471D-08             -V/T =  2.0053

 **********************************************************************

            Population analysis using the SCF density.

 **********************************************************************

 Orbital symmetries:
       Occupied  (A) (A) (A) (A) (A) (A) (A) (A) (A) (A) (A) (A)
                 (A) (A) (A) (A) (A) (A) (A) (A) (A) (A) (A) (A)
                 (A) (A) (A) (A) (A) (A) (A) (A) (A) (A) (A) (A)
                 (A) (A) (A) (A) (A) (A) (A) (A) (A) (A) (A) (A)
                 (A) (A) (A) (A) (A) (A) (A) (A) (A) (A) (A) (A)
                 (A) (A) (A) (A) (A) (A) (A) (A) (A) (A) (A) (A)
                 (A) (A) (A) (A) (A) (A) (A) (A) (A) (A) (A) (A)
                 (A) (A) (A) (A) (A) (A) (A) (A) (A) (A) (A) (A)
                 (A) (A) (A) (A) (A) (A) (A) (A) (A) (A) (A) (A)
                 (A) (A) (A) (A) (A) (A) (A) (A) (A) (A) (A) (A)
                 (A)
       Virtual   (A) (A) (A) (A) (A) (A) (A) (A) (A) (A) (A) (A)
                 (A) (A) (A) (A) (A) (A) (A) (A) (A) (A) (A) (A)
                 (A) (A) (A) (A) (A) (A) (A) (A) (A) (A) (A) (A)
                 (A) (A) (A) (A) (A) (A) (A) (A) (A) (A) (A) (A)
                 (A) (A) (A) (A) (A) (A) (A) (A) (A) (A) (A) (A)
                 (A) (A) (A) (A) (A) (A) (A) (A) (A) (A) (A) (A)
                 (A) (A) (A) (A) (A) (A) (A) (A) (A) (A) (A) (A)
                 (A) (A) (A) (A) (A) (A) (A) (A) (A) (A) (A) (A)
                 (A) (A) (A) (A) (A) (A) (A) (A) (A) (A) (A) (A)
                 (A) (A) (A) (A) (A) (A) (A) (A) (A) (A) (A) (A)
                 (A) (A) (A) (A) (A) (A) (A) (A) (A) (A) (A) (A)
                 (A) (A) (A) (A) (A) (A) (A) (A) (A) (A) (A) (A)
                 (A) (A) (A) (A) (A) (A) (A) (A) (A) (A) (A) (A)
                 (A) (A) (A) (A) (A) (A) (A) (A) (A) (A) (A) (A)
                 (A) (A) (A) (A) (A) (A) (A) (A) (A) (A) (A) (A)
                 (A) (A) (A) (A) (A) (A) (A) (A) (A) (A) (A) (A)
                 (A) (A) (A) (A) (A) (A) (A) (A) (A) (A) (A) (A)
                 (A) (A) (A) (A) (A) (A) (A) (A) (A) (A) (A) (A)
                 (A) (A) (A) (A) (A) (A) (A) (A) (A) (A) (A) (A)
                 (A) (A) (A) (A) (A) (A) (A) (A) (A) (A) (A) (A)
                 (A) (A) (A) (A) (A) (A) (A) (A) (A) (A) (A) (A)
                 (A) (A) (A) (A) (A) (A) (A) (A) (A) (A) (A) (A)
                 (A) (A) (A) (A) (A) (A) (A) (A) (A) (A) (A) (A)
                 (A) (A) (A) (A) (A) (A) (A) (A) (A) (A) (A) (A)
                 (A) (A) (A) (A) (A) (A) (A) (A) (A) (A) (A) (A)
                 (A) (A) (A) (A) (A) (A) (A) (A) (A) (A) (A) (A)
                 (A) (A) (A) (A) (A) (A) (A) (A) (A) (A) (A) (A)
                 (A) (A) (A) (A) (A) (A) (A) (A) (A) (A) (A) (A)
                 (A) (A) (A) (A) (A) (A) (A) (A) (A) (A) (A) (A)
                 (A) (A) (A) (A) (A) (A) (A) (A) (A) (A) (A) (A)
                 (A) (A) (A) (A) (A) (A) (A) (A) (A) (A) (A) (A)
                 (A) (A) (A) (A) (A) (A) (A) (A) (A) (A) (A) (A)
                 (A) (A) (A) (A) (A) (A) (A) (A) (A) (A) (A) (A)
                 (A) (A) (A) (A) (A) (A) (A) (A) (A) (A) (A) (A)
                 (A) (A) (A) (A) (A) (A) (A) (A) (A) (A) (A) (A)
                 (A) (A) (A) (A) (A) (A) (A) (A) (A) (A) (A) (A)
                 (A) (A) (A) (A) (A) (A) (A) (A) (A) (A) (A) (A)
                 (A) (A) (A) (A) (A) (A) (A) (A) (A) (A) (A) (A)
                 (A) (A) (A) (A) (A) (A) (A) (A) (A) (A) (A) (A)
                 (A) (A) (A) (A) (A) (A) (A) (A) (A) (A) (A) (A)
                 (A) (A) (A) (A) (A) (A) (A) (A) (A) (A) (A) (A)
                 (A) (A) (A) (A) (A) (A) (A) (A) (A) (A) (A) (A)
                 (A) (A) (A) (A) (A) (A) (A) (A) (A) (A) (A) (A)
                 (A) (A) (A) (A) (A) (A) (A) (A) (A) (A) (A) (A)
                 (A) (A) (A) (A) (A) (A) (A) (A) (A) (A) (A) (A)
                 (A) (A) (A) (A) (A)
 The electronic state is 1-A.
 Alpha  occ. eigenvalues --  -88.99938 -88.93427 -88.92335 -88.92048 -14.38594
 Alpha  occ. eigenvalues --  -14.38233 -14.35641 -14.35435 -10.26152 -10.25945
 Alpha  occ. eigenvalues --  -10.25732 -10.25576 -10.24366 -10.24238 -10.23724
 Alpha  occ. eigenvalues --  -10.23713 -10.23203 -10.23163 -10.21362 -10.21305
 Alpha  occ. eigenvalues --  -10.21298 -10.21060 -10.21011 -10.20677 -10.20571
 Alpha  occ. eigenvalues --  -10.20559 -10.20527 -10.20507 -10.20484 -10.20349
 Alpha  occ. eigenvalues --  -10.20319  -8.05190  -7.99624  -7.98304  -7.98257
 Alpha  occ. eigenvalues --   -6.01757  -6.01175  -6.00953  -5.95997  -5.95646
 Alpha  occ. eigenvalues --   -5.95356  -5.94692  -5.94666  -5.94341  -5.94280
 Alpha  occ. eigenvalues --   -5.94091  -5.93926  -1.04191  -0.98198  -0.95921
 Alpha  occ. eigenvalues --   -0.93475  -0.91267  -0.90460  -0.86238  -0.84852
 Alpha  occ. eigenvalues --   -0.84070  -0.82374  -0.80899  -0.78734  -0.76659
 Alpha  occ. eigenvalues --   -0.74501  -0.74313  -0.72959  -0.71687  -0.69511
 Alpha  occ. eigenvalues --   -0.68404  -0.65438  -0.64737  -0.62482  -0.60697
 Alpha  occ. eigenvalues --   -0.60239  -0.58826  -0.58412  -0.57660  -0.56037
 Alpha  occ. eigenvalues --   -0.54664  -0.53785  -0.53187  -0.52571  -0.51131
 Alpha  occ. eigenvalues --   -0.48849  -0.48195  -0.47939  -0.46650  -0.46279
 Alpha  occ. eigenvalues --   -0.46036  -0.44744  -0.43939  -0.43637  -0.43198
 Alpha  occ. eigenvalues --   -0.42738  -0.42068  -0.41825  -0.41310  -0.41095
 Alpha  occ. eigenvalues --   -0.41052  -0.40424  -0.39624  -0.39281  -0.38320
 Alpha  occ. eigenvalues --   -0.37708  -0.37421  -0.36700  -0.35978  -0.35399
 Alpha  occ. eigenvalues --   -0.35007  -0.33922  -0.32785  -0.31408  -0.31197
 Alpha  occ. eigenvalues --   -0.30794  -0.30131  -0.29354  -0.29184  -0.28783
 Alpha  occ. eigenvalues --   -0.28116  -0.25186  -0.25098  -0.24286  -0.20714
 Alpha  occ. eigenvalues --   -0.18908
 Alpha virt. eigenvalues --   -0.12521  -0.08011  -0.07266  -0.03559  -0.03369
 Alpha virt. eigenvalues --   -0.02447  -0.01258  -0.01139  -0.00814  -0.00736
 Alpha virt. eigenvalues --   -0.00065   0.00129   0.00334   0.00433   0.01097
 Alpha virt. eigenvalues --    0.01225   0.01504   0.01817   0.01958   0.02286
 Alpha virt. eigenvalues --    0.02522   0.02732   0.03087   0.03841   0.03965
 Alpha virt. eigenvalues --    0.04175   0.04470   0.04561   0.04862   0.05168
 Alpha virt. eigenvalues --    0.05313   0.05674   0.06097   0.06520   0.06718
 Alpha virt. eigenvalues --    0.06854   0.07317   0.07787   0.08114   0.08335
 Alpha virt. eigenvalues --    0.08912   0.09219   0.09355   0.09509   0.09768
 Alpha virt. eigenvalues --    0.10174   0.10330   0.10512   0.10660   0.10894
 Alpha virt. eigenvalues --    0.10951   0.11148   0.11369   0.11531   0.11778
 Alpha virt. eigenvalues --    0.12035   0.12283   0.12429   0.12687   0.12745
 Alpha virt. eigenvalues --    0.12856   0.12988   0.13371   0.13445   0.13665
 Alpha virt. eigenvalues --    0.13850   0.13979   0.14452   0.14679   0.14888
 Alpha virt. eigenvalues --    0.15013   0.15125   0.15537   0.15601   0.15866
 Alpha virt. eigenvalues --    0.15924   0.16465   0.16647   0.16898   0.16961
 Alpha virt. eigenvalues --    0.17053   0.17471   0.17629   0.17867   0.18321
 Alpha virt. eigenvalues --    0.18558   0.18729   0.18908   0.19048   0.19505
 Alpha virt. eigenvalues --    0.19667   0.20094   0.20232   0.20452   0.20732
 Alpha virt. eigenvalues --    0.20946   0.21187   0.21484   0.21788   0.21898
 Alpha virt. eigenvalues --    0.21968   0.22434   0.22544   0.22832   0.23238
 Alpha virt. eigenvalues --    0.23298   0.23480   0.23930   0.24144   0.24325
 Alpha virt. eigenvalues --    0.24468   0.25043   0.25271   0.25574   0.25952
 Alpha virt. eigenvalues --    0.26296   0.26373   0.26442   0.26493   0.26530
 Alpha virt. eigenvalues --    0.26875   0.27280   0.27362   0.27645   0.27911
 Alpha virt. eigenvalues --    0.28146   0.28448   0.28609   0.28908   0.29355
 Alpha virt. eigenvalues --    0.29562   0.29753   0.29884   0.30117   0.30251
 Alpha virt. eigenvalues --    0.30481   0.30665   0.31065   0.31306   0.31539
 Alpha virt. eigenvalues --    0.31832   0.31928   0.32414   0.32698   0.33263
 Alpha virt. eigenvalues --    0.33418   0.34028   0.34306   0.34505   0.34691
 Alpha virt. eigenvalues --    0.35041   0.35069   0.35407   0.35583   0.36097
 Alpha virt. eigenvalues --    0.36603   0.36667   0.37023   0.37556   0.37733
 Alpha virt. eigenvalues --    0.38181   0.38310   0.39075   0.39734   0.39783
 Alpha virt. eigenvalues --    0.40644   0.40781   0.41503   0.42151   0.42405
 Alpha virt. eigenvalues --    0.43558   0.43596   0.44696   0.44804   0.45629
 Alpha virt. eigenvalues --    0.46661   0.47422   0.47994   0.49130   0.49400
 Alpha virt. eigenvalues --    0.50065   0.50565   0.51150   0.51281   0.52006
 Alpha virt. eigenvalues --    0.52797   0.53648   0.54591   0.54840   0.56468
 Alpha virt. eigenvalues --    0.57462   0.57755   0.58074   0.60026   0.61393
 Alpha virt. eigenvalues --    0.61762   0.62689   0.63027   0.64369   0.64405
 Alpha virt. eigenvalues --    0.64618   0.65149   0.65299   0.65707   0.66136
 Alpha virt. eigenvalues --    0.66448   0.66999   0.67192   0.68199   0.68517
 Alpha virt. eigenvalues --    0.69222   0.69420   0.69836   0.70019   0.70661
 Alpha virt. eigenvalues --    0.71095   0.71818   0.72171   0.72738   0.73097
 Alpha virt. eigenvalues --    0.73384   0.74175   0.74790   0.75312   0.76087
 Alpha virt. eigenvalues --    0.76362   0.76637   0.77875   0.78153   0.78463
 Alpha virt. eigenvalues --    0.78552   0.78853   0.79067   0.80019   0.80337
 Alpha virt. eigenvalues --    0.80722   0.81284   0.81985   0.82220   0.82786
 Alpha virt. eigenvalues --    0.83049   0.83583   0.84312   0.84968   0.85283
 Alpha virt. eigenvalues --    0.85355   0.86864   0.87513   0.88151   0.89009
 Alpha virt. eigenvalues --    0.89672   0.90164   0.91185   0.93152   0.93382
 Alpha virt. eigenvalues --    0.94317   0.94516   0.94948   0.95336   0.95901
 Alpha virt. eigenvalues --    0.96161   0.97052   0.97276   0.97911   0.98041
 Alpha virt. eigenvalues --    0.98668   0.99856   1.00469   1.00961   1.01503
 Alpha virt. eigenvalues --    1.01766   1.01970   1.02321   1.02552   1.03467
 Alpha virt. eigenvalues --    1.03787   1.03941   1.04307   1.05643   1.05957
 Alpha virt. eigenvalues --    1.06824   1.07247   1.07585   1.08607   1.09549
 Alpha virt. eigenvalues --    1.09718   1.10768   1.11164   1.11568   1.12480
 Alpha virt. eigenvalues --    1.13014   1.13289   1.14206   1.14504   1.14976
 Alpha virt. eigenvalues --    1.16324   1.16882   1.17460   1.17654   1.19192
 Alpha virt. eigenvalues --    1.19241   1.20195   1.20608   1.21120   1.21348
 Alpha virt. eigenvalues --    1.22666   1.23001   1.23201   1.24417   1.24520
 Alpha virt. eigenvalues --    1.25430   1.25754   1.26460   1.26615   1.27121
 Alpha virt. eigenvalues --    1.27970   1.28250   1.29086   1.30117   1.31411
 Alpha virt. eigenvalues --    1.31779   1.31930   1.33276   1.34259   1.34742
 Alpha virt. eigenvalues --    1.35123   1.35841   1.36551   1.37150   1.37401
 Alpha virt. eigenvalues --    1.38316   1.38722   1.39160   1.40047   1.40598
 Alpha virt. eigenvalues --    1.41194   1.41542   1.42265   1.43575   1.44150
 Alpha virt. eigenvalues --    1.46079   1.46319   1.47818   1.50033   1.50383
 Alpha virt. eigenvalues --    1.50986   1.51282   1.53801   1.54347   1.55644
 Alpha virt. eigenvalues --    1.57825   1.59800   1.60411   1.61981   1.65119
 Alpha virt. eigenvalues --    1.66465   1.66613   1.68990   1.71124   1.71606
 Alpha virt. eigenvalues --    1.71895   1.73292   1.73966   1.74941   1.76272
 Alpha virt. eigenvalues --    1.78340   1.79314   1.79687   1.80995   1.81229
 Alpha virt. eigenvalues --    1.81987   1.82323   1.82995   1.83480   1.84988
 Alpha virt. eigenvalues --    1.85123   1.85923   1.87032   1.88211   1.89838
 Alpha virt. eigenvalues --    1.90209   1.90894   1.91517   1.92490   1.92896
 Alpha virt. eigenvalues --    1.94999   1.95858   1.97034   1.97134   1.97601
 Alpha virt. eigenvalues --    1.98863   1.99229   1.99397   2.00301   2.01180
 Alpha virt. eigenvalues --    2.01614   2.03959   2.04880   2.05492   2.06261
 Alpha virt. eigenvalues --    2.07532   2.08692   2.09866   2.10618   2.12943
 Alpha virt. eigenvalues --    2.13577   2.14479   2.15155   2.17209   2.18543
 Alpha virt. eigenvalues --    2.19177   2.20527   2.21119   2.22346   2.22623
 Alpha virt. eigenvalues --    2.23786   2.24811   2.26015   2.26568   2.27591
 Alpha virt. eigenvalues --    2.28170   2.30153   2.30742   2.31196   2.32707
 Alpha virt. eigenvalues --    2.33975   2.35358   2.36333   2.36982   2.37253
 Alpha virt. eigenvalues --    2.37498   2.37985   2.38853   2.40363   2.40615
 Alpha virt. eigenvalues --    2.42027   2.43273   2.44007   2.44742   2.46426
 Alpha virt. eigenvalues --    2.46957   2.46962   2.47417   2.48298   2.49372
 Alpha virt. eigenvalues --    2.49921   2.50619   2.51558   2.53148   2.53936
 Alpha virt. eigenvalues --    2.54088   2.55355   2.57240   2.57531   2.58768
 Alpha virt. eigenvalues --    2.59255   2.59781   2.61746   2.62231   2.62792
 Alpha virt. eigenvalues --    2.63328   2.63917   2.64612   2.66200   2.66637
 Alpha virt. eigenvalues --    2.67236   2.68486   2.69067   2.71028   2.71599
 Alpha virt. eigenvalues --    2.72287   2.72637   2.74536   2.75615   2.76226
 Alpha virt. eigenvalues --    2.76671   2.78770   2.79367   2.81099   2.82046
 Alpha virt. eigenvalues --    2.84020   2.87451   2.88451   2.91818   2.93040
 Alpha virt. eigenvalues --    2.93657   2.94844   2.98223   3.01006   3.02240
 Alpha virt. eigenvalues --    3.03175   3.04052   3.05924   3.08243   3.11919
 Alpha virt. eigenvalues --    3.14394   3.16962   3.22158   3.24830   3.31476
 Alpha virt. eigenvalues --    3.33507   3.34479   3.36519   3.38291   3.43072
 Alpha virt. eigenvalues --    3.43882   3.44777   3.47397   3.49507   3.55342
 Alpha virt. eigenvalues --    3.60042   3.62588   3.72868   3.79999   3.98120
 Alpha virt. eigenvalues --    3.98926   3.99313   4.01069   4.19245   4.21526
 Alpha virt. eigenvalues --    4.23993   4.30622   4.31804   4.33019   4.34048
 Alpha virt. eigenvalues --    4.34196   4.35536   4.36588   4.37101   4.39784
 Alpha virt. eigenvalues --    4.42498   4.42868   4.44587   4.47292   4.50915
 Alpha virt. eigenvalues --    4.54030   4.54633   4.56833   4.58184   4.60600
 Alpha virt. eigenvalues --    4.63778   4.77692   4.81114   4.86927   4.93026
          Condensed to atoms (all electrons):
              1          2          3          4          5          6
     1  C   13.325346  -3.940821   1.031505  -1.708891  -4.533347   1.447871
     2  C   -3.940821  13.314892  -4.003422   1.443143   2.009729  -0.717545
     3  C    1.031505  -4.003422  13.548020  -4.564320  -3.563365  -0.164375
     4  C   -1.708891   1.443143  -4.564320  13.994706   3.272011  -1.097859
     5  C   -4.533347   2.009729  -3.563365   3.272011  16.000262  -0.028011
     6  C    1.447871  -0.717545  -0.164375  -1.097859  -0.028011  13.569246
     7  S    0.424986  -0.102136   0.355028  -0.482350  -0.447316   0.763100
     8  C    0.428915  -2.218258   3.852873  -2.524304  -3.510491  -2.084733
     9  C    0.326550  -0.248242   0.486443  -1.096499  -0.630722   0.942966
    10  C    0.120210  -0.144156   0.193161  -1.269230   0.230902  -0.726104
    11  N   -0.000629   0.012063  -0.012981   0.009610   0.032955   0.015261
    12  C    0.037230  -0.111125   0.057945  -0.423808  -0.068793   0.095405
    13  S   -0.010564  -0.040056   0.189762   0.005381  -0.058922   0.036848
    14  C   -0.039037  -0.338277   0.472019  -0.159844  -0.232320   2.478233
    15  C   -0.201546  -0.027057  -0.006384  -0.684582  -2.184744  -3.681809
    16  N    0.001173   0.001886   0.003414   0.010755  -0.016121   0.086727
    17  C    0.270385   0.044338  -0.129524   0.037026  -0.749552  -0.346767
    18  C    0.049797  -0.000056  -0.004578  -0.007236  -0.152008  -0.220193
    19  C    0.002097  -0.001409  -0.000162  -0.005023  -0.033992  -0.079895
    20  C    0.000826  -0.000038  -0.000108  -0.001551  -0.005056  -0.023046
    21  C    0.001526   0.000149  -0.000089  -0.000048  -0.006217  -0.012027
    22  C    0.005186   0.000041   0.000180   0.000466  -0.009737  -0.018601
    23  C   -0.001847  -0.000303   0.000146   0.000067   0.005901   0.002428
    24  S    0.003165   0.000570  -0.000232   0.000166  -0.004242   0.010936
    25  C   -0.003660  -0.002667  -0.000691  -0.005757  -0.013574  -0.120996
    26  C    0.003750   0.000626   0.001962   0.006318   0.010553   0.095551
    27  C   -0.006644   0.239187  -0.101670  -0.047056  -1.331811  -1.593224
    28  N    0.022483   0.010745  -0.007844   0.014351   0.042117  -0.028584
    29  S   -0.059204  -0.082736   0.044318  -0.044597   0.186350   0.116636
    30  N   -0.003316   0.181938  -0.049474   0.018918   0.008645  -0.326303
    31  C   -1.340021   0.714553  -1.099698   0.363409   1.069337  -1.623192
    32  H    0.517234  -0.110521   0.067312  -0.011652  -0.246920   0.045031
    33  H    0.314335   0.018959  -0.025383   0.027807  -0.129536  -0.060732
    34  H   -0.184959   0.505978  -0.201537   0.126505   0.152842  -0.011562
    35  H    0.099958  -0.128565   0.268679   0.090739  -0.016241   0.022634
    36  H    0.011018  -0.008064  -0.013969  -0.049680   0.025324  -0.044106
    37  H    0.001011  -0.002401   0.003793  -0.026023  -0.000170   0.002467
    38  H   -0.018424   0.005250  -0.006606  -0.012910  -0.067584  -0.143265
    39  H   -0.000302  -0.000185   0.000090  -0.000182   0.000909   0.000563
    40  H    0.000022   0.000001  -0.000001  -0.000009   0.000024   0.000240
    41  H    0.000001   0.000001  -0.000000   0.000002  -0.000017   0.000072
    42  H   -0.000032  -0.000004   0.000001  -0.000001   0.000048  -0.000036
    43  H   -0.003402   0.000401  -0.001184  -0.000432  -0.002070  -0.054471
              7          8          9         10         11         12
     1  C    0.424986   0.428915   0.326550   0.120210  -0.000629   0.037230
     2  C   -0.102136  -2.218258  -0.248242  -0.144156   0.012063  -0.111125
     3  C    0.355028   3.852873   0.486443   0.193161  -0.012981   0.057945
     4  C   -0.482350  -2.524304  -1.096499  -1.269230   0.009610  -0.423808
     5  C   -0.447316  -3.510491  -0.630722   0.230902   0.032955  -0.068793
     6  C    0.763100  -2.084733   0.942966  -0.726104   0.015261   0.095405
     7  S   17.524136   0.492299   0.140094  -0.242675   0.019884  -0.032976
     8  C    0.492299  13.400259  -0.576029  -0.378608   0.024244  -0.055738
     9  C    0.140094  -0.576029   8.909131  -1.522046   0.368492  -0.375501
    10  C   -0.242675  -0.378608  -1.522046   9.607043  -0.092965   0.665404
    11  N    0.019884   0.024244   0.368492  -0.092965   6.727157   0.123797
    12  C   -0.032976  -0.055738  -0.375501   0.665404   0.123797   6.120579
    13  S    0.014582   0.211847   0.182573  -1.080638   0.080234  -0.390733
    14  C    0.565375   1.405758  -0.154007   0.017913  -0.000922  -0.038032
    15  C   -1.260444   0.295651  -0.095839  -0.077430   0.000046  -0.000170
    16  N    0.067144   0.023138  -0.003094   0.000736  -0.000016  -0.000071
    17  C   -0.210053  -0.435588   0.076235   0.020239   0.000225   0.000546
    18  C   -0.026403  -0.038030   0.007319   0.000607   0.000004   0.000031
    19  C    0.030956  -0.001059   0.000532   0.000260   0.000001   0.000002
    20  C    0.007692   0.000341   0.000022   0.000016   0.000000   0.000000
    21  C   -0.001623  -0.000056   0.000023   0.000004   0.000000  -0.000000
    22  C    0.003353  -0.000581   0.000070  -0.000002  -0.000000   0.000000
    23  C    0.000765  -0.000007  -0.000009  -0.000002  -0.000000   0.000000
    24  S    0.000490  -0.000121   0.000016   0.000004   0.000000  -0.000000
    25  C   -0.008949  -0.002412   0.000156  -0.000036   0.000000   0.000002
    26  C   -0.010179   0.000160   0.000068   0.000117   0.000000  -0.000001
    27  C   -0.244492   0.177714  -0.015891  -0.009602  -0.000026  -0.001524
    28  N   -0.001473  -0.026216   0.000601  -0.000065   0.000000   0.000013
    29  S    0.019889   0.039673  -0.008836  -0.001669  -0.000011  -0.000013
    30  N   -0.003339  -0.074342   0.012506   0.002353   0.000008   0.000345
    31  C   -0.818398  -1.763905   0.097682  -0.128661   0.001902  -0.001781
    32  H    0.001191   0.023795   0.012970   0.001749   0.000005   0.000413
    33  H   -0.022914  -0.017276   0.013174   0.001700   0.000070  -0.000034
    34  H    0.001047  -0.059808  -0.021180  -0.004638   0.000108  -0.001650
    35  H   -0.002741  -0.027882  -0.032161   0.004894  -0.001664   0.007508
    36  H    0.013641  -0.083072  -0.271263   0.664036  -0.126463   0.063992
    37  H    0.000735  -0.010275  -0.066640   0.122374  -0.090365   0.429439
    38  H   -0.045545  -0.034955   0.008959  -0.025623   0.000008  -0.001063
    39  H    0.001688  -0.000038   0.000037   0.000055   0.000000   0.000004
    40  H   -0.000025   0.000012  -0.000001  -0.000000  -0.000000  -0.000000
    41  H   -0.000028   0.000002  -0.000000   0.000000   0.000000  -0.000000
    42  H   -0.000000   0.000001  -0.000000  -0.000000  -0.000000   0.000000
    43  H   -0.005200  -0.003310   0.000071  -0.000038   0.000000   0.000002
             13         14         15         16         17         18
     1  C   -0.010564  -0.039037  -0.201546   0.001173   0.270385   0.049797
     2  C   -0.040056  -0.338277  -0.027057   0.001886   0.044338  -0.000056
     3  C    0.189762   0.472019  -0.006384   0.003414  -0.129524  -0.004578
     4  C    0.005381  -0.159844  -0.684582   0.010755   0.037026  -0.007236
     5  C   -0.058922  -0.232320  -2.184744  -0.016121  -0.749552  -0.152008
     6  C    0.036848   2.478233  -3.681809   0.086727  -0.346767  -0.220193
     7  S    0.014582   0.565375  -1.260444   0.067144  -0.210053  -0.026403
     8  C    0.211847   1.405758   0.295651   0.023138  -0.435588  -0.038030
     9  C    0.182573  -0.154007  -0.095839  -0.003094   0.076235   0.007319
    10  C   -1.080638   0.017913  -0.077430   0.000736   0.020239   0.000607
    11  N    0.080234  -0.000922   0.000046  -0.000016   0.000225   0.000004
    12  C   -0.390733  -0.038032  -0.000170  -0.000071   0.000546   0.000031
    13  S   16.631668   0.021930  -0.003300   0.000028  -0.003726  -0.000027
    14  C    0.021930  18.166033  -9.020588   0.271338   2.252975   0.534734
    15  C   -0.003300  -9.020588  19.551830  -0.247254  -5.598320  -1.643116
    16  N    0.000028   0.271338  -0.247254   7.083843  -0.006326  -0.477312
    17  C   -0.003726   2.252975  -5.598320  -0.006326  19.497493   4.286447
    18  C   -0.000027   0.534734  -1.643116  -0.477312   4.286447  14.934054
    19  C   -0.000017  -0.056809  -0.078401   0.340449  -0.215980  -1.220161
    20  C   -0.000002  -0.012636  -0.166822   0.266452  -0.887434  -1.609062
    21  C   -0.000001  -0.104242   0.004234   0.006087  -0.567058   3.205051
    22  C    0.000003  -0.031447   0.242301  -0.010853   0.400128  -2.415713
    23  C    0.000001   0.037619   0.101839   0.019563   0.390505  -3.428368
    24  S   -0.000001   0.047112  -0.068017  -0.005096   0.067580   0.619011
    25  C   -0.000009  -0.168726  -0.244155   0.023644  -0.052291   0.956589
    26  C    0.000000   0.082901   0.101774  -0.083111  -0.187499   0.347383
    27  C    0.000862  -5.593300   4.201918  -0.033306  -1.692606  -3.279587
    28  N   -0.000032   0.373410  -0.204708  -0.006173  -0.061862   0.292639
    29  S    0.000497   0.007616   0.134408   0.017478  -0.537910  -0.285612
    30  N   -0.000564  -0.658884   0.207639   0.005769   0.011847   0.017636
    31  C   -0.001686  -3.441924   5.363238  -0.105353  -9.028610  -4.432286
    32  H    0.000645   0.054709   0.001757  -0.000438  -0.003606  -0.000746
    33  H   -0.000257   0.026673   0.033778  -0.000350   0.020741   0.003379
    34  H    0.000763  -0.023248  -0.005981   0.000032  -0.000771  -0.000156
    35  H    0.003906  -0.000190   0.000921   0.000005   0.000209   0.000025
    36  H   -0.006579   0.004345  -0.013953  -0.000113   0.001817   0.000070
    37  H   -0.136470  -0.000989   0.000062  -0.000001   0.000008   0.000001
    38  H    0.000907  -0.525786   0.957841  -0.164383  -0.067403  -0.020657
    39  H   -0.000002   0.010242   0.028580  -0.020647  -0.000127  -0.121378
    40  H    0.000000   0.001282  -0.004128   0.000926   0.004277   0.000257
    41  H   -0.000000  -0.001167  -0.000398  -0.000107  -0.004348   0.135672
    42  H    0.000000   0.000051   0.000778   0.000178   0.001806  -0.028315
    43  H   -0.000009  -0.048393   0.032131   0.000833  -0.055533  -0.076776
             19         20         21         22         23         24
     1  C    0.002097   0.000826   0.001526   0.005186  -0.001847   0.003165
     2  C   -0.001409  -0.000038   0.000149   0.000041  -0.000303   0.000570
     3  C   -0.000162  -0.000108  -0.000089   0.000180   0.000146  -0.000232
     4  C   -0.005023  -0.001551  -0.000048   0.000466   0.000067   0.000166
     5  C   -0.033992  -0.005056  -0.006217  -0.009737   0.005901  -0.004242
     6  C   -0.079895  -0.023046  -0.012027  -0.018601   0.002428   0.010936
     7  S    0.030956   0.007692  -0.001623   0.003353   0.000765   0.000490
     8  C   -0.001059   0.000341  -0.000056  -0.000581  -0.000007  -0.000121
     9  C    0.000532   0.000022   0.000023   0.000070  -0.000009   0.000016
[...]
 11896,-0.00034220,-0.00032258,0.00017674,0.00016163,-0.00010468,-0.000
 01225,-0.00025035,-0.00006996,-0.00011218,0.00000866,-0.00004270,-0.00
 003493,-0.00027521,0.00017931,-0.00002897,0.00000282,-0.00000097,-0.00
 000312,0.00000494,0.00000330,-0.00000150,-0.00000068,-0.00000026,0.000
 00031,-0.00000047,-0.00000102,0.00000075,-0.00000094,0.00000087,0.0000
 0253,0.00000012,-0.00000046,0.00000088,0.00004343,0.00002225,0.0000140
 1,-0.04304673,0.06904489,0.04616096,0.00000351,0.00000240,-0.00000118,
 0.00000183,0.00001402,0.00000061,0.00001171,-0.00000775,-0.00000186,0.
 00002562,-0.00003275,-0.00001383,0.00004650,0.00000631,0.00000568,-0.0
 0006071,-0.00001758,0.00002541,-0.00002120,0.00001551,-0.00001166,-0.0
 0003332,-0.00003676,-0.00000321,0.00000390,0.00002937,0.00001666,-0.00
 000492,0.00000786,0.00000002,-0.00000277,-0.00002446,-0.00000707,0.000
 00921,-0.00002444,-0.00000021,0.00000364,0.00000404,-0.00000059,0.0000
 4391,0.00002867,0.00002145,-0.00007211,0.00003514,-0.00008737,0.000145
 02,-0.00018718,0.00008285,-0.00041854,0.00073357,0.00011354,0.00076263
 ,-0.00298971,0.00057626,-0.01103001,0.00248296,0.00402309,-0.31872604,
 0.00185936,0.07770321,-0.00968204,-0.00197656,0.00341416,0.00174799,0.
 00202294,0.00230933,-0.00048579,-0.00029203,0.00019783,-0.00021580,0.0
 0031969,-0.00014575,0.00015940,-0.00009539,-0.00008911,0.00033480,-0.0
 0002384,-0.00021381,-0.00010558,-0.00022116,0.00002000,0.00006300,-0.0
 0002181,0.00001030,-0.00005877,0.00003245,-0.00002389,-0.00002166,-0.0
 0007941,-0.00000164,-0.00002905,0.00000228,-0.00005459,-0.00000232,0.0
 0000366,-0.00000097,0.00000150,0.00000814,0.00000063,-0.00000456,-0.00
 000240,0.00000064,-0.00000217,-0.00000381,0.00000054,-0.00000485,0.000
 00236,-0.00000128,0.00000059,-0.00000021,0.00000293,-0.00000130,-0.000
 02335,0.00000695,0.00061196,-0.00008409,-0.00081255,0.33651318,0.00000
 095,0.00000263,-0.00000296,0.00000133,0.00000653,0.00000140,0.00000646
 ,-0.00000367,-0.00000090,0.00001848,-0.00002178,-0.00000874,0.00003529
 ,0.00000717,0.00000174,-0.00004476,-0.00001350,0.00002451,-0.00001408,
 0.00001053,-0.00000762,-0.00002428,-0.00002531,-0.00000064,0.00000242,
 0.00001421,0.00000882,-0.00000488,0.00000287,-0.00000098,-0.00000009,-
 0.00001179,-0.00000340,0.00000498,-0.00001240,0.00000024,0.00000299,0.
 00000281,-0.00000017,0.00004079,0.00001599,0.00001940,-0.00006791,-0.0
 0001485,-0.00008324,0.00017603,-0.00007228,0.00008322,-0.00113428,0.00
 066658,0.00010301,-0.00208044,-0.00459505,-0.00054715,-0.02724829,0.00
 369162,0.00780800,0.00124096,-0.05796989,-0.00375496,0.02796347,0.0039
 0052,-0.00759497,0.00124714,-0.00478630,-0.00244611,0.00070861,0.00079
 109,-0.00012791,0.00060953,-0.00020276,-0.00009447,-0.00020024,0.00015
 244,0.00009559,0.00038556,-0.00083496,-0.00016625,-0.00009718,-0.00043
 245,0.00001826,0.00003889,0.00002502,0.00004386,-0.00005206,0.00000361
 ,-0.00002590,-0.00003484,-0.00005992,-0.00000928,-0.00004546,0.0000258
 7,-0.00009308,-0.00000137,0.00000161,0.00000104,0.00000073,0.00000328,
 0.00000032,-0.00000231,-0.00000157,-0.00000010,-0.00000142,-0.00000181
 ,-0.00000003,-0.00000236,0.00000104,-0.00000040,0.00000025,0.00000001,
 0.00000141,-0.00000627,-0.00002034,0.00000508,0.00056680,0.00088572,0.
 00031534,-0.00191928,0.05799101,0.00000310,-0.00000045,-0.00000017,-0.
 00000257,-0.00000050,-0.00000051,0.00000023,0.00000142,-0.00000085,-0.
 00000076,0.00000509,-0.00000222,-0.00000507,-0.00000913,-0.00000272,0.
 00001008,0.00002349,0.00000285,0.00000081,-0.00000194,-0.00000027,0.00
 000103,-0.00000651,-0.00000025,-0.00000037,0.00000308,0.00000141,0.000
 00330,0.00000044,-0.00000065,-0.00000269,0.00000018,-0.00000175,0.0000
 0244,-0.00000137,0.00000025,-0.00000239,0.00000020,0.00000021,-0.00005
 717,-0.00002730,0.00001325,0.00009523,0.00008818,0.00000971,0.00011231
 ,-0.00013169,-0.00007182,0.00009313,0.00032918,0.00031607,0.00042993,-
 0.00099745,0.00384521,-0.00049614,-0.00064055,0.00226316,0.07772545,-0
 .00388860,-0.05769154,0.00768701,0.00063627,0.00162281,0.00230624,-0.0
 0255001,0.00810463,0.00026084,0.00006897,0.00036021,-0.00017723,0.0001
 7830,-0.00097219,0.00009934,0.00001772,-0.00010755,-0.00030412,0.00013
 747,-0.00023651,-0.00001273,0.00008943,-0.00013016,0.00004738,-0.00002
 939,0.00002332,-0.00008619,-0.00000703,-0.00003070,0.00002459,0.000026
 50,0.00000259,0.00001856,-0.00001894,-0.00000332,-0.00000002,0.,0.0000
 0137,-0.00000214,-0.00000036,0.00000029,-0.00000010,-0.00000023,0.0000
 0077,0.00000003,-0.00000005,0.00000096,0.00000013,-0.00000020,0.000001
 37,-0.00000009,-0.00000010,0.00000042,0.00000756,0.00000560,-0.0000021
 9,-0.00068335,0.00040920,-0.00207336,-0.08559207,0.00551506,0.04928097
 ,-0.00000144,-0.00000115,0.00000229,0.00000235,0.00000146,-0.00000057,
 -0.00000038,-0.00000143,-0.00000033,-0.00000154,-0.00000029,0.00000258
 ,-0.00000474,0.00000235,-0.00000175,0.00000537,0.00000027,-0.00000154,
 0.00000228,-0.00000095,0.00000232,0.00000128,0.00000164,-0.00000120,-0
 .00000054,0.00000099,-0.00000150,0.00000048,-0.00000022,0.00000018,0.0
 0000021,-0.00000008,-0.00000007,-0.00000050,0.00000043,-0.00000037,-0.
 00000027,-0.00000035,0.00000020,0.00003141,0.00000628,0.00000356,-0.00
 004357,-0.00004897,0.00004612,0.00010362,0.00005980,-0.00005511,0.0000
 0260,0.00001018,-0.00038832,-0.00061379,0.00058188,0.00006178,-0.00021
 729,0.00239126,0.00283703,0.01143993,0.01361192,0.00024233,-0.12992705
 ,-0.12451415,0.00701725,-0.01063431,-0.02695150,-0.00033564,0.00158358
 ,-0.00028074,-0.00122462,-0.00021642,-0.00010759,-0.00005268,-0.000633
 83,-0.00141714,-0.00012926,-0.00343000,0.00199268,0.00261806,-0.000043
 26,0.00002251,0.00001711,0.00000021,-0.00002590,-0.00002898,0.00002484
 ,0.00000530,0.00001210,-0.00000041,-0.00003444,0.00000990,-0.00004090,
 0.00003998,-0.00000567,0.00000047,0.00000005,-0.00000208,0.00000196,0.
 00000147,0.00000045,0.00000011,0.00000010,0.00000023,0.00000047,-0.000
 00019,0.00000003,-0.00000016,0.,0.00000024,0.00000004,-0.00000006,0.00
 000020,-0.00000129,0.00000096,0.00000049,0.00037761,0.00064159,0.00002
 094,0.00049087,-0.00009543,-0.00160268,0.13245180,0.00000246,0.0000006
 7,-0.00000089,0.00000005,0.00000878,0.00000104,0.00000700,-0.00000368,
 -0.00000127,0.00001036,-0.00001590,-0.00000428,0.00002087,-0.00000061,
 0.00000168,-0.00002764,-0.00001014,0.00001011,-0.00001182,0.00000801,-
 0.00000535,-0.00001324,-0.00001489,-0.00000291,0.00000158,0.00001806,0
 .00000895,-0.00000202,0.00000518,0.00000100,-0.00000188,-0.00001499,-0
 .00000354,0.00000444,-0.00001439,-0.00000034,0.00000207,0.00000165,-0.
 00000073,0.00000456,0.00002283,-0.00001197,-0.00002090,0.00007306,-0.0
 0002775,-0.00009070,-0.00009363,0.00006196,0.00007338,0.00001068,0.000
 20408,0.00039220,0.00021986,0.00008552,0.00372966,-0.00230077,-0.00268
 006,-0.01640433,-0.01815685,0.00096513,-0.12280491,-0.26616060,-0.0012
 5653,0.00137858,0.00334981,-0.00036402,0.00062912,0.00055934,0.0002439
 7,-0.00045113,0.00006090,0.00021230,0.00027905,0.00010221,-0.00006477,
 0.00075488,0.00124450,-0.00065413,0.00000141,-0.00001770,-0.00001675,0
 .00000520,-0.00000295,-0.00000438,-0.00000975,0.00001814,-0.00000078,-
 0.00001734,-0.00003722,-0.00000189,0.00000700,-0.00002657,-0.00000879,
 -0.00000120,0.00000234,-0.00000058,0.00000143,0.00000502,0.00000024,-0
 .00000305,-0.00000140,0.00000024,-0.00000133,-0.00000257,0.00000005,-0
 .00000290,0.00000172,-0.00000161,0.00000048,-0.00000016,0.00000154,0.0
 0000131,-0.00001249,0.00000639,-0.00081914,-0.00090085,0.00003953,0.00
 043361,0.00089168,0.00084166,0.13335587,0.28102399,-0.00000073,-0.0000
 0066,0.00000276,0.00000016,-0.00000060,-0.00000093,-0.00000090,-0.0000
 0014,-0.00000048,-0.00000243,-0.00000105,0.00000108,-0.00000142,0.0000
 0119,0.00000019,-0.00000056,-0.00000108,-0.00000370,0.00000195,-0.0000
 0072,0.00000263,0.00000159,0.00000593,-0.00000066,0.00000017,-0.000001
 19,-0.00000266,0.00000060,0.00000031,0.00000006,-0.00000058,0.00000070
 ,-0.00000048,-0.00000033,0.00000114,-0.00000025,-0.00000066,-0.0000004
 9,0.00000061,0.00007436,-0.00001208,0.00000749,-0.00012355,-0.00005660
 ,0.00001379,0.00014182,0.00021747,0.00001855,-0.00035895,0.00034402,-0
 .00121575,0.00022734,-0.00025426,-0.00091323,0.00289966,-0.00222580,0.
 00791163,-0.00422253,-0.00712501,0.00487718,0.00738702,-0.00090149,-0.
 03836260,0.00401623,0.00763393,0.00349241,-0.00097162,0.00049370,-0.00
 180868,-0.00019891,0.00013994,-0.00030088,0.00028397,0.00045422,-0.000
 07085,0.00212492,-0.00125531,0.00353782,-0.00009970,-0.00012532,0.0001
 0527,0.00003808,-0.00000902,0.00002116,-0.00004593,-0.00002161,-0.0000
 4100,0.00001068,-0.00002212,0.00000180,-0.00009353,0.00006537,-0.00001
 146,0.00000051,-0.00000107,-0.00000090,0.00000067,0.00000030,-0.000000
 48,0.00000034,0.00000009,0.00000052,0.00000032,0.00000015,0.00000044,-
 0.00000006,0.,0.00000077,-0.00000007,-0.00000008,0.00000027,0.00000497
 ,0.00000778,-0.00000212,-0.00025363,-0.00036072,-0.00000369,-0.0015452
 1,0.00097265,-0.00477632,-0.00966351,0.00239355,0.02696650,-0.00000147
 ,-0.00000152,0.00000372,0.00000391,0.00000245,-0.00000203,-0.00000102,
 -0.00000259,0.00000012,-0.00000465,0.00000335,0.00000132,-0.00000863,0
 .00000032,0.00000057,0.00000529,0.00000313,0.00000253,0.00000260,-0.00
 000141,0.00000336,0.00000531,0.00000382,-0.00000138,-0.00000007,0.0000
 0104,-0.00000202,0.00000075,-0.00000026,0.00000013,0.00000028,0.000000
 15,-0.00000010,-0.00000102,0.00000068,-0.00000033,-0.00000025,-0.00000
 065,0.00000039,-0.00000717,0.00001875,0.00000138,0.00002788,-0.0000140
 0,-0.00003399,-0.00000413,0.00013475,-0.00003264,-0.00026266,-0.000027
 94,0.00020575,0.00071420,0.00082492,0.00021904,0.00032146,0.00012142,-
 0.00019326,-0.00011775,-0.00049974,-0.00009497,0.00084833,0.00004196,-
 0.00136890,0.01105736,0.01564504,-0.00003218,-0.07218406,-0.08374740,0
 .00082692,-0.00467994,-0.02103525,-0.00381221,-0.00641833,-0.00064318,
 0.00176979,-0.00156030,0.00235385,0.00214829,0.00002478,0.00005476,-0.
 00001756,0.00003183,-0.00001698,-0.00002791,0.00004622,0.00002391,0.00
 004313,-0.00000615,-0.00000924,0.00000606,0.00000363,0.00001820,-0.000
 01469,0.00000100,0.00000049,-0.00000354,0.00000216,0.00000161,0.000001
 08,0.00000014,0.00000028,0.00000057,0.00000059,-0.00000034,0.00000038,
 -0.00000026,0.00000008,0.00000039,0.00000010,-0.00000009,0.00000016,0.
 00000129,0.00000706,0.00000152,-0.00001813,-0.00000926,0.00001303,0.00
 001334,-0.00000455,0.00008694,-0.00029966,-0.00044409,0.00012566,0.071
 22601,0.00000016,0.00000110,-0.00000215,-0.00000067,0.00000073,0.00000
 036,0.00000180,-0.00000003,0.00000090,0.00000562,-0.00000534,-0.000002
 32,0.00000931,0.00000350,0.00000229,-0.00000675,-0.00001032,-0.0000073
 6,-0.00000365,0.00000287,-0.00000261,-0.00000651,-0.00000441,0.0000007
 4,0.00000088,0.00000284,0.00000231,-0.00000106,0.00000090,0.00000007,-
 0.00000049,-0.00000297,-0.00000060,0.00000127,-0.00000289,0.00000025,0
 .00000051,0.00000060,-0.00000027,0.00002052,0.00000314,0.00001194,-0.0
 0004103,-0.00001287,0.00003519,0.00000299,-0.00007380,-0.00001700,0.00
 024403,-0.00007856,-0.00014476,-0.00112944,-0.00038848,0.00010319,0.00
 017509,0.00014833,0.00002836,0.00008453,-0.00029958,-0.00002577,-0.000
 92774,0.00089087,0.00106649,-0.00957559,-0.01087703,0.00067969,-0.0828
 1050,-0.33362901,-0.03425363,0.00140763,-0.00066672,0.00018783,0.00078
 128,0.00089180,-0.00007146,0.00273969,-0.00164579,-0.00190334,-0.00001
 195,-0.00001909,0.00000821,-0.00000883,-0.00000026,-0.00001492,-0.0000
 1539,-0.00000759,-0.00000965,-0.00000294,-0.00000676,-0.00000018,-0.00
 000491,0.00000559,-0.00000359,-0.00000079,0.00000043,0.00000077,-0.000
 00029,0.00000049,0.00000009,-0.00000067,-0.00000035,-0.00000025,-0.000
 00049,-0.00000045,-0.00000024,-0.00000039,0.00000027,-0.00000054,0.000
 00006,0.,0.00000019,-0.00000302,-0.00000715,0.00000174,0.00003542,0.00
 001628,-0.00001135,0.00001644,-0.00001925,-0.00005399,0.00060452,0.000
 09170,-0.00023320,0.08856146,0.34533149,0.00000148,0.00000067,0.000003
 62,-0.00000154,-0.00000295,-0.00000226,-0.00000190,0.00000160,-0.00000
 070,-0.00000508,0.00000339,0.00000345,-0.00000369,-0.00000150,-0.00000
 061,-0.00000444,-0.00000370,-0.00000241,0.00000224,-0.00000014,0.00000
 513,0.00000464,0.00000823,-0.00000290,0.00000017,-0.00000610,-0.000003
 00,0.00000118,-0.00000053,-0.00000013,-0.00000070,0.00000377,-0.000000
 34,-0.00000033,0.00000393,-0.00000038,-0.00000117,-0.00000042,0.000000
 42,-0.00001749,0.00001082,-0.00000782,0.00002293,-0.00002667,-0.000006
 83,-0.00006802,-0.00011814,-0.00007834,0.00027436,-0.00016641,0.000414
 29,-0.00014517,-0.00036738,0.00062395,-0.00027369,0.00000489,-0.000315
 07,0.00002427,0.00026746,-0.00012647,-0.00129080,0.00071583,-0.0029922
 3,-0.00486377,-0.00724465,0.00122959,0.00073112,-0.03428569,-0.0246725
 8,0.00056277,0.00730091,-0.00290871,0.00210952,0.00041035,-0.00084911,
 0.00225897,-0.00169624,0.00308659,0.00013992,0.00000711,0.00009648,-0.
 00000410,0.00013482,0.00010944,-0.00004742,-0.00000900,-0.00000208,0.0
 0000097,0.00003302,-0.00001200,0.00000749,-0.00005210,-0.00001137,0.00
 000099,-0.00000207,0.00000026,-0.00000165,-0.00000137,-0.00000129,0.00
 000112,0.00000055,0.00000106,0.00000057,0.00000084,0.00000107,0.000000
 46,-0.00000040,0.00000144,-0.00000025,-0.00000003,0.00000012,-0.000005
 04,-0.00000458,0.00000405,0.00002784,0.00000326,0.00002597,0.00007142,
 -0.00003804,0.00024466,0.00031533,0.00009614,0.00026508,-0.00025161,0.
 03507487,0.02304820,-0.00000252,-0.00000208,-0.00000746,-0.00000530,-0
 .00000036,0.00000475,0.00000457,0.00000078,-0.00000161,0.00001205,-0.0
 0001332,-0.00000062,0.00003056,0.00000626,-0.00000009,-0.00001390,-0.0
 0001982,0.00000153,-0.00002074,0.00000738,-0.00000503,-0.00001101,-0.0
 0001272,-0.00000451,0.00000205,0.00001049,0.00000678,-0.00000236,0.000
 00554,0.00000117,-0.00000485,-0.00001150,-0.00000361,0.00000683,-0.000
 01139,0.00000097,0.00000090,0.00000158,-0.00000086,0.00009265,0.000044
 80,0.00001729,-0.00011828,-0.00003247,0.00001480,0.00005385,0.00039502
 ,-0.00018164,-0.00034671,0.00004735,0.00007025,0.00110541,-0.00032720,
 -0.00106030,-0.00018927,-0.00007741,-0.00003189,0.00005738,0.00012294,
 -0.00013237,-0.00000903,-0.00160772,-0.00005562,-0.00365815,0.00173940
 ,0.00279174,-0.00081757,0.00386999,0.00094476,0.00695205,0.00715338,-0
 .00180201,-0.22021740,-0.15658337,0.03230109,-0.00854120,-0.01940286,-
 0.00094250,0.00024903,0.00029857,-0.00018863,0.00026584,-0.00045094,-0
 .00040279,0.00003450,-0.00015701,-0.00026330,-0.00017688,-0.00022940,0
 .00014297,0.00005516,0.00014627,-0.00005448,0.00000522,-0.00000088,0.0
 0000845,0.00000558,-0.00000013,-0.00000673,-0.00000339,-0.00000419,0.0
 0000088,-0.00000127,-0.00000151,0.00000028,-0.00000206,0.00000089,-0.0
 0000050,0.00000029,-0.00000017,0.00000111,-0.00000587,0.00000184,0.000
 01298,-0.00001926,0.00000723,0.00009390,-0.00001064,0.00003015,0.00001
 221,-0.00041014,0.00003078,0.00024381,0.00123720,-0.00014013,0.0004280
 7,0.22441670,0.00000103,-0.00000146,-0.00001121,-0.00000652,-0.0000107
 8,0.00000492,-0.00000500,0.00000761,0.00000239,-0.00001309,0.00001790,
 0.00000429,-0.00001852,-0.00001203,-0.00000226,0.00002183,0.00001889,-
 0.00000512,0.00001425,-0.00000902,0.00000479,0.00001447,0.00001421,0.0
 0000100,-0.00000305,-0.00001662,-0.00000784,0.00000313,-0.00000498,-0.
 00000040,0.00000317,0.00001488,0.00000387,-0.00000601,0.00001403,0.000
 00056,-0.00000189,-0.00000174,0.00000024,-0.00009743,-0.00009442,-0.00
 002071,0.00010398,0.00007754,0.00000424,-0.00004801,-0.00031222,0.0001
 2602,0.00004764,0.00019094,-0.00013785,-0.00005790,-0.00025321,0.00068
 356,-0.00042135,-0.00031325,0.00009687,-0.00002087,0.00038860,0.000181
 36,0.00034791,0.00034261,-0.00017329,0.00122364,0.00053815,-0.00133847
 ,0.00243668,-0.00464808,-0.00159159,-0.01547381,-0.01277905,0.00315655
 ,-0.15745965,-0.19086528,0.01631289,0.00522051,0.00967646,-0.00010510,
 0.00036286,-0.00114213,-0.00079132,-0.00031381,-0.00096159,-0.00142152
 ,0.00020533,0.00000112,-0.00008103,-0.00017563,-0.00006332,0.00000564,
 0.00018651,-0.00004595,-0.00000160,-0.00000545,-0.00000629,0.00000984,
 -0.00000617,-0.00000972,0.00000039,0.00000377,0.00000350,-0.00000126,0
 .00000002,0.00000313,-0.00000078,0.00000279,-0.00000140,0.00000109,-0.
 00000056,0.00000017,-0.00000157,0.00000789,0.00000145,-0.00001414,-0.0
 0002394,0.00000618,-0.00005540,0.00000320,0.00000605,-0.00001163,0.000
 14707,0.00006825,-0.00012280,-0.00136497,0.00036576,-0.00005437,0.1651
 6594,0.19979513,0.00001378,0.00001706,0.00003641,-0.00000873,-0.000018
 01,-0.00002446,-0.00000968,0.00001113,-0.00000718,-0.00001254,0.000017
 58,0.00000507,-0.00002310,-0.00001170,0.00000197,0.00000464,0.00001428
 ,-0.00004413,0.00002070,-0.00000549,0.00000011,0.00000934,0.00001987,0
 .00000025,0.00000131,-0.00001977,-0.00000720,0.00000481,-0.00000581,-0
 .00000180,0.00000092,0.00001835,0.00000278,-0.00000368,0.00001779,-0.0
 0000040,-0.00000429,-0.00000103,0.00000266,-0.00011865,-0.00007244,-0.
 00004039,0.00009173,0.00021545,0.00010912,-0.00023632,-0.00021559,-0.0
 0022430,0.00054661,0.00007732,-0.00001217,-0.00129968,0.00035162,-0.00
 266371,-0.00005773,-0.00002681,-0.00004882,-0.00012427,0.00006565,-0.0
 0047437,0.00023194,0.00053422,0.00069536,0.00304745,-0.00163143,0.0031
 4062,0.00019101,-0.00189048,-0.00056174,-0.00569401,-0.00339735,-0.002
 68277,0.03003724,0.01456761,-0.02475365,0.00436327,0.00786607,0.001208
 60,0.00092532,-0.00093236,0.00021157,-0.00023786,-0.00021620,0.0001932
 9,-0.00081997,-0.00051430,-0.00035997,0.00010127,0.00058813,-0.0002384
 2,0.00024519,-0.00018771,0.00008274,0.00000737,-0.00000588,-0.00000091
 ,-0.00003949,-0.00002917,0.00000050,0.00000807,0.00000617,0.00000558,0
 .00000283,0.00000504,0.00000714,0.00000318,-0.00000212,0.00000404,-0.0
 0000105,0.00000022,-0.00000119,-0.00001311,0.00000267,-0.00001158,0.00
 008285,-0.00004354,0.00026725,0.00000431,-0.00001165,0.00000856,0.0002
 8513,-0.00006180,0.00028912,0.00042711,-0.00044633,0.00283175,-0.03195
 324,-0.01464926,0.02305465\\0.00000507,-0.00000386,0.00001174,0.000001
 23,0.00000586,0.00000228,-0.00000288,-0.00000269,0.00000045,-0.0000064
 1,-0.00000516,0.00000073,-0.00001512,0.00000171,-0.00001652,0.00001006
 ,0.00000114,0.00001319,0.00000596,0.00000211,-0.00001290,-0.00000220,-
 0.00000192,0.00000355,0.00000379,-0.00000259,-0.00000828,0.00000274,-0
 .00000363,0.00000448,0.00000188,0.00000483,0.00000455,0.00000245,0.000
 00434,-0.00001568,-0.00000550,-0.00000051,0.00001168,0.00001665,-0.000
 00406,0.00000268,-0.00000839,-0.00000630,-0.00000962,0.00000471,0.0000
 0578,0.00000252,-0.00000008,0.00000301,0.00001346,-0.00000278,0.000001
 32,0.00000199,0.00000081,0.00000049,-0.00000786,-0.00000181,0.00000329
 ,0.00000039,0.00001166,-0.00000678,-0.00000217,-0.00000268,0.00000039,
 -0.00001130,0.00000544,0.00000890,0.00001485,-0.00000737,0.00000592,0.
 00000953,-0.00000921,-0.00000821,0.00000107,0.00000558,-0.00000836,-0.
 00000461,0.00001415,0.00001715,-0.00002380,-0.00000155,-0.00000585,0.0
 0000774,-0.00001378,0.00000757,0.00000324,0.00000548,-0.00000666,-0.00
 000925,-0.00001526,-0.00000001,0.00001917,0.00000166,0.00000289,-0.000
 00032,-0.00000287,-0.00000039,0.00000191,-0.00000015,-0.00000222,0.000
 00664,0.00000020,-0.00000422,-0.00000007,0.00000047,-0.00000294,-0.000
 00331,-0.00000133,-0.00000184,-0.00000292,0.00000006,0.00000312,0.0000
 0284,0.00000044,0.00000240,-0.00000084,-0.00000045,-0.00000278,-0.0000
 0357,-0.00000188,-0.00000061,-0.00000227,-0.00000040,0.00000164,-0.000
 00517,0.00000163,-0.00000225,-0.00000021\\\@


 GARLIC THEN HAVE POWER TO SAVE FROM DEATH
 BEAR WITH IT THOUGH IT MAKETH UNSAVORY BREATH,
 AND SCORN NOT GARLIC LIKE SOME THAT THINK
 IT ONLY MAKETH MEN WINK AND DRINK AND STINK.
   --  SIR JOHN HARRINGTON,
       "THE ENGLISHMAN'S DOCTOR", 1609
 Job cpu time:  1 days  3 hours 52 minutes 57.9 seconds.
 File lengths (MBytes):  RWF=   2093 Int=      0 D2E=      0 Chk=     34 Scr=      1
 Normal termination of Gaussian 09 at Mon Dec 30 04:33:54 2013.
