 Entering Gaussian System, Link 0=g09
 Initial command:
 /opt/gaussian/g09/l1.exe /panfs/panfs.cluster/home/shuo/Gau-30528.inp -scrdir=/panfs/panfs.cluster/home/shuo/
 Default is to use a total of  12 processors:
                               12 via shared-memory
                                1 via Linda
 Entering Link 1 = /opt/gaussian/g09/l1.exe PID=     30529.
  
 Copyright (c) 1988,1990,1992,1993,1995,1998,2003,2009,2011,
            Gaussian, Inc.  All Rights Reserved.
  
 This is part of the Gaussian(R) 09 program.  It is based on
 the Gaussian(R) 03 system (copyright 2003, Gaussian, Inc.),
 the Gaussian(R) 98 system (copyright 1998, Gaussian, Inc.),
 the Gaussian(R) 94 system (copyright 1995, Gaussian, Inc.),
 the Gaussian 92(TM) system (copyright 1992, Gaussian, Inc.),
 the Gaussian 90(TM) system (copyright 1990, Gaussian, Inc.),
 the Gaussian 88(TM) system (copyright 1988, Gaussian, Inc.),
 the Gaussian 86(TM) system (copyright 1986, Carnegie Mellon
 University), and the Gaussian 82(TM) system (copyright 1983,
 Carnegie Mellon University). Gaussian is a federally registered
 trademark of Gaussian, Inc.
  
 This software contains proprietary and confidential information,
 including trade secrets, belonging to Gaussian, Inc.
  
 This software is provided under written license and may be
 used, copied, transmitted, or stored only in accord with that
 written license.
  
 The following legend is applicable only to US Government
 contracts under FAR:
  
                    RESTRICTED RIGHTS LEGEND
  
 Use, reproduction and disclosure by the US Government is
 subject to restrictions as set forth in subparagraphs (a)
 and (c) of the Commercial Computer Software - Restricted
 Rights clause in FAR 52.227-19.
  
 Gaussian, Inc.
 340 Quinnipiac St., Bldg. 40, Wallingford CT 06492
  
  
 ---------------------------------------------------------------
 Warning -- This program may not be used in any manner that
 competes with the business of Gaussian, Inc. or will provide
 assistance to any competitor of Gaussian, Inc.  The licensee
 of this program is prohibited from giving any competitor of
 Gaussian, Inc. access to this program.  By using this program,
 the user acknowledges that Gaussian, Inc. is engaged in the
 business of creating and licensing software in the field of
 computational chemistry and represents and warrants to the
 licensee that it is not a competitor of Gaussian, Inc. and that
 it will not use this program in any manner prohibited above.
 ---------------------------------------------------------------
  

 Cite this work as:
 Gaussian 09, Revision C.01,
 M. J. Frisch, G. W. Trucks, H. B. Schlegel, G. E. Scuseria, 
 M. A. Robb, J. R. Cheeseman, G. Scalmani, V. Barone, B. Mennucci, 
 G. A. Petersson, H. Nakatsuji, M. Caricato, X. Li, H. P. Hratchian, 
 A. F. Izmaylov, J. Bloino, G. Zheng, J. L. Sonnenberg, M. Hada, 
 M. Ehara, K. Toyota, R. Fukuda, J. Hasegawa, M. Ishida, T. Nakajima, 
 Y. Honda, O. Kitao, H. Nakai, T. Vreven, J. A. Montgomery, Jr., 
 J. E. Peralta, F. Ogliaro, M. Bearpark, J. J. Heyd, E. Brothers, 
 K. N. Kudin, V. N. Staroverov, T. Keith, R. Kobayashi, J. Normand, 
 K. Raghavachari, A. Rendell, J. C. Burant, S. S. Iyengar, J. Tomasi, 
 M. Cossi, N. Rega, J. M. Millam, M. Klene, J. E. Knox, J. B. Cross, 
 V. Bakken, C. Adamo, J. Jaramillo, R. Gomperts, R. E. Stratmann, 
 O. Yazyev, A. J. Austin, R. Cammi, C. Pomelli, J. W. Ochterski, 
 R. L. Martin, K. Morokuma, V. G. Zakrzewski, G. A. Voth, 
 P. Salvador, J. J. Dannenberg, S. Dapprich, A. D. Daniels, 
 O. Farkas, J. B. Foresman, J. V. Ortiz, J. Cioslowski, 
 and D. J. Fox, Gaussian, Inc., Wallingford CT, 2010.
 
 ******************************************
 Gaussian 09:  EM64L-G09RevC.01 23-Sep-2011
                29-Dec-2013 
 ******************************************
 %chk=64_C25H13N3OS2Si.chk
 %NProcShared=12
 Will use up to   12 processors via shared memory.
 %Mem=8000MB
 Default route:  MaxDisk=100GB
 --------------------------------------------
 #B3LYP/6-31++G(d,p) opt scf=direct freq test
 --------------------------------------------
 1/14=-1,18=20,19=15,26=3,38=1/1,3;
 2/9=110,12=2,17=6,18=5,40=1/2;
 3/5=1,6=6,7=1111,11=2,16=1,25=1,30=1,71=1,74=-5/1,2,3;
 4//1;
 5/5=2,38=5/2;
 6/7=2,8=2,9=2,10=2,28=1/1;
 7//1,2,3,16;
 1/14=-1,18=20,19=15/3(2);
 2/9=110/2;
 99//99;
 2/9=110/2;
 3/5=1,6=6,7=1111,11=2,16=1,25=1,30=1,71=1,74=-5/1,2,3;
 4/5=5,16=3/1;
 5/5=2,38=5/2;
 7//1,2,3,16;
 1/14=-1,18=20,19=15/3(-5);
 2/9=110/2;
 6/7=2,8=2,9=2,10=2,19=2,28=1/1;
 99/9=1/99;
 ----------------------------------------------------------------------
 Geom opt of No.64 candidate from the CEPDB database with SMILE code of
  c1scc2c1c1cc([nH]c1c1cnc3ccc4ccccc4c3c21)-c1cncc2nsnc12, HPC, 2013122
 7, Shuo Dai, Gaussian09
 ----------------------------------------------------------------------
 Charge =  0 Multiplicity = 1
 Symbolic Z-Matrix:
 C                     2.32472  -1.26026  -0.0378 
 S                     2.03091  -2.92532   0.00284 
 C                     0.25328  -2.74959  -0.12923 
 C                    -0.3236   -1.49374  -0.36726 
 C                     1.0764   -0.66553  -0.14913 
 C                     1.10489   0.72266  -0.07951 
 C                     2.16243   1.67032   0.00739 
 C                     1.52181   2.89389   0.01218 
 N                     0.1443    2.60861   0.01537 
 H                    -0.52357   3.36539   0.00268 
 C                    -0.16235   1.2304   -0.13499 
 C                    -1.47348   0.38176  -0.33145 
 C                    -2.50691   1.20976  -0.069 
 N                    -3.71629   0.7328    0.27799 
 C                    -3.84844  -0.63017   0.32707 
 C                    -4.41493  -1.528     1.17777 
 C                    -5.70521  -1.19457   1.11929 
 C                    -6.1922   -2.16462   0.30076 
 C                    -6.49236  -3.614     0.47993 
 C                    -7.61112  -4.23919  -0.06073 
 C                    -8.39882  -3.31263  -0.64776 
 C                    -7.54003  -2.12752  -1.0357 
 C                    -5.77748  -1.6653   -0.81956 
 C                    -3.84759  -1.43533  -0.78891 
 C                    -2.00244  -1.01547  -0.57756 
 C                     2.09949   4.24425   0.00606 
 C                     3.47823   4.52289   0.00839 
 N                     4.0949    5.75182   0.01216 
 C                     3.35184   6.89515   0.00862 
 C                     1.94752   6.77877  -0.00409 
 N                     1.06039   7.78648  -0.01273 
 S                    -0.44521   7.09063  -0.02621 
 N                    -0.04222   5.4804   -0.02103 
 C                     1.30459   5.41712  -0.00713 
 H                     3.36539  -0.8837    0.0281 
 H                    -0.13862  -3.73651  -0.02874 
 H                     3.25199   1.56909   0.00832 
 H                    -2.38633   2.28026   0.02517 
 H                    -4.17919  -2.62132   0.88595 
 H                    -5.91825  -0.14296   0.70486 
 H                    -5.65012  -4.25319   0.71909 
 H                    -7.83176  -5.30253  -0.04002 
 H                    -9.50329  -3.51444  -0.56191 
 H                    -8.3452   -1.32154  -0.52759 
 H                     4.19543   3.70109   0.00918 
 H                     3.87602   7.84044   0.01383 
 

 GradGradGradGradGradGradGradGradGradGradGradGradGradGradGradGradGradGrad
 Berny optimization.
 Initialization pass.
                           ----------------------------
                           !    Initial Parameters    !
                           ! (Angstroms and Degrees)  !
 --------------------------                            --------------------------
 ! Name  Definition              Value          Derivative Info.                !
 --------------------------------------------------------------------------------
 ! R1    R(1,2)                  1.6913         estimate D2E/DX2                !
 ! R2    R(1,5)                  1.3872         estimate D2E/DX2                !
 ! R3    R(1,35)                 1.1087         estimate D2E/DX2                !
 ! R4    R(2,3)                  1.7912         estimate D2E/DX2                !
 ! R5    R(3,4)                  1.4024         estimate D2E/DX2                !
 ! R6    R(3,36)                 1.0666         estimate D2E/DX2                !
 ! R7    R(4,5)                  1.6412         estimate D2E/DX2                !
 ! R8    R(4,25)                 1.7583         estimate D2E/DX2                !
 ! R9    R(5,6)                  1.3902         estimate D2E/DX2                !
 ! R10   R(6,7)                  1.4227         estimate D2E/DX2                !
 ! R11   R(6,11)                 1.3663         estimate D2E/DX2                !
 ! R12   R(7,8)                  1.3811         estimate D2E/DX2                !
 ! R13   R(7,37)                 1.0943         estimate D2E/DX2                !
 ! R14   R(8,9)                  1.4067         estimate D2E/DX2                !
 ! R15   R(8,26)                 1.4687         estimate D2E/DX2                !
 ! R16   R(9,10)                 1.0094         estimate D2E/DX2                !
 ! R17   R(9,11)                 1.4199         estimate D2E/DX2                !
 ! R18   R(11,12)                1.5741         estimate D2E/DX2                !
 ! R19   R(12,13)                1.35           estimate D2E/DX2                !
 ! R20   R(12,25)                1.5141         estimate D2E/DX2                !
 ! R21   R(13,14)                1.3455         estimate D2E/DX2                !
 ! R22   R(13,38)                1.0814         estimate D2E/DX2                !
 ! R23   R(14,15)                1.3702         estimate D2E/DX2                !
 ! R24   R(15,16)                1.3604         estimate D2E/DX2                !
 ! R25   R(15,24)                1.3761         estimate D2E/DX2                !
 ! R26   R(16,17)                1.3339         estimate D2E/DX2                !
 ! R27   R(16,39)                1.1559         estimate D2E/DX2                !
 ! R28   R(17,18)                1.3595         estimate D2E/DX2                !
 ! R29   R(17,40)                1.1502         estimate D2E/DX2                !
 ! R30   R(18,19)                1.4909         estimate D2E/DX2                !
 ! R31   R(18,23)                1.2948         estimate D2E/DX2                !
 ! R32   R(19,20)                1.391          estimate D2E/DX2                !
 ! R33   R(19,41)                1.084          estimate D2E/DX2                !
 ! R34   R(20,21)                1.3504         estimate D2E/DX2                !
 ! R35   R(20,42)                1.0862         estimate D2E/DX2                !
 ! R36   R(21,22)                1.5141         estimate D2E/DX2                !
 ! R37   R(21,43)                1.126          estimate D2E/DX2                !
 ! R38   R(22,44)                1.2474         estimate D2E/DX2                !
 ! R39   R(24,25)                1.9041         estimate D2E/DX2                !
 ! R40   R(26,27)                1.4066         estimate D2E/DX2                !
 ! R41   R(26,34)                1.4169         estimate D2E/DX2                !
 ! R42   R(27,28)                1.375          estimate D2E/DX2                !
 ! R43   R(27,45)                1.0907         estimate D2E/DX2                !
 ! R44   R(28,29)                1.3636         estimate D2E/DX2                !
 ! R45   R(29,30)                1.4092         estimate D2E/DX2                !
 ! R46   R(29,46)                1.0809         estimate D2E/DX2                !
 ! R47   R(30,31)                1.3426         estimate D2E/DX2                !
 ! R48   R(30,34)                1.5058         estimate D2E/DX2                !
 ! R49   R(31,32)                1.6587         estimate D2E/DX2                !
 ! R50   R(32,33)                1.6599         estimate D2E/DX2                !
 ! R51   R(33,34)                1.3484         estimate D2E/DX2                !
 ! A1    A(2,1,5)              105.526          estimate D2E/DX2                !
 ! A2    A(2,1,35)             119.7375         estimate D2E/DX2                !
 ! A3    A(5,1,35)             134.7354         estimate D2E/DX2                !
 ! A4    A(1,2,3)               94.2465         estimate D2E/DX2                !
 ! A5    A(2,3,4)              120.5726         estimate D2E/DX2                !
 ! A6    A(2,3,36)             105.4809         estimate D2E/DX2                !
 ! A7    A(4,3,36)             133.9041         estimate D2E/DX2                !
 ! A8    A(3,4,5)               94.4994         estimate D2E/DX2                !
 ! A9    A(3,4,25)             131.0472         estimate D2E/DX2                !
 ! A10   A(5,4,25)             133.8789         estimate D2E/DX2                !
 ! A11   A(1,5,4)              124.19           estimate D2E/DX2                !
 ! A12   A(1,5,6)              113.9306         estimate D2E/DX2                !
 ! A13   A(4,5,6)              121.8729         estimate D2E/DX2                !
 ! A14   A(5,6,7)              133.1121         estimate D2E/DX2                !
 ! A15   A(5,6,11)             110.4893         estimate D2E/DX2                !
 ! A16   A(7,6,11)             116.3846         estimate D2E/DX2                !
 ! A17   A(6,7,8)              104.2137         estimate D2E/DX2                !
 ! A18   A(6,7,37)             132.7334         estimate D2E/DX2                !
 ! A19   A(8,7,37)             122.9427         estimate D2E/DX2                !
 ! A20   A(7,8,9)              105.9349         estimate D2E/DX2                !
 ! A21   A(7,8,26)             129.2021         estimate D2E/DX2                !
 ! A22   A(9,8,26)             124.8618         estimate D2E/DX2                !
 ! A23   A(8,9,10)             119.7239         estimate D2E/DX2                !
 ! A24   A(8,9,11)             114.0842         estimate D2E/DX2                !
 ! A25   A(10,9,11)            125.696          estimate D2E/DX2                !
 ! A26   A(6,11,9)              98.9805         estimate D2E/DX2                !
 ! A27   A(6,11,12)            125.2582         estimate D2E/DX2                !
 ! A28   A(9,11,12)            135.7576         estimate D2E/DX2                !
 ! A29   A(11,12,13)           106.4209         estimate D2E/DX2                !
 ! A30   A(11,12,25)           143.9751         estimate D2E/DX2                !
 ! A31   A(13,12,25)           109.2782         estimate D2E/DX2                !
 ! A32   A(12,13,14)           121.3838         estimate D2E/DX2                !
 ! A33   A(12,13,38)           122.5982         estimate D2E/DX2                !
 ! A34   A(14,13,38)           115.3833         estimate D2E/DX2                !
 ! A35   A(13,14,15)           116.6483         estimate D2E/DX2                !
 ! A36   A(14,15,16)           135.9744         estimate D2E/DX2                !
 ! A37   A(14,15,24)           123.5651         estimate D2E/DX2                !
 ! A38   A(16,15,24)            96.963          estimate D2E/DX2                !
 ! A39   A(15,16,17)           102.1459         estimate D2E/DX2                !
 ! A40   A(15,16,39)           112.4235         estimate D2E/DX2                !
 ! A41   A(17,16,39)           115.0007         estimate D2E/DX2                !
 ! A42   A(16,17,18)           101.2174         estimate D2E/DX2                !
 ! A43   A(16,17,40)           115.0542         estimate D2E/DX2                !
 ! A44   A(18,17,40)           111.6595         estimate D2E/DX2                !
 ! A45   A(17,18,19)           133.9018         estimate D2E/DX2                !
 ! A46   A(17,18,23)            97.5307         estimate D2E/DX2                !
 ! A47   A(19,18,23)           122.9126         estimate D2E/DX2                !
 ! A48   A(18,19,20)           123.5145         estimate D2E/DX2                !
 ! A49   A(18,19,41)           116.3146         estimate D2E/DX2                !
 ! A50   A(20,19,41)           116.4639         estimate D2E/DX2                !
 ! A51   A(19,20,21)           109.2524         estimate D2E/DX2                !
 ! A52   A(19,20,42)           126.5824         estimate D2E/DX2                !
 ! A53   A(21,20,42)           124.1598         estimate D2E/DX2                !
 ! A54   A(20,21,22)           108.5166         estimate D2E/DX2                !
 ! A55   A(20,21,43)           114.5838         estimate D2E/DX2                !
 ! A56   A(22,21,43)           135.7373         estimate D2E/DX2                !
 ! A57   A(21,22,44)            92.0204         estimate D2E/DX2                !
 ! A58   A(15,24,25)            77.3829         estimate D2E/DX2                !
 ! A59   A(4,25,12)             84.1458         estimate D2E/DX2                !
 ! A60   A(4,25,24)            151.4709         estimate D2E/DX2                !
 ! A61   A(12,25,24)           124.0596         estimate D2E/DX2                !
 ! A62   A(8,26,27)            124.5857         estimate D2E/DX2                !
 ! A63   A(8,26,34)            122.7126         estimate D2E/DX2                !
 ! A64   A(27,26,34)           112.7015         estimate D2E/DX2                !
 ! A65   A(26,27,28)           128.0728         estimate D2E/DX2                !
 ! A66   A(26,27,45)           119.6864         estimate D2E/DX2                !
 ! A67   A(28,27,45)           112.2407         estimate D2E/DX2                !
 ! A68   A(27,28,29)           120.3319         estimate D2E/DX2                !
 ! A69   A(28,29,30)           118.2829         estimate D2E/DX2                !
 ! A70   A(28,29,46)           117.9694         estimate D2E/DX2                !
 ! A71   A(30,29,46)           123.7476         estimate D2E/DX2                !
 ! A72   A(29,30,31)           126.6229         estimate D2E/DX2                !
 ! A73   A(29,30,34)           120.0125         estimate D2E/DX2                !
 ! A74   A(31,30,34)           113.3645         estimate D2E/DX2                !
 ! A75   A(30,31,32)           106.5559         estimate D2E/DX2                !
 ! A76   A(31,32,33)           100.7526         estimate D2E/DX2                !
 ! A77   A(32,33,34)           106.7417         estimate D2E/DX2                !
 ! A78   A(26,34,30)           120.5949         estimate D2E/DX2                !
 ! A79   A(26,34,33)           126.8198         estimate D2E/DX2                !
 ! A80   A(30,34,33)           112.5852         estimate D2E/DX2                !
 ! D1    D(5,1,2,3)             -0.0515         estimate D2E/DX2                !
 ! D2    D(35,1,2,3)           179.6285         estimate D2E/DX2                !
 ! D3    D(2,1,5,4)             -6.2657         estimate D2E/DX2                !
 ! D4    D(2,1,5,6)            174.6444         estimate D2E/DX2                !
 ! D5    D(35,1,5,4)           174.1255         estimate D2E/DX2                !
 ! D6    D(35,1,5,6)            -4.9644         estimate D2E/DX2                !
 ! D7    D(1,2,3,4)              7.1598         estimate D2E/DX2                !
 ! D8    D(1,2,3,36)          -174.8934         estimate D2E/DX2                !
 ! D9    D(2,3,4,5)             -9.4103         estimate D2E/DX2                !
 ! D10   D(2,3,4,25)           178.5213         estimate D2E/DX2                !
 ! D11   D(36,3,4,5)           173.3364         estimate D2E/DX2                !
 ! D12   D(36,3,4,25)            1.268          estimate D2E/DX2                !
 ! D13   D(3,4,5,1)             10.1169         estimate D2E/DX2                !
 ! D14   D(3,4,5,6)           -170.8627         estimate D2E/DX2                !
 ! D15   D(25,4,5,1)          -178.1844         estimate D2E/DX2                !
 ! D16   D(25,4,5,6)             0.8361         estimate D2E/DX2                !
 ! D17   D(3,4,25,12)          164.2488         estimate D2E/DX2                !
 ! D18   D(3,4,25,24)           -7.7102         estimate D2E/DX2                !
 ! D19   D(5,4,25,12)           -4.7489         estimate D2E/DX2                !
 ! D20   D(5,4,25,24)         -176.7078         estimate D2E/DX2                !
 ! D21   D(1,5,6,7)              4.2137         estimate D2E/DX2                !
 ! D22   D(1,5,6,11)          -177.2379         estimate D2E/DX2                !
 ! D23   D(4,5,6,7)           -174.8999         estimate D2E/DX2                !
 ! D24   D(4,5,6,11)             3.6486         estimate D2E/DX2                !
 ! D25   D(5,6,7,8)            178.662          estimate D2E/DX2                !
 ! D26   D(5,6,7,37)             2.5193         estimate D2E/DX2                !
 ! D27   D(11,6,7,8)             0.1798         estimate D2E/DX2                !
 ! D28   D(11,6,7,37)         -175.9629         estimate D2E/DX2                !
 ! D29   D(5,6,11,9)           177.4089         estimate D2E/DX2                !
 ! D30   D(5,6,11,12)           -3.1981         estimate D2E/DX2                !
 ! D31   D(7,6,11,9)            -3.7739         estimate D2E/DX2                !
 ! D32   D(7,6,11,12)          175.619          estimate D2E/DX2                !
 ! D33   D(6,7,8,9)              3.6406         estimate D2E/DX2                !
 ! D34   D(6,7,8,26)          -175.9676         estimate D2E/DX2                !
 ! D35   D(37,7,8,9)          -179.7348         estimate D2E/DX2                !
 ! D36   D(37,7,8,26)            0.657          estimate D2E/DX2                !
 ! D37   D(7,8,9,10)          -178.9268         estimate D2E/DX2                !
 ! D38   D(7,8,9,11)            -6.5498         estimate D2E/DX2                !
 ! D39   D(26,8,9,10)            0.7032         estimate D2E/DX2                !
 ! D40   D(26,8,9,11)          173.0802         estimate D2E/DX2                !
 ! D41   D(7,8,26,27)           -0.7311         estimate D2E/DX2                !
 ! D42   D(7,8,26,34)          179.0683         estimate D2E/DX2                !
 ! D43   D(9,8,26,27)          179.7281         estimate D2E/DX2                !
 ! D44   D(9,8,26,34)           -0.4726         estimate D2E/DX2                !
 ! D45   D(8,9,11,6)             6.2066         estimate D2E/DX2                !
 ! D46   D(8,9,11,12)         -173.0829         estimate D2E/DX2                !
 ! D47   D(10,9,11,6)          178.0516         estimate D2E/DX2                !
 ! D48   D(10,9,11,12)          -1.2378         estimate D2E/DX2                !
 ! D49   D(6,11,12,13)         168.258          estimate D2E/DX2                !
 ! D50   D(6,11,12,25)          -3.8358         estimate D2E/DX2                !
 ! D51   D(9,11,12,13)         -12.6015         estimate D2E/DX2                !
 ! D52   D(9,11,12,25)         175.3047         estimate D2E/DX2                !
 ! D53   D(11,12,13,14)       -158.205          estimate D2E/DX2                !
 ! D54   D(11,12,13,38)         12.2384         estimate D2E/DX2                !
 ! D55   D(25,12,13,14)         16.8784         estimate D2E/DX2                !
 ! D56   D(25,12,13,38)       -172.6782         estimate D2E/DX2                !
 ! D57   D(11,12,25,4)           6.6817         estimate D2E/DX2                !
 ! D58   D(11,12,25,24)       -177.9437         estimate D2E/DX2                !
 ! D59   D(13,12,25,4)        -165.2832         estimate D2E/DX2                !
 ! D60   D(13,12,25,24)         10.0913         estimate D2E/DX2                !
 ! D61   D(12,13,14,15)         -1.1257         estimate D2E/DX2                !
 ! D62   D(38,13,14,15)       -172.2197         estimate D2E/DX2                !
 ! D63   D(13,14,15,16)        136.0212         estimate D2E/DX2                !
 ! D64   D(13,14,15,24)        -70.3645         estimate D2E/DX2                !
 ! D65   D(14,15,16,17)         63.0237         estimate D2E/DX2                !
 ! D66   D(14,15,16,39)       -173.1638         estimate D2E/DX2                !
 ! D67   D(24,15,16,17)        -95.0718         estimate D2E/DX2                !
 ! D68   D(24,15,16,39)         28.7407         estimate D2E/DX2                !
 ! D69   D(14,15,24,25)         76.6285         estimate D2E/DX2                !
 ! D70   D(16,15,24,25)       -121.5001         estimate D2E/DX2                !
 ! D71   D(15,16,17,18)        102.2004         estimate D2E/DX2                !
 ! D72   D(15,16,17,40)        -18.3347         estimate D2E/DX2                !
 ! D73   D(39,16,17,18)        -19.8647         estimate D2E/DX2                !
 ! D74   D(39,16,17,40)       -140.3999         estimate D2E/DX2                !
 ! D75   D(16,17,18,19)         74.5382         estimate D2E/DX2                !
 ! D76   D(16,17,18,23)        -78.072          estimate D2E/DX2                !
 ! D77   D(40,17,18,19)       -162.5546         estimate D2E/DX2                !
 ! D78   D(40,17,18,23)         44.8352         estimate D2E/DX2                !
 ! D79   D(17,18,19,20)        139.9701         estimate D2E/DX2                !
 ! D80   D(17,18,19,41)        -62.5416         estimate D2E/DX2                !
 ! D81   D(23,18,19,20)        -72.9363         estimate D2E/DX2                !
 ! D82   D(23,18,19,41)         84.552          estimate D2E/DX2                !
 ! D83   D(18,19,20,21)         -5.2023         estimate D2E/DX2                !
 ! D84   D(18,19,20,42)        173.971          estimate D2E/DX2                !
 ! D85   D(41,19,20,21)       -162.6598         estimate D2E/DX2                !
 ! D86   D(41,19,20,42)         16.5134         estimate D2E/DX2                !
 ! D87   D(19,20,21,22)         24.7269         estimate D2E/DX2                !
 ! D88   D(19,20,21,43)       -144.9305         estimate D2E/DX2                !
 ! D89   D(42,20,21,22)       -154.4708         estimate D2E/DX2                !
 ! D90   D(42,20,21,43)         35.8718         estimate D2E/DX2                !
 ! D91   D(20,21,22,44)       -131.7941         estimate D2E/DX2                !
 ! D92   D(43,21,22,44)         34.6784         estimate D2E/DX2                !
 ! D93   D(15,24,25,4)         123.1197         estimate D2E/DX2                !
 ! D94   D(15,24,25,12)        -47.2106         estimate D2E/DX2                !
 ! D95   D(8,26,27,28)        -179.5194         estimate D2E/DX2                !
 ! D96   D(8,26,27,45)           0.3618         estimate D2E/DX2                !
 ! D97   D(34,26,27,28)          0.6637         estimate D2E/DX2                !
 ! D98   D(34,26,27,45)       -179.4552         estimate D2E/DX2                !
 ! D99   D(8,26,34,30)         179.6091         estimate D2E/DX2                !
 ! D100  D(8,26,34,33)          -0.2797         estimate D2E/DX2                !
 ! D101  D(27,26,34,30)         -0.57           estimate D2E/DX2                !
 ! D102  D(27,26,34,33)        179.5412         estimate D2E/DX2                !
 ! D103  D(26,27,28,29)         -0.2668         estimate D2E/DX2                !
 ! D104  D(45,27,28,29)        179.8448         estimate D2E/DX2                !
 ! D105  D(27,28,29,30)         -0.2378         estimate D2E/DX2                !
 ! D106  D(27,28,29,46)        179.8774         estimate D2E/DX2                !
 ! D107  D(28,29,30,31)       -179.8155         estimate D2E/DX2                !
 ! D108  D(28,29,30,34)          0.2741         estimate D2E/DX2                !
 ! D109  D(46,29,30,31)          0.0622         estimate D2E/DX2                !
 ! D110  D(46,29,30,34)       -179.8482         estimate D2E/DX2                !
 ! D111  D(29,30,31,32)        179.9937         estimate D2E/DX2                !
 ! D112  D(34,30,31,32)         -0.0909         estimate D2E/DX2                !
 ! D113  D(29,30,34,26)          0.158          estimate D2E/DX2                !
 ! D114  D(29,30,34,33)       -179.9384         estimate D2E/DX2                !
 ! D115  D(31,30,34,26)       -179.7636         estimate D2E/DX2                !
 ! D116  D(31,30,34,33)          0.14           estimate D2E/DX2                !
 ! D117  D(30,31,32,33)          0.0242         estimate D2E/DX2                !
 ! D118  D(31,32,33,34)          0.0551         estimate D2E/DX2                !
 ! D119  D(32,33,34,26)        179.7849         estimate D2E/DX2                !
 ! D120  D(32,33,34,30)         -0.1114         estimate D2E/DX2                !
 --------------------------------------------------------------------------------
 Trust Radius=3.00D-01 FncErr=1.00D-07 GrdErr=1.00D-06
 Number of steps in this run=    261 maximum allowed number of steps=    276.
 GradGradGradGradGradGradGradGradGradGradGradGradGradGradGradGradGradGrad

                          Input orientation:                          
 ---------------------------------------------------------------------
 Center     Atomic      Atomic             Coordinates (Angstroms)
 Number     Number       Type             X           Y           Z
 ---------------------------------------------------------------------
      1          6           0        2.324720   -1.260260   -0.037800
      2         16           0        2.030910   -2.925320    0.002840
      3          6           0        0.253280   -2.749590   -0.129230
      4          6           0       -0.323600   -1.493740   -0.367260
      5          6           0        1.076400   -0.665530   -0.149130
      6          6           0        1.104890    0.722660   -0.079510
      7          6           0        2.162430    1.670320    0.007390
      8          6           0        1.521810    2.893890    0.012180
      9          7           0        0.144300    2.608610    0.015370
     10          1           0       -0.523570    3.365390    0.002680
     11          6           0       -0.162350    1.230400   -0.134990
     12          6           0       -1.473480    0.381760   -0.331450
     13          6           0       -2.506910    1.209760   -0.069000
     14          7           0       -3.716290    0.732800    0.277990
     15          6           0       -3.848440   -0.630170    0.327070
     16          6           0       -4.414930   -1.528000    1.177770
     17          6           0       -5.705210   -1.194570    1.119290
     18          6           0       -6.192200   -2.164620    0.300760
     19          6           0       -6.492360   -3.614000    0.479930
     20          6           0       -7.611120   -4.239190   -0.060730
     21          6           0       -8.398820   -3.312630   -0.647760
     22          6           0       -7.540030   -2.127520   -1.035700
     23          6           0       -5.777480   -1.665300   -0.819560
     24          6           0       -3.847590   -1.435330   -0.788910
     25          6           0       -2.002440   -1.015470   -0.577560
     26          6           0        2.099490    4.244250    0.006060
     27          6           0        3.478230    4.522890    0.008390
     28          7           0        4.094900    5.751820    0.012160
     29          6           0        3.351840    6.895150    0.008620
     30          6           0        1.947520    6.778770   -0.004090
     31          7           0        1.060390    7.786480   -0.012730
     32         16           0       -0.445210    7.090630   -0.026210
     33          7           0       -0.042220    5.480400   -0.021030
     34          6           0        1.304590    5.417120   -0.007130
     35          1           0        3.365390   -0.883700    0.028100
     36          1           0       -0.138620   -3.736510   -0.028740
     37          1           0        3.251990    1.569090    0.008320
     38          1           0       -2.386330    2.280260    0.025170
     39          1           0       -4.179190   -2.621320    0.885950
     40          1           0       -5.918250   -0.142960    0.704860
     41          1           0       -5.650120   -4.253190    0.719090
     42          1           0       -7.831760   -5.302530   -0.040020
     43          1           0       -9.503290   -3.514440   -0.561910
     44          1           0       -8.345200   -1.321540   -0.527590
     45          1           0        4.195430    3.701090    0.009180
     46          1           0        3.876020    7.840440    0.013830
 ---------------------------------------------------------------------
                    Distance matrix (angstroms):
                    1          2          3          4          5
     1  C    0.000000
     2  S    1.691272   0.000000
     3  C    2.552906   1.791171   0.000000
     4  C    2.678928   2.780308   1.402358   0.000000
     5  C    1.387228   2.457811   2.240810   1.641192   0.000000
     6  C    2.328454   3.764579   3.575504   2.652511   1.390227
     7  C    2.935418   4.597524   4.816547   4.041285   2.580728
     8  C    4.231327   5.841445   5.786020   4.775019   3.590805
     9  N    4.441308   5.846694   5.361259   4.146639   3.408205
    10  H    5.432406   6.789580   6.165539   4.877293   4.339501
    11  C    3.521129   4.700999   4.001637   2.738775   2.264785
    12  C    4.148347   4.830039   3.581612   2.200229   2.762597
    13  C    5.426474   6.139695   4.826876   3.487795   4.045151
    14  N    6.369130   6.818200   5.296259   4.109036   5.010752
    15  C    6.215951   6.319778   4.639424   3.694908   4.947936
    16  C    6.853625   6.699389   4.999272   4.373474   5.714825
    17  C    8.113134   8.005592   6.283350   5.591159   6.919466
    18  C    8.571489   8.263592   6.486239   5.944476   7.435201
    19  C    9.140516   8.564346   6.828026   6.577753   8.147105
    20  C   10.372823   9.731343   8.004523   7.793549   9.394246
    21  C   10.935199  10.457177   8.685892   8.282283   9.850663
    22  C    9.952951   9.660121   7.870473   7.274981   8.784434
    23  C    8.149899   7.952040   6.166223   5.475291   6.958785
    24  C    6.220308   6.115856   4.356557   3.549606   5.024698
    25  C    4.367560   4.500256   2.880355   1.758258   3.128141
    26  C    5.509291   7.169899   7.234680   6.239813   5.017643
    27  C    5.897249   7.587529   7.956645   7.127051   5.719554
    28  N    7.232240   8.919243   9.330167   8.495013   7.093641
    29  C    8.219966   9.908911  10.131194   9.166440   7.897240
    30  C    8.047945   9.704451   9.678624   8.586286   7.496498
    31  N    9.134696  10.755687  10.567581   9.389548   8.453126
    32  S    8.798296  10.317522   9.865517   8.592003   7.904962
    33  N    7.144171   8.657631   8.236004   6.988396   6.248214
    34  C    6.754925   8.374004   8.235005   7.109197   6.088585
    35  H    1.108663   2.439198   3.632014   3.759934   2.306184
    36  H    3.492841   2.316438   1.066628   2.275704   3.304797
    37  H    2.977781   4.657337   5.259485   4.723011   3.122741
    38  H    5.893491   6.827193   5.682497   4.318788   4.549567
    39  H    6.708699   6.279940   4.549048   4.208034   5.702432
    40  H    8.351434   8.451243   6.751149   5.854413   7.065940
    41  H    8.551525   7.827801   6.150658   6.096436   7.672756
    42  H   10.931333  10.145207   8.478994   8.425345  10.043355
    43  H   12.052296  11.563035   9.796064   9.401480  10.964329
    44  H   10.681331  10.512713   8.725358   8.025050   9.451991
    45  H    5.302524   6.970975   7.561149   6.895622   5.368499
    46  H    9.232114  10.922735  11.193456  10.242507   8.956336
                    6          7          8          9         10
     6  C    0.000000
     7  C    1.422674   0.000000
     8  C    2.212797   1.381137   0.000000
     9  N    2.118618   2.225601   1.406744   0.000000
    10  H    3.105263   3.176142   2.099043   1.009419   0.000000
    11  C    1.366300   2.370317   2.371762   1.419896   2.169704
    12  C    2.612983   3.872343   3.924365   2.774231   3.148971
    13  C    3.644513   4.692620   4.367318   2.998802   2.930105
    14  N    4.834427   5.959154   5.672623   4.300208   4.147263
    15  C    5.150819   6.443990   6.430998   5.150614   5.208118
    16  C    6.092178   7.406801   7.493770   6.264926   6.361508
    17  C    7.175678   8.446519   8.376814   7.063964   6.992099
    18  C    7.856750   9.197428   9.229179   7.938287   7.924849
    19  C    8.765717  10.151489  10.334328   9.109443   9.195983
    20  C   10.029414  11.421437  11.588639  10.346241  10.395529
    21  C   10.340550  11.696111  11.720721  10.415648  10.345945
    22  C    9.152730  10.471359  10.412951   9.087607   8.971121
    23  C    7.322366   8.651727   8.646250   7.350571   7.320348
    24  C    5.448599   6.811718   6.943655   5.738946   5.892592
    25  C    3.595087   4.990168   5.296341   4.253706   4.660007
    26  C    3.660348   2.574700   1.468749   2.549151   2.766379
    27  C    4.481319   3.141415   2.545827   3.844425   4.165842
    28  N    5.851582   4.515873   3.845589   5.048467   5.198596
    29  C    6.569337   5.358502   4.399898   5.353763   5.241950
    30  C    6.114915   5.112981   3.908169   4.543370   4.213964
    31  N    7.064276   6.214685   4.914363   5.258360   4.696297
    32  S    6.554136   6.015037   4.635005   4.520813   3.726176
    33  N    4.894422   4.402045   3.022801   2.878071   2.169223
    34  C    4.699263   3.843776   2.532636   3.038833   2.748065
    35  H    2.775218   2.823218   4.203478   4.750980   5.760158
    36  H    4.629589   5.876219   6.835269   6.351578   7.112395
    37  H    2.309588   1.094253   2.179136   3.276948   4.181098
    38  H    3.824355   4.589505   3.956042   2.551862   2.155896
    39  H    6.327386   7.707541   7.980126   6.841246   7.069966
    40  H    7.119623   8.310947   8.065777   6.693358   6.473341
    41  H    8.427752   9.830078  10.149732   9.008597   9.210728
    42  H   10.778135  12.186333  12.436772  11.234177  11.337738
    43  H   11.433250  12.778688  12.765152  11.441197  11.326350
    44  H    9.679036  10.938360  10.743328   9.370832   9.133805
    45  H    4.293058   2.873520   2.792817   4.195856   4.730930
    46  H    7.638761   6.403656   5.478199   6.426335   6.275555
                   11         12         13         14         15
    11  C    0.000000
    12  C    1.574118   0.000000
    13  C    2.345579   1.349978   0.000000
    14  N    3.612291   2.350498   1.345546   0.000000
    15  C    4.154814   2.664223   2.311259   1.370241   0.000000
    16  C    5.236081   3.817991   3.562346   2.531584   1.360404
    17  C    6.178753   4.743100   4.173962   2.894537   2.096129
    18  C    6.933623   5.399079   5.010442   3.811259   2.801507
    19  C    7.994709   6.466343   6.281226   5.161590   3.989602
    20  C    9.241542   7.687463   7.466196   6.324960   5.228114
    21  C    9.420270   7.855501   7.449938   6.256885   5.371391
    22  C    8.155800   6.602688   6.115901   4.952595   4.210349
    23  C    6.354793   4.790942   4.418816   3.347238   2.471326
    24  C    4.595076   3.024481   3.051589   2.419980   1.376116
    25  C    2.936960   1.514140   2.337685   2.593395   2.091537
    26  C    3.770823   5.272462   5.516583   6.799083   7.696810
    27  C    4.910689   6.464045   6.841398   8.136251   8.963017
    28  N    6.212010   7.743544   8.013788   9.288483  10.194391
    29  C    6.667799   8.113175   8.164229   9.381129  10.419975
    30  C    5.937432   7.261690   7.131622   8.289274   9.412503
    31  N    6.670249   7.832749   7.482115   8.523825   9.749465
    32  S    5.868061   6.794074   6.231939   7.156431   8.444971
    33  N    4.253224   5.304809   4.931061   6.010650   7.207465
    34  C    4.438117   5.760009   5.677432   6.872655   7.952052
    35  H    4.115941   5.014512   6.235055   7.268130   7.224473
    36  H    4.968103   4.339773   5.484159   5.733109   4.851671
    37  H    3.434089   4.884185   5.770617   7.023463   7.440057
    38  H    2.464537   2.136533   1.081378   2.056051   3.271011
    39  H    5.658009   4.221542   4.287846   3.440060   2.094378
    40  H    5.976776   4.594045   3.750460   2.407862   2.159679
    41  H    7.804795   6.326983   6.351746   5.366038   4.065219
    42  H   10.075120   8.533687   8.412181   7.311869   6.150816
    43  H   10.485653   8.928120   8.456380   7.227299   6.409885
    44  H    8.580534   7.082389   6.379923   5.127970   4.629178
    45  H    5.011521   6.578033   7.150818   8.454485   9.141374
    46  H    7.747465   9.185221   9.204052  10.403437  11.468070
                   16         17         18         19         20
    16  C    0.000000
    17  C    1.333948   0.000000
    18  C    2.081615   1.359466   0.000000
    19  C    3.025573   2.623362   1.490939   0.000000
    20  C    4.370362   3.780827   2.539262   1.390971   0.000000
    21  C    4.731685   3.855409   2.662102   2.235419   1.350403
    22  C    3.876225   2.980091   1.898459   2.367355   2.326966
    23  C    2.421719   1.996484   1.294770   2.448910   3.250072
    24  C    2.048974   2.673938   2.686343   3.653952   4.749319
    25  C    3.027206   4.076994   4.432390   5.294339   6.489744
    26  C    8.782337   9.577755  10.483920  11.653177  12.894540
    27  C   10.014125  10.874696  11.761186  12.878043  14.133383
    28  N   11.259291  12.063176  12.983749  14.143107  15.390143
    29  C   11.516904  12.194561  13.162579  14.407381  15.625774
    30  C   10.529957  11.108574  12.096785  13.396847  14.586509
    31  N   10.869957  11.301065  12.317578  13.684213  14.826130
    32  S    9.564990   9.880501  10.899287  12.305011  13.405830
    33  N    8.347178   8.827514   9.816931  11.160796  12.319101
    34  C    9.074778   9.701575  10.666744  11.941138  13.142948
    35  H    7.891150   9.141287   9.646897  10.238844  11.478283
    36  H    4.961856   6.226263   6.263006   6.375246   7.489457
    37  H    8.351122   9.439465  10.159667  11.047135  12.318606
    38  H    4.466156   4.928134   5.858119   7.197818   8.355180
    39  H    1.155890   2.102094   2.145514   2.549710   3.910479
    40  H    2.098083   1.150227   2.079773   3.525381   4.497893
    41  H    3.027002   3.085183   2.197948   1.084034   2.110411
    42  H    5.234961   4.768810   3.556792   2.217087   1.086187
    43  H    5.732699   4.757483   3.678251   3.187639   2.087283
    44  H    4.289277   3.114142   2.456086   3.115042   3.044588
    45  H   10.141365  11.100563  11.932914  12.959977  14.228407
    46  H   12.564326  13.215650  14.196922  15.457191  16.669655
                   21         22         23         24         25
    21  C    0.000000
    22  C    1.514102   0.000000
    23  C    3.100747   1.834924   0.000000
    24  C    4.925228   3.764857   1.943785   0.000000
    25  C    6.796731   5.666697   3.838199   1.904082   0.000000
    26  C   12.951773  11.601942   9.881856   8.261802   6.695603
    27  C   14.243954  12.912015  11.164558   9.476482   7.813739
    28  N   15.449686  14.090905  12.376159  10.741508   9.128063
    29  C   15.579076  14.182102  12.542395  11.039237   9.570258
    30  C   14.467115  13.053728  11.473575  10.083188   8.756782
    31  N   14.596923  13.164387  11.693741  10.475328   9.336717
    32  S   13.110075  11.676037  10.282452   9.211400   8.272715
    33  N   12.146725  10.729732   9.197385   7.930813   6.807974
    34  C   13.068095  11.670769  10.048703   8.608845   7.255346
    35  H   12.031339  11.027554   9.215286   7.280033   5.403498
    36  H    8.294201   7.640922   6.059047   4.430547   3.343514
    37  H   12.649229  11.455243   9.626941   7.750236   5.884916
    38  H    8.239132   6.864007   5.270760   4.074753   3.372312
    39  H    4.542626   3.902797   2.525326   2.078867   3.075525
    40  H    4.246130   3.098096   2.158979   2.861678   4.211822
    41  H    3.210652   3.342083   3.013443   3.669266   5.046752
    42  H    2.156527   3.340236   4.249375   5.602650   7.255950
    43  H    1.126034   2.449982   4.167417   6.030022   7.906190
    44  H    1.995434   1.247429   2.607030   4.506632   6.350337
    45  H   14.430488  13.144789  11.355346   9.576530   7.810493
    46  H   16.598204  15.191706  13.573640  12.097043  10.645806
                   26         27         28         29         30
    26  C    0.000000
    27  C    1.406616   0.000000
    28  N    2.500893   1.374978   0.000000
    29  C    2.931835   2.375625   1.363581   0.000000
    30  C    2.539092   2.726210   2.380364   1.409191   0.000000
    31  N    3.691541   4.061701   3.653589   2.458794   1.342592
    32  S    3.818170   4.689122   4.733549   3.802238   2.413069
    33  N    2.472999   3.648460   4.146147   3.677233   2.375945
    34  C    1.416921   2.350447   2.810378   2.525085   1.505808
    35  H    5.281937   5.407803   6.675520   7.778886   7.792614
    36  H    8.288720   9.016688  10.390032  11.190036  10.720247
    37  H    2.912858   2.962452   4.266819   5.326996   5.370527
    38  H    4.896959   6.278753   7.352431   7.363700   6.246575
    39  H    9.345163  10.509326  11.803963  12.167552  11.255685
    40  H    9.166247  10.514231  11.640079  11.659945  10.501585
    41  H   11.522645  12.682722  13.984470  14.346621  13.414591
    42  H   13.775807  14.981892  16.261814  16.548676  15.543276
    43  H   13.969408  15.278867  16.465233  16.551116  15.407219
    44  H   11.847124  13.199929  14.320609  14.304624  13.108362
    45  H    2.165178   1.090748   2.053195   3.303583   3.811219
    46  H    4.011072   3.341318   2.100058   1.080909   2.201494
                   31         32         33         34         35
    31  N    0.000000
    32  S    1.658680   0.000000
    33  N    2.556134   1.659900   0.000000
    34  C    2.381918   2.421322   1.348367   0.000000
    35  H    8.971439   8.838188   7.219140   6.629364   0.000000
    36  H   11.585214  10.831480   9.217417   9.266729   4.518832
    37  H    6.592381   6.645140   5.113807   4.312765   2.455490
    38  H    6.496135   5.187509   3.967100   4.843947   6.564521
    39  H   11.686878  10.444933   9.141936   9.771691   7.789475
    40  H   10.587368   9.100190   8.165588   9.142802   9.337702
    41  H   13.802904  12.503152  11.257846  11.933578   9.649370
    42  H   15.823819  14.427464  13.302213  14.084916  12.037727
    43  H   15.479138  13.957195  13.065663  14.031779  13.148073
    44  H   13.102909  11.551010  10.745346  11.781293  11.731940
    45  H    5.149696   5.746806   4.596143   3.361842   4.659359
    46  H    2.816272   4.385983   4.574233   3.533436   8.739083
                   36         37         38         39         40
    36  H    0.000000
    37  H    6.296586   0.000000
    38  H    6.423132   5.683018   0.000000
    39  H    4.290281   8.576258   5.289686   0.000000
    40  H    6.845136   9.354656   4.336869   3.033050   0.000000
    41  H    5.585950  10.660755   7.336199   2.203288   4.118991
    42  H    7.850920  13.041128   9.335720   4.624670   5.553155
    43  H    9.382464  13.742802   9.196430   5.589276   5.081741
    44  H    8.569066  11.964019   6.984743   4.587283   2.966154
    45  H    8.608329   2.331417   6.733393  10.529760  10.841919
    46  H   12.253364   6.302323   8.374530  13.232363  12.654640
                   41         42         43         44         45
    41  H    0.000000
    42  H    2.537108   0.000000
    43  H    4.127182   2.502728   0.000000
    44  H    4.172797   4.043467   2.480153   0.000000
    45  H   12.677121  15.024011  15.493384  13.519702   0.000000
    46  H   15.411055  17.601496  17.557640  15.283757   4.151658
                   46
    46  H    0.000000
 Stoichiometry    C26H13N5S2
 Framework group  C1[X(C26H13N5S2)]
 Deg. of freedom   132
 Full point group                 C1      NOp   1
 Largest Abelian subgroup         C1      NOp   1
 Largest concise Abelian subgroup C1      NOp   1
                         Standard orientation:                         
 ---------------------------------------------------------------------
 Center     Atomic      Atomic             Coordinates (Angstroms)
 Number     Number       Type             X           Y           Z
 ---------------------------------------------------------------------
      1          6           0       -0.636084    4.143128    0.003325
      2         16           0        0.779849    5.066718    0.053460
      3          6           0        1.867351    3.649437   -0.076708
      4          6           0        1.346251    2.370542   -0.320615
      5          6           0       -0.216319    2.825732   -0.109224
      6          6           0       -1.249367    1.897459   -0.047174
      7          6           0       -2.664371    2.021370    0.032892
      8          6           0       -3.119568    0.717401    0.032079
      9          7           0       -1.969766   -0.093053    0.039025
     10          1           0       -2.065543   -1.097796    0.023305
     11          6           0       -0.753458    0.625574   -0.103371
     12          6           0        0.763167    0.249159   -0.293125
     13          6           0        0.863895   -1.071786   -0.033509
     14          7           0        2.036940   -1.629370    0.318001
     15          6           0        3.121837   -0.794298    0.374679
     16          6           0        4.160077   -0.596227    1.231140
     17          6           0        4.798976   -1.765772    1.172925
     18          6           0        5.844020   -1.456079    0.360446
     19          6           0        7.106172   -0.684902    0.547950
     20          6           0        8.329950   -1.072772    0.012482
     21          6           0        8.195064   -2.279576   -0.578296
     22          6           0        6.745002   -2.461838   -0.974031
     23          6           0        5.201752   -1.491844   -0.763227
     24          6           0        3.714570   -0.240486   -0.736921
     25          6           0        2.145801    0.818765   -0.530810
     26          6           0       -4.500020    0.216032    0.017713
     27          6           0       -5.645844    1.031909    0.016321
     28          7           0       -6.964367    0.641978    0.012441
     29          6           0       -7.290933   -0.681894    0.003897
     30          6           0       -6.246002   -1.627327   -0.005929
     31          7           0       -6.375076   -2.963641   -0.018607
     32         16           0       -4.837964   -3.586902   -0.025900
     33          7           0       -3.938168   -2.192105   -0.012639
     34          6           0       -4.812662   -1.165845   -0.000558
     35          1           0       -1.622613    4.645152    0.065513
     36          1           0        2.855066    4.037739    0.029758
     37          1           0       -3.335258    2.885836    0.032622
     38          1           0       -0.000347   -1.715749    0.054665
     39          1           0        4.798411    0.323915    0.944872
     40          1           0        4.179137   -2.639045    0.753144
     41          1           0        6.995788    0.366161    0.789219
     42          1           0        9.256781   -0.507028    0.039309
     43          1           0        9.096888   -2.948002   -0.489582
     44          1           0        6.704534   -3.601745   -0.469005
     45          1           0       -5.536269    2.117132    0.020414
     46          1           0       -8.339217   -0.945457    0.003143
 ---------------------------------------------------------------------
 Rotational constants (GHZ):      0.1936829      0.0530459      0.0422020
 Standard basis: 6-31++G(d,p) (6D, 7F)
 There are   713 symmetry adapted basis functions of A   symmetry.
 Integral buffers will be    131072 words long.
 Raffenetti 2 integral format.
 Two-electron integral symmetry is turned on.
   713 basis functions,  1208 primitive gaussians,   713 cartesian basis functions
   118 alpha electrons      118 beta electrons
       nuclear repulsion energy      3145.2322972756 Hartrees.
 NAtoms=   46 NActive=   46 NUniq=   46 SFac= 1.00D+00 NAtFMM=   60 NAOKFM=F Big=F
 One-electron integrals computed using PRISM.
 NBasis=   713 RedAO= T  NBF=   713
 NBsUse=   704 1.00D-06 NBFU=   704
 Harris functional with IExCor=  402 diagonalized for initial guess.
 ExpMin= 3.60D-02 ExpMax= 2.19D+04 ExpMxC= 3.30D+03 IAcc=3 IRadAn=         5 AccDes= 0.00D+00
 HarFok:  IExCor=  402 AccDes= 0.00D+00 IRadAn=         5 IDoV= 1
 ScaDFX=  1.000000  1.000000  1.000000  1.000000
 FoFCou: FMM=F IPFlag=           0 FMFlag=      100000 FMFlg1=           0
         NFxFlg=           0 DoJE=T BraDBF=F KetDBF=T FulRan=T
         Omega=  0.000000  0.000000  1.000000  0.000000  0.000000 ICntrl=     500 IOpCl=  0
         NMat0=    1 NMatS0=    1 NMatT0=    0 NMatD0=    1 NMtDS0=    0 NMtDT0=    0
         I1Cent=           4 NGrid=           0.
 Petite list used in FoFCou.
 Initial guess orbital symmetries:
       Occupied  (A) (A) (A) (A) (A) (A) (A) (A) (A) (A) (A) (A)
                 (A) (A) (A) (A) (A) (A) (A) (A) (A) (A) (A) (A)
                 (A) (A) (A) (A) (A) (A) (A) (A) (A) (A) (A) (A)
                 (A) (A) (A) (A) (A) (A) (A) (A) (A) (A) (A) (A)
                 (A) (A) (A) (A) (A) (A) (A) (A) (A) (A) (A) (A)
                 (A) (A) (A) (A) (A) (A) (A) (A) (A) (A) (A) (A)
                 (A) (A) (A) (A) (A) (A) (A) (A) (A) (A) (A) (A)
                 (A) (A) (A) (A) (A) (A) (A) (A) (A) (A) (A) (A)
                 (A) (A) (A) (A) (A) (A) (A) (A) (A) (A) (A) (A)
                 (A) (A) (A) (A) (A) (A) (A) (A) (A) (A)
       Virtual   (A) (A) (A) (A) (A) (A) (A) (A) (A) (A) (A) (A)
                 (A) (A) (A) (A) (A) (A) (A) (A) (A) (A) (A) (A)
                 (A) (A) (A) (A) (A) (A) (A) (A) (A) (A) (A) (A)
                 (A) (A) (A) (A) (A) (A) (A) (A) (A) (A) (A) (A)
                 (A) (A) (A) (A) (A) (A) (A) (A) (A) (A) (A) (A)
                 (A) (A) (A) (A) (A) (A) (A) (A) (A) (A) (A) (A)
                 (A) (A) (A) (A) (A) (A) (A) (A) (A) (A) (A) (A)
                 (A) (A) (A) (A) (A) (A) (A) (A) (A) (A) (A) (A)
                 (A) (A) (A) (A) (A) (A) (A) (A) (A) (A) (A) (A)
                 (A) (A) (A) (A) (A) (A) (A) (A) (A) (A) (A) (A)
                 (A) (A) (A) (A) (A) (A) (A) (A) (A) (A) (A) (A)
                 (A) (A) (A) (A) (A) (A) (A) (A) (A) (A) (A) (A)
                 (A) (A) (A) (A) (A) (A) (A) (A) (A) (A) (A) (A)
                 (A) (A) (A) (A) (A) (A) (A) (A) (A) (A) (A) (A)
                 (A) (A) (A) (A) (A) (A) (A) (A) (A) (A) (A) (A)
                 (A) (A) (A) (A) (A) (A) (A) (A) (A) (A) (A) (A)
                 (A) (A) (A) (A) (A) (A) (A) (A) (A) (A) (A) (A)
                 (A) (A) (A) (A) (A) (A) (A) (A) (A) (A) (A) (A)
                 (A) (A) (A) (A) (A) (A) (A) (A) (A) (A) (A) (A)
                 (A) (A) (A) (A) (A) (A) (A) (A) (A) (A) (A) (A)
                 (A) (A) (A) (A) (A) (A) (A) (A) (A) (A) (A) (A)
                 (A) (A) (A) (A) (A) (A) (A) (A) (A) (A) (A) (A)
                 (A) (A) (A) (A) (A) (A) (A) (A) (A) (A) (A) (A)
                 (A) (A) (A) (A) (A) (A) (A) (A) (A) (A) (A) (A)
                 (A) (A) (A) (A) (A) (A) (A) (A) (A) (A) (A) (A)
                 (A) (A) (A) (A) (A) (A) (A) (A) (A) (A) (A) (A)
                 (A) (A) (A) (A) (A) (A) (A) (A) (A) (A) (A) (A)
                 (A) (A) (A) (A) (A) (A) (A) (A) (A) (A) (A) (A)
                 (A) (A) (A) (A) (A) (A) (A) (A) (A) (A) (A) (A)
                 (A) (A) (A) (A) (A) (A) (A) (A) (A) (A) (A) (A)
                 (A) (A) (A) (A) (A) (A) (A) (A) (A) (A) (A) (A)
                 (A) (A) (A) (A) (A) (A) (A) (A) (A) (A) (A) (A)
                 (A) (A) (A) (A) (A) (A) (A) (A) (A) (A) (A) (A)
                 (A) (A) (A) (A) (A) (A) (A) (A) (A) (A) (A) (A)
                 (A) (A) (A) (A) (A) (A) (A) (A) (A) (A) (A) (A)
                 (A) (A) (A) (A) (A) (A) (A) (A) (A) (A) (A) (A)
                 (A) (A) (A) (A) (A) (A) (A) (A) (A) (A) (A) (A)
                 (A) (A) (A) (A) (A) (A) (A) (A) (A) (A) (A) (A)
                 (A) (A) (A) (A) (A) (A) (A) (A) (A) (A) (A) (A)
                 (A) (A) (A) (A) (A) (A) (A) (A) (A) (A) (A) (A)
                 (A) (A) (A) (A) (A) (A) (A) (A) (A) (A) (A) (A)
                 (A) (A) (A) (A) (A) (A) (A) (A) (A) (A) (A) (A)
                 (A) (A) (A) (A) (A) (A) (A) (A) (A) (A) (A) (A)
                 (A) (A) (A) (A) (A) (A) (A) (A) (A) (A) (A) (A)
                 (A) (A) (A) (A) (A) (A) (A) (A) (A) (A) (A) (A)
                 (A) (A) (A) (A) (A) (A) (A) (A) (A) (A) (A) (A)
                 (A) (A) (A) (A) (A) (A) (A) (A) (A) (A) (A) (A)
                 (A) (A) (A) (A) (A) (A) (A) (A) (A) (A) (A) (A)
                 (A) (A) (A) (A) (A) (A) (A) (A) (A) (A)
 The electronic state of the initial guess is 1-A.
 Requested convergence on RMS density matrix=1.00D-08 within 128 cycles.
 Requested convergence on MAX density matrix=1.00D-06.
 Requested convergence on             energy=1.00D-06.
 No special actions if energy rises.
 Rare condition: small coef for last iteration:  0.000D+00
 EnCoef did   100 forward-backward iterations
 EnCoef did   100 forward-backward iterations
 EnCoef did     7 forward-backward iterations
 EnCoef did     1 forward-backward iterations
 Restarting incremental Fock formation.
 SCF Done:  E(RB3LYP) =  -2067.79750245     A.U. after   33 cycles
             Convg  =    0.3907D-08             -V/T =  2.0070

 **********************************************************************

            Population analysis using the SCF density.

 **********************************************************************

 Orbital symmetries:
       Occupied  (A) (A) (A) (A) (A) (A) (A) (A) (A) (A) (A) (A)
                 (A) (A) (A) (A) (A) (A) (A) (A) (A) (A) (A) (A)
                 (A) (A) (A) (A) (A) (A) (A) (A) (A) (A) (A) (A)
                 (A) (A) (A) (A) (A) (A) (A) (A) (A) (A) (A) (A)
                 (A) (A) (A) (A) (A) (A) (A) (A) (A) (A) (A) (A)
                 (A) (A) (A) (A) (A) (A) (A) (A) (A) (A) (A) (A)
                 (A) (A) (A) (A) (A) (A) (A) (A) (A) (A) (A) (A)
                 (A) (A) (A) (A) (A) (A) (A) (A) (A) (A) (A) (A)
                 (A) (A) (A) (A) (A) (A) (A) (A) (A) (A) (A) (A)
                 (A) (A) (A) (A) (A) (A) (A) (A) (A) (A)
       Virtual   (A) (A) (A) (A) (A) (A) (A) (A) (A) (A) (A) (A)
                 (A) (A) (A) (A) (A) (A) (A) (A) (A) (A) (A) (A)
                 (A) (A) (A) (A) (A) (A) (A) (A) (A) (A) (A) (A)
                 (A) (A) (A) (A) (A) (A) (A) (A) (A) (A) (A) (A)
                 (A) (A) (A) (A) (A) (A) (A) (A) (A) (A) (A) (A)
                 (A) (A) (A) (A) (A) (A) (A) (A) (A) (A) (A) (A)
                 (A) (A) (A) (A) (A) (A) (A) (A) (A) (A) (A) (A)
                 (A) (A) (A) (A) (A) (A) (A) (A) (A) (A) (A) (A)
                 (A) (A) (A) (A) (A) (A) (A) (A) (A) (A) (A) (A)
                 (A) (A) (A) (A) (A) (A) (A) (A) (A) (A) (A) (A)
                 (A) (A) (A) (A) (A) (A) (A) (A) (A) (A) (A) (A)
                 (A) (A) (A) (A) (A) (A) (A) (A) (A) (A) (A) (A)
                 (A) (A) (A) (A) (A) (A) (A) (A) (A) (A) (A) (A)
                 (A) (A) (A) (A) (A) (A) (A) (A) (A) (A) (A) (A)
                 (A) (A) (A) (A) (A) (A) (A) (A) (A) (A) (A) (A)
                 (A) (A) (A) (A) (A) (A) (A) (A) (A) (A) (A) (A)
                 (A) (A) (A) (A) (A) (A) (A) (A) (A) (A) (A) (A)
                 (A) (A) (A) (A) (A) (A) (A) (A) (A) (A) (A) (A)
                 (A) (A) (A) (A) (A) (A) (A) (A) (A) (A) (A) (A)
                 (A) (A) (A) (A) (A) (A) (A) (A) (A) (A) (A) (A)
                 (A) (A) (A) (A) (A) (A) (A) (A) (A) (A) (A) (A)
                 (A) (A) (A) (A) (A) (A) (A) (A) (A) (A) (A) (A)
                 (A) (A) (A) (A) (A) (A) (A) (A) (A) (A) (A) (A)
                 (A) (A) (A) (A) (A) (A) (A) (A) (A) (A) (A) (A)
                 (A) (A) (A) (A) (A) (A) (A) (A) (A) (A) (A) (A)
                 (A) (A) (A) (A) (A) (A) (A) (A) (A) (A) (A) (A)
                 (A) (A) (A) (A) (A) (A) (A) (A) (A) (A) (A) (A)
                 (A) (A) (A) (A) (A) (A) (A) (A) (A) (A) (A) (A)
                 (A) (A) (A) (A) (A) (A) (A) (A) (A) (A) (A) (A)
                 (A) (A) (A) (A) (A) (A) (A) (A) (A) (A) (A) (A)
                 (A) (A) (A) (A) (A) (A) (A) (A) (A) (A) (A) (A)
                 (A) (A) (A) (A) (A) (A) (A) (A) (A) (A) (A) (A)
                 (A) (A) (A) (A) (A) (A) (A) (A) (A) (A) (A) (A)
                 (A) (A) (A) (A) (A) (A) (A) (A) (A) (A) (A) (A)
                 (A) (A) (A) (A) (A) (A) (A) (A) (A) (A) (A) (A)
                 (A) (A) (A) (A) (A) (A) (A) (A) (A) (A) (A) (A)
                 (A) (A) (A) (A) (A) (A) (A) (A) (A) (A) (A) (A)
                 (A) (A) (A) (A) (A) (A) (A) (A) (A) (A) (A) (A)
                 (A) (A) (A) (A) (A) (A) (A) (A) (A) (A) (A) (A)
                 (A) (A) (A) (A) (A) (A) (A) (A) (A) (A) (A) (A)
                 (A) (A) (A) (A) (A) (A) (A) (A) (A) (A) (A) (A)
                 (A) (A) (A) (A) (A) (A) (A) (A) (A) (A) (A) (A)
                 (A) (A) (A) (A) (A) (A) (A) (A) (A) (A) (A) (A)
                 (A) (A) (A) (A) (A) (A) (A) (A) (A) (A) (A) (A)
                 (A) (A) (A) (A) (A) (A) (A) (A) (A) (A) (A) (A)
                 (A) (A) (A) (A) (A) (A) (A) (A) (A) (A) (A) (A)
                 (A) (A) (A) (A) (A) (A) (A) (A) (A) (A) (A) (A)
                 (A) (A) (A) (A) (A) (A) (A) (A) (A) (A) (A) (A)
                 (A) (A) (A) (A) (A) (A) (A) (A) (A) (A)
 The electronic state is 1-A.
 Alpha  occ. eigenvalues --  -89.01159 -88.91805 -14.41289 -14.41174 -14.40449
 Alpha  occ. eigenvalues --  -14.37761 -14.35972 -10.28927 -10.28745 -10.28661
 Alpha  occ. eigenvalues --  -10.28138 -10.27504 -10.26775 -10.26637 -10.26306
 Alpha  occ. eigenvalues --  -10.26249 -10.25920 -10.25854 -10.25713 -10.25626
 Alpha  occ. eigenvalues --  -10.24866 -10.24634 -10.24359 -10.24129 -10.23459
 Alpha  occ. eigenvalues --  -10.23179 -10.23120 -10.22858 -10.22796 -10.22661
 Alpha  occ. eigenvalues --  -10.21348 -10.20909 -10.20336  -8.06409  -7.97768
 Alpha  occ. eigenvalues --   -6.02972  -6.02387  -6.02164  -5.94172  -5.93792
 Alpha  occ. eigenvalues --   -5.93514  -1.04677  -1.00327  -0.99959  -0.96083
 Alpha  occ. eigenvalues --   -0.95437  -0.92857  -0.88690  -0.88220  -0.84451
 Alpha  occ. eigenvalues --   -0.83346  -0.82146  -0.81211  -0.79981  -0.76350
 Alpha  occ. eigenvalues --   -0.75414  -0.74172  -0.71962  -0.71764  -0.69784
 Alpha  occ. eigenvalues --   -0.67209  -0.65945  -0.65316  -0.64614  -0.62387
 Alpha  occ. eigenvalues --   -0.60923  -0.60276  -0.59563  -0.57618  -0.56778
 Alpha  occ. eigenvalues --   -0.55024  -0.54693  -0.53977  -0.52886  -0.52411
 Alpha  occ. eigenvalues --   -0.51199  -0.50956  -0.49608  -0.48867  -0.48466
 Alpha  occ. eigenvalues --   -0.48401  -0.46749  -0.45415  -0.45077  -0.44595
 Alpha  occ. eigenvalues --   -0.44294  -0.43620  -0.42847  -0.42664  -0.41745
 Alpha  occ. eigenvalues --   -0.41203  -0.40847  -0.40613  -0.39736  -0.38980
 Alpha  occ. eigenvalues --   -0.38313  -0.37635  -0.37169  -0.36241  -0.35804
 Alpha  occ. eigenvalues --   -0.35563  -0.34594  -0.33732  -0.32788  -0.31997
 Alpha  occ. eigenvalues --   -0.31221  -0.30294  -0.30008  -0.29536  -0.29334
 Alpha  occ. eigenvalues --   -0.28608  -0.28191  -0.25702  -0.25029  -0.23722
 Alpha  occ. eigenvalues --   -0.22391  -0.21100  -0.19856
 Alpha virt. eigenvalues --   -0.14772  -0.13117  -0.11599  -0.06910  -0.06236
 Alpha virt. eigenvalues --   -0.05235  -0.04348  -0.03281  -0.03207  -0.02611
 Alpha virt. eigenvalues --   -0.01471  -0.01122  -0.00745  -0.00696  -0.00204
 Alpha virt. eigenvalues --    0.00142   0.00386   0.00631   0.00993   0.01240
 Alpha virt. eigenvalues --    0.01421   0.01797   0.02104   0.02619   0.02862
 Alpha virt. eigenvalues --    0.03054   0.03216   0.03448   0.03702   0.04144
 Alpha virt. eigenvalues --    0.04517   0.04863   0.05010   0.05206   0.05711
 Alpha virt. eigenvalues --    0.05811   0.05887   0.06099   0.06503   0.06672
 Alpha virt. eigenvalues --    0.06875   0.07026   0.07227   0.07700   0.07776
 Alpha virt. eigenvalues --    0.08034   0.08654   0.08748   0.08981   0.09306
 Alpha virt. eigenvalues --    0.09318   0.09695   0.09832   0.10124   0.10233
 Alpha virt. eigenvalues --    0.10388   0.10537   0.10871   0.10920   0.11459
 Alpha virt. eigenvalues --    0.11502   0.11879   0.11901   0.12110   0.12247
 Alpha virt. eigenvalues --    0.12344   0.12472   0.12654   0.12820   0.13052
 Alpha virt. eigenvalues --    0.13395   0.13455   0.13807   0.14148   0.14185
 Alpha virt. eigenvalues --    0.14417   0.14513   0.14886   0.14980   0.15367
 Alpha virt. eigenvalues --    0.15427   0.15631   0.15778   0.16106   0.16471
 Alpha virt. eigenvalues --    0.16709   0.16911   0.17150   0.17278   0.17557
 Alpha virt. eigenvalues --    0.17737   0.17971   0.18117   0.18404   0.18643
 Alpha virt. eigenvalues --    0.18760   0.18929   0.19360   0.19527   0.19800
 Alpha virt. eigenvalues --    0.19856   0.20135   0.20396   0.20430   0.20940
 Alpha virt. eigenvalues --    0.21112   0.21307   0.21565   0.21793   0.21857
 Alpha virt. eigenvalues --    0.22192   0.22338   0.22652   0.22763   0.23045
 Alpha virt. eigenvalues --    0.23097   0.23397   0.23481   0.23735   0.23855
 Alpha virt. eigenvalues --    0.24036   0.24150   0.24517   0.24696   0.24919
 Alpha virt. eigenvalues --    0.25078   0.25511   0.25705   0.25909   0.26333
 Alpha virt. eigenvalues --    0.26505   0.26765   0.26894   0.26926   0.27259
 Alpha virt. eigenvalues --    0.27448   0.27498   0.27909   0.28444   0.28536
 Alpha virt. eigenvalues --    0.28667   0.28973   0.29291   0.29335   0.29646
 Alpha virt. eigenvalues --    0.29856   0.30060   0.30458   0.30547   0.31128
 Alpha virt. eigenvalues --    0.31289   0.31403   0.31645   0.31694   0.32118
 Alpha virt. eigenvalues --    0.32397   0.32819   0.33329   0.33428   0.33478
 Alpha virt. eigenvalues --    0.34057   0.34148   0.34460   0.34620   0.34824
 Alpha virt. eigenvalues --    0.35095   0.35783   0.36027   0.36439   0.36740
 Alpha virt. eigenvalues --    0.36900   0.37225   0.37689   0.37950   0.38192
 Alpha virt. eigenvalues --    0.38818   0.39272   0.40162   0.40342   0.40836
 Alpha virt. eigenvalues --    0.41265   0.41819   0.42017   0.42632   0.42803
 Alpha virt. eigenvalues --    0.43011   0.43139   0.44040   0.44288   0.44830
 Alpha virt. eigenvalues --    0.45411   0.46385   0.46835   0.47282   0.47588
 Alpha virt. eigenvalues --    0.48613   0.48727   0.49358   0.49537   0.49816
 Alpha virt. eigenvalues --    0.50651   0.51667   0.51986   0.53303   0.54411
 Alpha virt. eigenvalues --    0.56732   0.57021   0.58334   0.60809   0.63748
 Alpha virt. eigenvalues --    0.64076   0.64159   0.64983   0.65463   0.65919
 Alpha virt. eigenvalues --    0.66185   0.66729   0.67311   0.67796   0.68702
 Alpha virt. eigenvalues --    0.69177   0.69717   0.70297   0.70498   0.70935
 Alpha virt. eigenvalues --    0.71394   0.72093   0.72259   0.72834   0.72895
 Alpha virt. eigenvalues --    0.73007   0.73464   0.74293   0.74769   0.75505
 Alpha virt. eigenvalues --    0.75883   0.76056   0.76717   0.77073   0.77500
 Alpha virt. eigenvalues --    0.77872   0.78383   0.78621   0.79237   0.79600
 Alpha virt. eigenvalues --    0.80160   0.80582   0.80596   0.81600   0.81821
 Alpha virt. eigenvalues --    0.82154   0.82425   0.83905   0.83987   0.84232
 Alpha virt. eigenvalues --    0.84691   0.85653   0.86270   0.86552   0.87283
 Alpha virt. eigenvalues --    0.87530   0.87947   0.88869   0.89523   0.89970
 Alpha virt. eigenvalues --    0.90332   0.91014   0.91436   0.91896   0.92870
 Alpha virt. eigenvalues --    0.93004   0.93462   0.94033   0.94647   0.95262
 Alpha virt. eigenvalues --    0.95391   0.96068   0.96261   0.97729   0.98043
 Alpha virt. eigenvalues --    0.98076   0.98462   0.98850   0.99468   0.99641
 Alpha virt. eigenvalues --    1.00306   1.00561   1.01819   1.02337   1.02999
 Alpha virt. eigenvalues --    1.03667   1.04126   1.04316   1.05331   1.05921
 Alpha virt. eigenvalues --    1.06499   1.07083   1.07463   1.07934   1.08956
 Alpha virt. eigenvalues --    1.09097   1.09932   1.09962   1.10396   1.11377
 Alpha virt. eigenvalues --    1.12456   1.12714   1.13287   1.13798   1.14571
 Alpha virt. eigenvalues --    1.15241   1.15427   1.16397   1.17113   1.17270
 Alpha virt. eigenvalues --    1.17899   1.18403   1.18721   1.19398   1.19785
 Alpha virt. eigenvalues --    1.20200   1.21055   1.21358   1.21983   1.22473
 Alpha virt. eigenvalues --    1.22939   1.23561   1.24376   1.24965   1.25113
 Alpha virt. eigenvalues --    1.25587   1.25752   1.27291   1.27860   1.28515
 Alpha virt. eigenvalues --    1.29058   1.29935   1.30658   1.30989   1.31889
 Alpha virt. eigenvalues --    1.32384   1.32771   1.33798   1.34247   1.34807
 Alpha virt. eigenvalues --    1.35709   1.36189   1.37182   1.38424   1.38687
 Alpha virt. eigenvalues --    1.39401   1.39875   1.40720   1.41020   1.41866
 Alpha virt. eigenvalues --    1.42179   1.42605   1.43963   1.45156   1.45517
 Alpha virt. eigenvalues --    1.47907   1.48327   1.48640   1.51071   1.52189
 Alpha virt. eigenvalues --    1.52257   1.52832   1.54785   1.56402   1.57894
 Alpha virt. eigenvalues --    1.59040   1.61597   1.62308   1.62924   1.64125
 Alpha virt. eigenvalues --    1.64966   1.67020   1.67475   1.68185   1.69058
 Alpha virt. eigenvalues --    1.69624   1.70367   1.71460   1.72498   1.72772
 Alpha virt. eigenvalues --    1.73361   1.74063   1.74968   1.75428   1.76550
 Alpha virt. eigenvalues --    1.76913   1.78508   1.79259   1.80885   1.81093
 Alpha virt. eigenvalues --    1.81203   1.81356   1.82330   1.83221   1.84584
 Alpha virt. eigenvalues --    1.85861   1.87395   1.89014   1.89974   1.90687
 Alpha virt. eigenvalues --    1.91366   1.91985   1.92923   1.94051   1.95208
 Alpha virt. eigenvalues --    1.95520   1.96309   1.96603   1.97373   1.97720
 Alpha virt. eigenvalues --    1.99494   2.01105   2.01600   2.02773   2.03338
 Alpha virt. eigenvalues --    2.04937   2.05151   2.05365   2.05755   2.06013
 Alpha virt. eigenvalues --    2.06553   2.07720   2.08172   2.10415   2.11722
 Alpha virt. eigenvalues --    2.12959   2.13141   2.13943   2.15745   2.16435
 Alpha virt. eigenvalues --    2.18256   2.18869   2.19705   2.19957   2.21196
 Alpha virt. eigenvalues --    2.21837   2.22885   2.23522   2.24093   2.24428
 Alpha virt. eigenvalues --    2.24941   2.25912   2.26524   2.27230   2.27464
 Alpha virt. eigenvalues --    2.27696   2.29077   2.29348   2.30596   2.31869
 Alpha virt. eigenvalues --    2.32115   2.32928   2.33561   2.34204   2.36527
 Alpha virt. eigenvalues --    2.37125   2.37857   2.38074   2.39314   2.39786
 Alpha virt. eigenvalues --    2.40030   2.41582   2.41973   2.42313   2.43321
 Alpha virt. eigenvalues --    2.44828   2.45450   2.46163   2.46929   2.47671
 Alpha virt. eigenvalues --    2.47780   2.48726   2.49789   2.50088   2.51352
 Alpha virt. eigenvalues --    2.52608   2.52695   2.54077   2.54529   2.55456
 Alpha virt. eigenvalues --    2.55799   2.56122   2.57649   2.58461   2.58876
 Alpha virt. eigenvalues --    2.59444   2.60288   2.60717   2.61008   2.62097
 Alpha virt. eigenvalues --    2.62612   2.63818   2.63918   2.64900   2.65429
 Alpha virt. eigenvalues --    2.66220   2.67122   2.67379   2.68558   2.69380
 Alpha virt. eigenvalues --    2.70448   2.71526   2.72401   2.72953   2.73634
 Alpha virt. eigenvalues --    2.74007   2.76143   2.76716   2.79469   2.80370
 Alpha virt. eigenvalues --    2.81719   2.82969   2.85005   2.85584   2.87205
 Alpha virt. eigenvalues --    2.88465   2.89939   2.91385   2.92611   2.94150
 Alpha virt. eigenvalues --    2.96788   2.98902   3.00570   3.01787   3.03163
 Alpha virt. eigenvalues --    3.05697   3.05980   3.07275   3.10103   3.12909
 Alpha virt. eigenvalues --    3.15136   3.16572   3.18733   3.23562   3.24507
 Alpha virt. eigenvalues --    3.31020   3.32913   3.37125   3.38031   3.41104
 Alpha virt. eigenvalues --    3.41931   3.45888   3.50033   3.53779   3.58007
 Alpha virt. eigenvalues --    3.59415   3.62508   3.67679   3.92925   3.99592
 Alpha virt. eigenvalues --    4.10303   4.18693   4.24402   4.27313   4.27820
 Alpha virt. eigenvalues --    4.29405   4.33331   4.34361   4.34717   4.35784
 Alpha virt. eigenvalues --    4.37200   4.38965   4.42299   4.44489   4.45962
 Alpha virt. eigenvalues --    4.46507   4.48977   4.50670   4.52591   4.53978
 Alpha virt. eigenvalues --    4.57839   4.59032   4.60690   4.61193   4.63539
 Alpha virt. eigenvalues --    4.69691   4.70844   4.74032   4.81112   4.82216
 Alpha virt. eigenvalues --    4.85716
          Condensed to atoms (all electrons):
              1          2          3          4          5          6
     1  C   12.990338  -0.964998   0.590774   0.327840  -4.196208  -1.387060
     2  S   -0.964998  16.144852  -0.283929   0.384500   0.434938   0.115873
     3  C    0.590774  -0.283929  13.258063  -4.162494  -1.091098  -0.248365
     4  C    0.327840   0.384500  -4.162494  15.583605  -1.429683  -0.032216
     5  C   -4.196208   0.434938  -1.091098  -1.429683  12.982160   2.369131
     6  C   -1.387060   0.115873  -0.248365  -0.032216   2.369131   8.809561
     7  C    0.966006  -0.159251  -0.180195  -1.294323   0.038602   0.377283
     8  C    0.010765  -0.019548  -0.011651  -2.030197   1.047183  -1.194289
     9  N    0.018517  -0.002828  -0.029087   0.026404   0.053052  -0.150938
    10  H   -0.101584   0.003924   0.007265   0.083892  -0.099404   0.121103
    11  C   -1.531005   0.186504  -0.167701   0.780250  -0.562372  -0.136415
    12  C   -0.116023  -0.041503  -1.756531  -1.492574  -1.006921  -0.071242
    13  C   -0.418872   0.049124  -1.853382  -2.037715   0.221668  -1.064938
    14  N    0.037067  -0.005083   0.074989  -0.063357   0.049949   0.012627
    15  C   -0.091507   0.051775  -0.515941  -0.050861  -0.065637  -0.203905
    16  C    0.115989  -0.019461   0.210457   0.569018   0.041818   0.114216
    17  C    0.028573  -0.006153  -0.059227   0.000944  -0.011214  -0.051510
    18  C   -0.033604   0.009695  -0.059919   0.352320   0.037412   0.046613
    19  C    0.003610  -0.001897   0.015912  -0.094655  -0.012731  -0.015385
    20  C    0.000183   0.000043   0.001306  -0.010674   0.001390   0.002070
    21  C    0.000028  -0.000092  -0.002711  -0.009581  -0.000902  -0.001560
    22  C    0.003198   0.000123   0.015963  -0.133443  -0.004210   0.000287
    23  C    0.121331  -0.008998   0.155962  -1.462085  -0.178680  -0.165474
    24  C   -0.178696   0.035865   0.073679   1.205036  -0.568779  -0.275904
    25  C   -1.029043   0.248954   1.468824   1.552446  -0.882133   0.445070
    26  C   -0.131225  -0.006705  -0.019832  -0.053703  -0.167548  -0.122160
    27  C    0.046044   0.002704  -0.000398  -0.072768  -0.358729  -0.799822
    28  N   -0.001172   0.000047  -0.000013   0.001051  -0.000496   0.009727
    29  C    0.004553   0.000034   0.000126  -0.004275  -0.001626  -0.032776
    30  C    0.002952   0.000036   0.002458   0.002889  -0.008678   0.089666
    31  N    0.000113   0.000002  -0.000011  -0.000290  -0.000128  -0.007533
    32  S    0.001249   0.000006  -0.000201  -0.001458   0.002719  -0.019730
    33  N    0.001059  -0.000066  -0.001915  -0.008968   0.018516  -0.054079
    34  C    0.033555   0.000349   0.015701  -0.021516  -0.076096  -0.229894
    35  H    0.636433  -0.068755   0.037695   0.060670  -0.267315  -0.061768
    36  H    0.077208  -0.130113   0.547541  -0.214580   0.085689   0.033963
    37  H   -0.026088  -0.016126  -0.018550   0.030429   0.027377   0.009875
    38  H    0.003650  -0.001025  -0.035540  -0.109596   0.039511  -0.117611
    39  H   -0.009659   0.002327   0.011146  -0.139123  -0.033584  -0.014658
    40  H    0.000064   0.000150  -0.004805  -0.021892  -0.004616  -0.005714
    41  H   -0.000444   0.000332  -0.004808   0.018131   0.002698   0.001095
    42  H   -0.000005   0.000010   0.000072  -0.000585  -0.000012   0.000024
    43  H   -0.000000  -0.000001  -0.000040   0.000019  -0.000002  -0.000013
    44  H   -0.000023   0.000004   0.000123   0.001910   0.000071   0.000115
    45  H    0.004531   0.002316   0.001134  -0.001382  -0.034145  -0.068332
    46  H    0.000182  -0.000001   0.000003  -0.000100  -0.000295  -0.002283
              7          8          9         10         11         12
     1  C    0.966006   0.010765   0.018517  -0.101584  -1.531005  -0.116023
     2  S   -0.159251  -0.019548  -0.002828   0.003924   0.186504  -0.041503
     3  C   -0.180195  -0.011651  -0.029087   0.007265  -0.167701  -1.756531
     4  C   -1.294323  -2.030197   0.026404   0.083892   0.780250  -1.492574
     5  C    0.038602   1.047183   0.053052  -0.099404  -0.562372  -1.006921
     6  C    0.377283  -1.194289  -0.150938   0.121103  -0.136415  -0.071242
     7  C    7.803083   0.985748  -0.396686  -0.159188  -0.564588  -0.384599
     8  C    0.985748  17.863032   0.107861  -0.371690  -7.015496   0.299404
     9  N   -0.396686   0.107861   7.327343   0.385418  -0.334506   0.071500
    10  H   -0.159188  -0.371690   0.385418   0.839017  -0.143161   0.353374
    11  C   -0.564588  -7.015496  -0.334506  -0.143161  14.997910   0.448147
    12  C   -0.384599   0.299404   0.071500   0.353374   0.448147  22.287083
    13  C    0.226720   0.260333  -0.058396  -0.332499  -0.083484  -4.525342
    14  N    0.020694  -0.001344  -0.010144  -0.028701   0.178940   0.262990
    15  C   -0.057727   0.107799   0.010169   0.017767  -0.568855   0.232296
    16  C    0.012682   0.008197  -0.013098  -0.065114   0.353047  -1.957557
    17  C   -0.002614   0.000017   0.003764  -0.005679   0.100753   0.360730
    18  C    0.001717   0.000903  -0.001740   0.014442  -0.134439  -1.035787
    19  C   -0.000527  -0.000808  -0.000040  -0.001144   0.034938   0.308423
    20  C    0.000102   0.000039  -0.000014   0.000136  -0.000880  -0.008764
    21  C   -0.000052  -0.000029   0.000008  -0.000027   0.001597   0.034168
    22  C    0.000248  -0.001508  -0.000200   0.000362   0.016745   0.154856
    23  C   -0.001965  -0.041843  -0.000428  -0.011815   0.396497   2.551132
    24  C   -0.115953  -0.192276   0.008879   0.037994  -0.208606  -0.582220
    25  C   -0.673673   0.450106   0.083862   0.191662  -2.070906  -6.870119
    26  C    0.207847   2.521646  -0.208789  -0.057609   0.170908  -0.047609
    27  C   -1.205644  -2.170170   0.126212   0.088371   0.520881  -0.165048
    28  N   -0.009443   0.026112   0.002755   0.004912   0.019862  -0.001540
    29  C   -0.071859  -0.128637   0.046661   0.023038  -0.071436   0.002853
    30  C    0.542383  -1.493802   0.114242  -0.064157   0.060198   0.008014
    31  N   -0.012634   0.051038  -0.009126  -0.001590   0.007580  -0.004040
    32  S    0.004346   0.073016  -0.040907  -0.026369   0.026910  -0.023698
    33  N   -0.036087  -0.151965   0.064880   0.117893   0.012118  -0.053141
    34  C    0.256474  -3.295224  -0.103204  -0.173486   1.796813  -0.425263
    35  H    0.032975  -0.020391  -0.000532  -0.000973  -0.047877  -0.024153
    36  H    0.012963   0.010476  -0.000235  -0.000873  -0.024357   0.000453
    37  H    0.315116  -0.162626   0.033254   0.003146   0.092843   0.026189
    38  H    0.026993   0.143589  -0.034692  -0.195608   0.023894  -0.892268
    39  H   -0.005275  -0.002176   0.000260   0.000631  -0.013783   0.070085
    40  H   -0.000529  -0.002331   0.000202   0.001262  -0.000928   0.048584
    41  H    0.000094   0.000091   0.000005  -0.000070  -0.000516  -0.013459
    42  H    0.000001   0.000001  -0.000000   0.000004  -0.000043  -0.000373
    43  H   -0.000000   0.000000   0.000000  -0.000001   0.000008   0.000328
    44  H    0.000001   0.000020   0.000004   0.000028  -0.000309  -0.004327
    45  H   -0.048174  -0.243608  -0.000485   0.000257   0.069382  -0.015156
    46  H   -0.007839  -0.008660   0.000192  -0.000742  -0.000349  -0.000289
             13         14         15         16         17         18
[...]
 1,-0.00032773,0.00005967,0.00008925,0.00000086,-0.00009698,-0.00003909
 ,-0.00000634,-0.00000116,0.00002434,0.00000055,0.00003691,-0.00004797,
 0.00000720,-0.00002801,-0.00002092,-0.00002703,-0.00002320,-0.00002704
 ,0.00000111,0.00001688,0.00000412,-0.00000161,0.00002713,-0.00000158,-
 0.00000756,0.00001611,-0.00000282,0.00004400,-0.00000499,0.00000369,-0
 .00000467,-0.00001033,0.00000967,0.00000787,-0.00000471,-0.00000272,-0
 .00000161,-0.00000649,0.00000757,-0.00005821,0.00005530,-0.00002210,-0
 .00002804,-0.00000922,-0.00002723,-0.00002928,-0.00072357,-0.00097694,
 -0.00012980,0.00068930,0.00035323,0.00051813,0.28750288,-0.00007076,-0
 .00007605,0.00001617,-0.00003378,0.00002206,0.00002198,0.00001983,0.00
 001558,-0.00001576,0.00012409,0.00007179,0.00014529,-0.00006132,0.0001
 0774,0.00004228,0.00016248,-0.00003474,-0.00008952,-0.00000556,-0.0000
 4936,0.00002245,-0.00004253,-0.00008744,-0.00001698,-0.00003762,-0.000
 03318,0.00013600,0.00000006,0.00006533,0.00000376,-0.00010985,-0.00009
 297,-0.00005750,-0.00021498,0.00058924,-0.00012777,0.00006538,0.000031
 23,0.00001461,0.00115072,-0.00023539,0.00033263,-0.00159634,-0.0015406
 3,-0.00003398,0.00005951,-0.00001177,-0.00013124,0.00035939,-0.0001535
 9,-0.00027248,0.00025538,-0.00149763,0.00048818,0.00262993,0.00019292,
 0.00226627,0.01403391,0.01058612,0.00065867,-0.11825569,-0.11714897,0.
 00108112,-0.02584416,-0.01336364,0.00088335,-0.00055408,-0.00206563,0.
 00171761,0.00047930,0.00285672,0.00004226,0.00022422,-0.00143084,-0.00
 011478,0.00004054,0.00017403,-0.00001057,-0.00009152,-0.00005683,-0.00
 000763,0.00000650,0.00004011,0.00000488,0.00003229,-0.00006064,0.00000
 045,-0.00005290,-0.00004539,-0.00001042,-0.00004080,-0.00006559,0.0000
 0015,0.00003896,0.00004426,-0.00000047,0.00001069,-0.00002224,-0.00000
 533,0.00002326,-0.00000304,0.00002025,-0.00001188,-0.00000193,-0.00001
 979,0.00002791,-0.00005896,-0.00003642,-0.00001205,-0.00000260,0.00000
 429,-0.00003103,-0.00004045,-0.00012347,-0.00014274,0.00006924,0.00001
 799,-0.00003062,0.00005143,-0.00007948,0.00087659,0.00024390,0.0001381
 7,-0.00021404,0.00054312,-0.00109461,0.12641193,0.12125629,-0.00022872
 ,0.00008830,-0.00002156,-0.00014586,-0.00018348,-0.00003048,0.00010188
 ,-0.00015978,0.00009139,0.00020710,0.00024130,0.00005469,0.00005398,0.
 00003494,0.00000617,-0.00078487,0.00025087,0.00020409,-0.00008008,0.00
 047788,-0.00003415,0.00049125,-0.00002651,-0.00001937,-0.00028822,-0.0
 0045737,-0.00031726,0.00003613,0.00000273,-0.00000136,0.00146715,0.000
 15112,-0.00040614,-0.00192886,0.00063309,-0.00014362,0.00181661,0.0001
 8673,-0.00053877,0.00125435,-0.00195907,-0.00007189,0.00048023,-0.0013
 8735,0.00031208,-0.00494409,0.00040432,0.00008641,0.00600101,-0.000166
 51,0.00071220,-0.00250507,0.00126660,-0.00162529,-0.00289747,0.0044816
 7,0.00287982,-0.01039949,-0.00478154,0.00222624,-0.00882219,0.00236460
 ,-0.03613175,0.00638125,0.00319242,0.00775870,0.00210077,-0.00145322,0
 .00426020,-0.00128643,0.00489558,-0.00217889,0.00086384,-0.00153512,0.
 00209514,-0.00001000,-0.00013868,0.00008831,-0.00000314,0.00006784,0.0
 0000281,-0.00001965,-0.00003178,-0.00001142,-0.00000855,0.00007099,0.0
 0000856,0.00007759,0.00004578,-0.00002248,0.00001820,0.00003477,0.0000
 0515,-0.00006370,-0.00000699,0.00000324,-0.00002624,-0.00002708,-0.000
 00849,0.00006759,-0.00001215,0.00002075,-0.00001140,-0.00000013,0.0000
 3537,0.00003939,-0.00008832,-0.00004727,0.00000797,0.00001016,-0.00000
 917,-0.00000320,-0.00002659,0.00037529,-0.00008652,-0.00003367,0.00007
 659,0.00006140,-0.00002986,0.00029992,-0.00064828,0.00025082,0.0007263
 4,0.00084791,-0.00081965,-0.00285779,0.01209621,-0.00454712,0.02585201
 ,-0.00000125,-0.00000019,0.00001601,-0.00000377,0.00000703,-0.00000452
 ,0.00000229,-0.00000806,0.00000441,-0.00001077,0.00000478,0.00001740,-
 0.00001648,0.00001038,-0.00001970,-0.00000763,-0.00000301,-0.00000131,
 0.00001400,-0.00001611,-0.00001191,-0.00000730,-0.00007332,0.00004231,
 0.00003284,0.00003073,0.00000404,-0.00000917,0.00000701,0.00000078,-0.
 00003956,-0.00002333,-0.00000585,0.00004653,-0.00003348,-0.00001672,-0
 .00006410,-0.00001020,0.00000721,-0.00013005,0.00003992,0.00001927,0.0
 0039030,0.00019134,0.00003173,-0.00016243,-0.00028916,-0.00007411,-0.0
 0006415,0.00056639,-0.00035487,-0.00250036,-0.00107483,-0.00118183,-0.
 00023628,-0.00112265,0.00049782,0.00217082,-0.00096189,-0.00058001,0.0
 0423177,-0.00297961,0.00031428,-0.23612356,0.11859212,-0.07032146,-0.0
 2415131,0.00815255,-0.00711616,-0.00022637,-0.00011332,0.00005718,0.00
 003611,0.00003242,-0.00003538,-0.00003099,0.00001157,-0.00001335,0.000
 05038,-0.00000443,0.00000563,0.00000522,0.00001434,0.00000348,-0.00001
 790,0.00001027,-0.00000967,-0.00000618,-0.00000269,0.00002703,0.000007
 81,0.00000267,-0.00000091,0.00001265,0.00000502,-0.00000113,-0.0000252
 3,0.00000606,0.00000950,-0.00001245,0.00000259,-0.00004253,0.00000638,
 -0.00000422,-0.00000306,0.00000497,0.00000494,-0.00000410,0.00000029,-
 0.00000007,0.00000253,-0.00000102,-0.00001267,-0.00000577,0.00001698,0
 .00001675,-0.00000932,0.00000646,-0.00003169,0.00002799,-0.00008192,0.
 00011631,0.00008149,0.00006683,-0.00018680,0.00004228,0.00044297,0.000
 39961,0.00072078,0.25638951,0.00000127,0.00001641,-0.00001368,-0.00000
 696,-0.00001622,-0.00000387,0.00000628,-0.00001198,0.00000747,-0.00000
 376,0.00000891,-0.00003298,0.00001876,-0.00002059,0.00000422,-0.000079
 98,0.00002311,0.00003091,-0.00001545,0.00005443,0.00000007,0.00003333,
 0.00002572,-0.00002057,-0.00001450,-0.00003031,-0.00004813,0.00000212,
 -0.00001008,-0.00000224,0.00014127,0.00002836,-0.00001423,-0.00011632,
 -0.00007599,0.00001830,0.00013126,-0.00000848,-0.00004856,-0.00022511,
 -0.00006786,-0.00006432,0.00068241,0.00019459,0.00003749,-0.00063897,-
 0.00027223,-0.00004757,0.00011462,0.00085202,0.00006701,-0.00399301,-0
 .00072378,0.00034986,-0.00067153,-0.00093427,-0.00035512,-0.00186161,-
 0.00383717,0.00251661,0.02629023,-0.01139001,0.00925330,0.11245149,-0.
 12127957,0.04287865,-0.01159705,0.01005081,-0.00486488,-0.00042041,-0.
 00008229,-0.00015141,0.00005125,0.00013375,0.00017495,0.00000304,-0.00
 003536,0.00001519,-0.00001999,0.00001056,-0.00000035,0.00000456,-0.000
 00647,-0.00000260,-0.00000302,0.00000763,0.00000583,0.00001574,0.00000
 693,-0.00001496,0.00000249,0.00000726,0.00000275,-0.00001539,-0.000011
 94,-0.00000079,0.00000818,0.00000174,-0.00000447,0.00001350,0.00000467
 ,0.00002107,0.00000224,0.00000332,0.00000784,-0.00000746,-0.00000014,0
 .00000522,0.00000137,0.00000119,-0.00000275,-0.00000200,0.00000218,0.0
 0005056,-0.00001388,0.00001859,-0.00002219,0.00002849,-0.00001623,0.00
 004969,0.00006955,0.00016830,-0.00001050,0.00117587,-0.00057966,0.0002
 9617,-0.00027853,0.00121485,-0.00127466,-0.12126952,0.12657620,-0.0000
 4359,-0.00001613,0.00001035,-0.00002039,-0.00000826,0.00000438,0.00001
 171,-0.00000479,-0.00000018,0.00006193,0.00004478,0.00004666,-0.000022
 93,0.00004255,0.00000140,-0.00001289,0.00001037,-0.00001273,0.00000042
 ,0.00001411,-0.00000290,0.00004395,-0.00004327,0.00001709,-0.00003647,
 -0.00004647,0.00002004,0.00000190,0.00002070,0.00000619,0.00006811,-0.
 00002758,-0.00005171,-0.00023644,0.00027859,-0.00002692,0.00020319,-0.
 00001451,-0.00005295,0.00041781,-0.00013087,0.00011890,-0.00035402,-0.
 00077902,-0.00003316,-0.00047672,-0.00006175,-0.00022237,0.00024364,0.
 00075558,0.00082923,0.00044927,-0.00145023,0.00448566,0.00085792,0.000
 22621,-0.00129048,-0.00056444,0.00350836,0.00530005,-0.00733206,0.0038
 3869,0.00459840,-0.06841364,0.04278489,-0.05698104,-0.00330282,0.00001
 102,-0.00114061,-0.00002135,0.00151379,-0.00014529,0.00014958,-0.00067
 380,0.00011030,-0.00000805,0.00003024,-0.00000389,0.00001177,-0.000004
 75,-0.00000054,-0.00000119,0.00000444,0.00000063,-0.00000124,-0.000001
 84,-0.00000360,-0.00000834,-0.00000706,0.00001134,-0.00000494,-0.00001
 161,-0.00000333,0.00000840,0.00001691,0.00000407,-0.00001047,-0.000008
 34,-0.00000040,0.00000027,-0.00000312,-0.00001575,-0.00000324,-0.00000
 328,-0.00000377,0.00001637,-0.00002628,-0.00001385,-0.00000212,0.00000
 018,0.00000276,-0.00001394,-0.00001933,-0.00002679,-0.00010100,0.00005
 462,-0.00004993,0.00004011,0.00004718,0.00002343,0.00001567,0.00012149
 ,-0.00019819,-0.00033475,0.00006933,-0.00018019,0.00084605,-0.00126090
 ,-0.00370350,0.07787860,-0.04879024,0.04857138,0.00001693,-0.00003893,
 -0.00001457,-0.00002254,0.00004258,0.00000168,0.00004948,0.00001602,0.
 00000012,-0.00001789,0.00002987,-0.00002169,-0.00001597,-0.00000061,0.
 00001839,-0.00003124,-0.00054130,-0.00005324,-0.00048680,0.00045796,0.
 00004365,-0.00001042,0.00121132,-0.00012078,0.00060846,-0.00032369,-0.
 00008455,0.00006419,0.00028828,0.00001243,0.00039094,0.00010845,0.0000
 0146,-0.00012612,-0.00016327,0.00003103,0.00006127,0.00006311,-0.00001
 011,0.00001850,-0.00005234,-0.00002852,0.00007432,0.00000643,-0.000016
 62,-0.00003772,-0.00003746,0.00003769,0.00002688,0.00004410,0.00000145
 ,0.00002408,0.00002409,-0.00002248,-0.00003824,0.00001468,-0.00000596,
 -0.00001158,0.00000932,0.00001908,0.00004504,0.00000055,-0.00001889,0.
 00002293,0.00006240,0.00000833,-0.00005140,-0.00016835,0.00001473,-0.0
 0007641,-0.00001258,-0.00000857,0.00000472,0.00008632,0.00001815,-0.01
 715943,0.02173404,0.00234358,-0.20861232,0.14147511,0.01599496,0.01313
 101,-0.01066046,-0.00129329,0.00153194,-0.00400368,0.00007211,-0.00051
 233,-0.00072288,-0.00006428,0.00040395,0.00012797,-0.00001650,-0.00052
 169,0.00007956,-0.00004490,-0.00084644,0.00125807,0.00013561,-0.003818
 63,-0.00317607,0.00050455,0.00003332,-0.00000749,-0.00000022,-0.000013
 17,-0.00001174,0.00000379,0.00069040,-0.00081293,-0.00000294,-0.000002
 39,-0.00001656,0.00001423,-0.00000676,-0.00000042,-0.00000126,0.000006
 72,0.00000989,-0.00000203,-0.00000711,0.00000932,-0.00000057,0.0000032
 4,-0.00000013,-0.00000922,0.00000978,0.00001644,0.00000516,-0.00000656
 ,0.00000545,-0.00000049,0.21495391,-0.00000650,-0.00000242,0.00000972,
 0.00000236,0.00001981,-0.00000202,0.00001153,0.00000200,-0.00000023,-0
 .00002809,0.00001368,-0.00000610,0.00001308,0.00001160,-0.00001964,-0.
 00021025,-0.00001603,0.00004742,-0.00037736,-0.00053806,0.00000154,-0.
 00011623,-0.00009030,0.00016614,0.00035692,0.00019665,-0.00000922,0.00
 001857,0.00001818,-0.00000129,0.00010954,-0.00014378,-0.00001388,-0.00
 004324,0.00000130,0.00000840,0.00003241,-0.00000950,-0.00000395,0.0000
 0702,-0.00001804,-0.00001496,0.00000495,0.00001397,0.00000504,-0.00004
 078,0.00000354,0.00000018,0.00004725,-0.00002793,-0.00000640,-0.000007
 65,0.00004496,-0.00000992,-0.00000618,-0.00001165,0.00001018,0.0000012
 1,0.00000323,-0.00002156,-0.00000220,-0.00001352,0.00002474,-0.0000219
 3,0.00003697,-0.00001431,0.00001797,-0.00006491,0.00001708,-0.00001691
 ,0.00002108,-0.00000735,0.00002550,0.00001667,0.00001030,-0.00604276,0
 .00913393,0.00043512,0.14065009,-0.18121275,-0.01450489,0.01639025,-0.
 03428163,-0.00252611,-0.00166659,-0.00337094,-0.00041683,-0.00050766,-
 0.00025986,0.00004863,0.00026332,0.00008714,-0.00000079,-0.00005175,0.
 00019322,0.00008167,-0.00033557,0.00062261,0.00001485,-0.00212486,-0.0
 0044220,-0.00031828,-0.00000021,-0.00001141,-0.00000071,0.00000663,0.0
 0000600,0.00000116,-0.00087241,-0.00144302,-0.00006310,-0.00000266,0.0
 0000361,0.00000745,0.00000303,0.00000021,0.00000041,-0.00000128,-0.000
 00005,0.00000412,0.00000143,0.00000837,0.00000294,-0.00000202,0.000002
 62,0.00000404,0.00000341,0.00000456,-0.00000992,-0.00000073,-0.0000037
 8,0.00000146,-0.14617196,0.21210893,-0.00000433,0.00000599,-0.00003071
 ,-0.00000053,-0.00000198,-0.00000127,-0.00000121,-0.00000278,-0.000008
 79,-0.00000460,0.00000139,0.00001956,0.00001029,0.00000143,0.00006216,
 -0.00007171,0.00005207,-0.00054685,0.00004201,-0.00003991,-0.00015055,
 -0.00017187,0.00006743,-0.00274212,-0.00003730,0.00004525,-0.00031550,
 0.00000115,-0.00001763,0.00006435,0.00003223,-0.00001677,-0.00008053,-
 0.00002775,-0.00002232,0.00013214,0.00001647,-0.00000954,0.00001669,-0
 .00000859,-0.00000598,-0.00002702,-0.00000353,-0.00000197,0.00000155,-
 0.00001450,0.00000294,0.00000915,0.00001559,-0.00000950,-0.00000559,-0
 .00000315,0.00001337,-0.00000062,-0.00000115,-0.00000292,0.00000031,-0
 .00000064,0.00000100,-0.00000713,-0.00000129,-0.00000606,0.00000703,-0
 .00000831,0.00001131,-0.00000086,0.00000822,-0.00001705,0.00000162,-0.
 00001048,0.00003457,-0.00001829,0.00002288,-0.00000438,0.00000930,0.00
 098489,-0.00099120,0.00654629,0.01592499,-0.01454788,-0.04221220,0.000
 08131,-0.00111340,-0.00117105,0.00017043,-0.00028455,0.00644163,-0.000
 02338,0.00005639,-0.00046085,-0.00002017,0.00001132,-0.00023862,-0.000
 04570,0.00007502,-0.00134018,0.00006346,-0.00007787,0.00077427,0.00050
 622,-0.00024730,0.00765646,-0.00000193,-0.00000298,0.00002204,0.000003
 25,0.00000133,0.00000241,-0.00003042,-0.00007675,0.00107072,-0.0000014
 0,0.00000304,0.00000696,0.00000021,-0.00000026,0.00000100,-0.00000023,
 -0.00000129,0.00000197,0.00000083,0.00000249,0.00000223,-0.00000072,0.
 00000064,0.00000190,-0.00000042,0.00000007,-0.00000355,0.00000059,-0.0
 0000150,0.00000098,-0.01743994,0.01716296,0.02595340,-0.00002062,0.000
 00156,-0.00000596,-0.00000909,0.00000208,-0.00000034,0.00000835,0.0000
 0482,0.00000083,0.00001905,-0.00000030,-0.00001991,0.00001879,-0.00003
 597,0.00000296,0.00018005,-0.00000036,-0.00000063,-0.00002621,-0.00018
 581,0.00000077,0.00024214,0.00028390,-0.00009804,-0.00000975,-0.000128
 86,-0.00003895,-0.00004813,0.00018375,0.00001298,0.00004295,0.00025305
 ,0.00002023,-0.00007341,-0.00003796,0.00002688,0.00001268,0.00004269,-
 0.00000731,0.00002564,-0.00002378,-0.00002831,0.00002038,-0.00002262,-
 0.00000641,-0.00003546,-0.00001780,0.00002790,0.00003647,0.00001585,0.
 00000347,0.00001141,0.00003312,-0.00001903,-0.00002061,0.00000475,-0.0
 0001133,-0.00000712,0.00000550,0.00000704,0.00002616,-0.00000636,-0.00
 000035,-0.00000568,0.00005308,0.00001578,-0.00001551,-0.00011434,0.000
 00020,-0.00003514,0.00004186,-0.00001711,0.00002679,0.00001230,0.00002
 067,-0.00072753,0.00031762,0.00003406,-0.00043262,0.00426594,0.0008518
 3,0.01132825,0.02622785,0.00037518,-0.10387810,-0.10770450,-0.00186373
 ,-0.00708525,-0.02881060,-0.00076101,0.00279144,0.00031910,-0.00019966
 ,-0.00055712,-0.00062898,-0.00003922,-0.00155284,-0.00132715,0.0000262
 7,-0.00424140,0.00240449,0.00058609,0.00000375,0.00000030,0.00000275,-
 0.00000281,-0.00000489,0.00000284,0.00001336,-0.00002287,-0.00000033,0
 .00000258,-0.00000722,0.00001485,-0.00000253,0.00000107,-0.00000067,0.
 00000335,0.00000179,0.00000209,-0.00000233,0.00000698,0.00000414,0.000
 00116,0.00000074,-0.00000320,0.00000132,0.00000535,-0.00000574,0.00000
 166,-0.00000028,0.00000084,0.00026114,0.00069130,0.00005022,0.10371039
 ,-0.00000410,0.00000209,-0.00000142,-0.00000032,-0.00000651,0.00000012
 ,-0.00000597,0.00000135,0.00000138,0.00001706,-0.00000745,0.00000170,-
 0.00000316,-0.00000747,0.00000353,0.00012294,0.00003908,-0.00000351,0.
 00002320,-0.00015924,-0.00001241,-0.00015146,0.00028358,0.00008566,-0.
 00006775,-0.00014247,0.00001978,0.00000981,0.00002036,0.00000044,-0.00
 010294,0.00008625,0.00001254,0.00002888,0.00001075,-0.00001482,-0.0000
 2164,0.00000929,0.00000108,0.00000178,0.00001532,0.00000804,-0.0000014
 4,-0.00001296,-0.00000380,0.00002353,-0.00000246,-0.00000232,-0.000020
 45,0.00001056,0.00000288,-0.00000212,-0.00002745,0.00000624,0.00000785
 ,0.00000470,-0.00000152,-0.00000182,-0.00000199,0.00000569,-0.00000384
 ,0.00000728,-0.00000874,0.00001424,-0.00002582,0.00000743,-0.00000710,
 0.00004387,-0.00000997,0.00000782,-0.00000577,0.00000710,-0.00001302,-
 0.00001436,-0.00000525,-0.00025545,-0.00064043,0.00000665,0.00203980,0
 .00048556,-0.00067050,0.00141939,-0.02918650,-0.00121337,-0.10664469,-
 0.28887440,-0.00710259,0.00044835,-0.00015260,-0.00034506,-0.00035912,
 0.00075967,0.00013307,-0.00087130,-0.00024956,0.00006612,0.00020364,0.
 00040150,-0.00000798,0.00055270,0.00070559,-0.00020683,0.00000250,0.00
 000455,-0.00000048,-0.00000331,-0.00000320,-0.00000078,-0.00002373,0.0
 0003134,-0.00000015,0.00000245,-0.00000587,-0.00000375,-0.00000123,-0.
 00000068,-0.00000054,0.00000037,0.00000280,-0.00000188,-0.00000178,-0.
 00000334,-0.00000065,0.00000074,-0.00000101,-0.00000116,0.00000215,-0.
 00000105,0.00000405,-0.00000280,0.00000288,-0.00000207,-0.00025849,-0.
 00061304,-0.00004624,0.10389982,0.31721727,0.00000077,0.00000207,-0.00
 000497,0.00000656,-0.00000041,0.00000114,-0.00000490,0.00000452,-0.000
 00382,-0.00000379,-0.00000362,0.00001061,0.00000295,-0.00000402,0.0000
 1268,0.00001494,0.00000762,-0.00006746,0.00001660,-0.00002977,0.000117
 97,-0.00010334,0.00010420,-0.00149343,-0.00002459,0.00002751,-0.000312
 86,0.00000148,-0.00000883,-0.00001571,-0.00003529,-0.00002389,0.000032
 38,0.00002935,0.00000344,0.00011869,-0.00000976,0.00000210,-0.00000044
 ,-0.00002636,0.00001419,0.00000320,-0.00000517,0.00002776,0.00000064,0
 .00002167,0.00000277,-0.00000482,-0.00001851,-0.00000202,0.00000005,-0
 .00000427,-0.00001232,0.00000757,0.00000770,-0.00000307,0.00000310,0.0
 0000559,-0.00000349,-0.00000092,-0.00000700,0.00000412,-0.00000045,-0.
 00000119,-0.00001678,-0.00000848,0.00000823,0.00004265,-0.00000034,0.0
 0003155,-0.00003440,-0.00001182,-0.00000955,-0.00001041,-0.00000617,-0
 .00002089,-0.00003933,-0.00049058,0.00077491,-0.00079035,0.01164009,-0
 .00088293,-0.00252886,-0.00665609,-0.00181091,-0.00703315,-0.03652080,
 0.00071466,0.00117517,0.00628381,-0.00023790,0.00009984,-0.00146262,-0
 .00004808,0.00005478,-0.00067828,0.00011487,0.00007049,0.00033617,0.00
 046784,-0.00028930,0.00424868,-0.00000182,-0.00000097,0.00000218,0.000
 00148,0.00000311,0.00000033,0.00000025,0.00000034,0.00005068,-0.000001
 01,-0.00000462,-0.00000541,0.00000164,0.00000061,0.00000072,-0.0000013
 1,-0.00000141,-0.00000044,0.00000119,-0.00000347,-0.00000184,-0.000000
 35,0.00000022,0.00000135,-0.00000238,-0.00000266,0.00000273,0.00000128
 ,-0.00000057,0.00000083,-0.00000056,-0.00009409,0.00055616,0.00103635,
 0.00929430,0.02431601\\-0.00000655,-0.00000374,0.,0.00000332,-0.000001
 12,-0.00000064,-0.00000117,0.00000301,-0.00000417,0.00000682,0.0000044
 6,0.00000446,-0.00000302,-0.00000494,-0.00000188,-0.00000086,0.0000031
 7,-0.00000289,-0.00000151,-0.00000032,-0.00000159,0.00000047,0.0000017
 2,-0.00000101,-0.00000097,-0.00000376,0.00000186,-0.00000023,0.0000000
 7,-0.00000088,-0.00000314,-0.00000108,0.00000145,0.00000230,-0.0000020
 9,0.00000385,0.00000248,0.00000338,-0.00000199,0.00000391,-0.00000861,
 0.00000494,-0.00001741,0.00000558,-0.00000018,0.00002000,-0.00000088,0
 .00000090,-0.00003259,-0.00001092,-0.00000532,0.00006653,0.00001091,0.
 00004640,-0.00001342,0.00000795,-0.00002058,0.00000520,-0.00000557,-0.
 00002765,-0.00000323,0.00000285,0.00002484,-0.00003537,-0.00000619,-0.
 00000069,0.00000247,0.00000131,-0.00002341,-0.00000693,-0.00001483,0.0
 0000729,0.00001411,0.00001549,-0.00001251,0.00000077,-0.00000106,0.000
 00064,0.00000046,0.00000003,-0.00000103,0.00000006,0.,0.00000020,-0.00
 000001,0.00000133,0.00000055,-0.00000087,0.00000028,-0.00000016,-0.000
 00096,-0.00000046,0.00000362,0.00000008,0.00000031,-0.00000254,-0.0000
 0022,-0.00000036,0.00000331,-0.00000125,0.00000109,-0.00000039,0.00000
 025,0.00000182,-0.00000116,-0.00000036,0.00000085,-0.00000104,0.000000
 22,0.00000108,0.00000116,-0.00000102,0.00000071,-0.00000127,-0.0000023
 7,0.00000218,0.00000010,0.00000661,-0.00000051,-0.00000088,0.00000163,
 0.00000099,0.00000390,-0.00000181,0.00000065,0.00000477,-0.00000024,0.
 00000277,0.00000017,-0.00000140,-0.00000831,-0.00000098,-0.00000027,0.
 00000021,-0.00000027,-0.00000052,0.00000055,0.00000067\\\@


     "IF I COULD JUST GET IT ON PAPER"
 LIFE AND INK, THEY RUN OUT AT THE SAME TIME,
 OR SO SAID MY OLD FRIEND THE SQUID.
     -- JIMMY BUFFETT, 1981
 Job cpu time:  1 days  9 hours 13 minutes 39.6 seconds.
 File lengths (MBytes):  RWF=   2358 Int=      0 D2E=      0 Chk=     35 Scr=      1
 Normal termination of Gaussian 09 at Mon Dec 30 09:23:33 2013.
