 Entering Gaussian System, Link 0=g09
 Initial command:
 /opt/gaussian/g09/l1.exe /panfs/panfs.cluster/home/shuo/Gau-32336.inp -scrdir=/panfs/panfs.cluster/home/shuo/
 Default is to use a total of  12 processors:
                               12 via shared-memory
                                1 via Linda
 Entering Link 1 = /opt/gaussian/g09/l1.exe PID=     32337.
  
 Copyright (c) 1988,1990,1992,1993,1995,1998,2003,2009,2011,
            Gaussian, Inc.  All Rights Reserved.
  
 This is part of the Gaussian(R) 09 program.  It is based on
 the Gaussian(R) 03 system (copyright 2003, Gaussian, Inc.),
 the Gaussian(R) 98 system (copyright 1998, Gaussian, Inc.),
 the Gaussian(R) 94 system (copyright 1995, Gaussian, Inc.),
 the Gaussian 92(TM) system (copyright 1992, Gaussian, Inc.),
 the Gaussian 90(TM) system (copyright 1990, Gaussian, Inc.),
 the Gaussian 88(TM) system (copyright 1988, Gaussian, Inc.),
 the Gaussian 86(TM) system (copyright 1986, Carnegie Mellon
 University), and the Gaussian 82(TM) system (copyright 1983,
 Carnegie Mellon University). Gaussian is a federally registered
 trademark of Gaussian, Inc.
  
 This software contains proprietary and confidential information,
 including trade secrets, belonging to Gaussian, Inc.
  
 This software is provided under written license and may be
 used, copied, transmitted, or stored only in accord with that
 written license.
  
 The following legend is applicable only to US Government
 contracts under FAR:
  
                    RESTRICTED RIGHTS LEGEND
  
 Use, reproduction and disclosure by the US Government is
 subject to restrictions as set forth in subparagraphs (a)
 and (c) of the Commercial Computer Software - Restricted
 Rights clause in FAR 52.227-19.
  
 Gaussian, Inc.
 340 Quinnipiac St., Bldg. 40, Wallingford CT 06492
  
  
 ---------------------------------------------------------------
 Warning -- This program may not be used in any manner that
 competes with the business of Gaussian, Inc. or will provide
 assistance to any competitor of Gaussian, Inc.  The licensee
 of this program is prohibited from giving any competitor of
 Gaussian, Inc. access to this program.  By using this program,
 the user acknowledges that Gaussian, Inc. is engaged in the
 business of creating and licensing software in the field of
 computational chemistry and represents and warrants to the
 licensee that it is not a competitor of Gaussian, Inc. and that
 it will not use this program in any manner prohibited above.
 ---------------------------------------------------------------
  

 Cite this work as:
 Gaussian 09, Revision C.01,
 M. J. Frisch, G. W. Trucks, H. B. Schlegel, G. E. Scuseria, 
 M. A. Robb, J. R. Cheeseman, G. Scalmani, V. Barone, B. Mennucci, 
 G. A. Petersson, H. Nakatsuji, M. Caricato, X. Li, H. P. Hratchian, 
 A. F. Izmaylov, J. Bloino, G. Zheng, J. L. Sonnenberg, M. Hada, 
 M. Ehara, K. Toyota, R. Fukuda, J. Hasegawa, M. Ishida, T. Nakajima, 
 Y. Honda, O. Kitao, H. Nakai, T. Vreven, J. A. Montgomery, Jr., 
 J. E. Peralta, F. Ogliaro, M. Bearpark, J. J. Heyd, E. Brothers, 
 K. N. Kudin, V. N. Staroverov, T. Keith, R. Kobayashi, J. Normand, 
 K. Raghavachari, A. Rendell, J. C. Burant, S. S. Iyengar, J. Tomasi, 
 M. Cossi, N. Rega, J. M. Millam, M. Klene, J. E. Knox, J. B. Cross, 
 V. Bakken, C. Adamo, J. Jaramillo, R. Gomperts, R. E. Stratmann, 
 O. Yazyev, A. J. Austin, R. Cammi, C. Pomelli, J. W. Ochterski, 
 R. L. Martin, K. Morokuma, V. G. Zakrzewski, G. A. Voth, 
 P. Salvador, J. J. Dannenberg, S. Dapprich, A. D. Daniels, 
 O. Farkas, J. B. Foresman, J. V. Ortiz, J. Cioslowski, 
 and D. J. Fox, Gaussian, Inc., Wallingford CT, 2010.
 
 ******************************************
 Gaussian 09:  EM64L-G09RevC.01 23-Sep-2011
                29-Dec-2013 
 ******************************************
 %chk=6_C23H11N5S4.chk
 %NProcShared=12
 Will use up to   12 processors via shared memory.
 %Mem=8000MB
 Default route:  MaxDisk=100GB
 --------------------------------------------
 #B3LYP/6-31++G(d,p) opt scf=direct freq test
 --------------------------------------------
 1/14=-1,18=20,19=15,26=3,38=1/1,3;
 2/9=110,12=2,17=6,18=5,40=1/2;
 3/5=1,6=6,7=1111,11=2,16=1,25=1,30=1,71=1,74=-5/1,2,3;
 4//1;
 5/5=2,38=5/2;
 6/7=2,8=2,9=2,10=2,28=1/1;
 7//1,2,3,16;
 1/14=-1,18=20,19=15/3(2);
 2/9=110/2;
 99//99;
 2/9=110/2;
 3/5=1,6=6,7=1111,11=2,16=1,25=1,30=1,71=1,74=-5/1,2,3;
 4/5=5,16=3/1;
 5/5=2,38=5/2;
 7//1,2,3,16;
 1/14=-1,18=20,19=15/3(-5);
 2/9=110/2;
 6/7=2,8=2,9=2,10=2,19=2,28=1/1;
 99/9=1/99;
 ----------------------------------------------------------------------
 Geom opt of No.6 candidate from the CEPDB database with SMILE code of 
 [SiH2]1C=c2c3cc(cnc3c3c4cscc4c4ccccc4c3c2=C1)-c1cncc2nsnc12, HPC, 2013
 1227, Shuo Dai, Gaussian09
 ----------------------------------------------------------------------
 Charge =  0 Multiplicity = 1
 Symbolic Z-Matrix:
 Si                    2.63645  -0.47052   0.23941 
 H                     2.85008  -0.57178  -1.28089 
 H                     2.68786  -1.54702   1.21346 
 C                     1.18805   0.53153   1.55414 
 C                     1.4386    1.80579   1.5614 
 C                     0.67341   3.11065   1.9934 
 C                    -0.70862   3.12516   2.02546 
 C                    -1.32042   2.73192   0.862 
 C                    -0.55938   3.21784  -0.18173 
 N                     0.5125    4.12795  -0.01861 
 C                     1.11608   4.16419   1.22307 
 C                     2.59192   4.40681   1.27644 
 C                     3.31375   5.49408   1.93015 
 C                     2.8128    6.65254   2.49891 
 S                     4.03123   7.76798   3.03152 
 C                     5.28121   6.68059   2.61902 
 C                     4.77199   5.50036   2.08748 
 C                     5.58694   4.41386   1.67903 
 C                     7.00074   4.48711   1.81142 
 C                     7.77133   3.41799   1.41294 
 C                     7.13387   2.27127   0.95063 
 C                     5.72433   2.18282   0.83146 
 C                     4.86602   3.26288   1.10944 
 C                     3.39963   3.26572   0.85085 
 C                     2.45667   2.03306   0.50751 
 C                     2.04789   1.20692  -0.53047 
 C                    -2.73187   2.37004   0.77265 
 C                    -3.38258   1.65959  -0.24785 
 N                    -4.74125   1.48958  -0.4062 
 C                    -5.62793   2.04825   0.4755 
 C                    -5.11374   2.75768   1.57491 
 N                    -5.81489   3.38675   2.53471 
 S                    -4.71329   4.07459   3.56376 
 N                    -3.32318   3.58551   2.84504 
 C                    -3.64272   2.89196   1.73659 
 H                     0.17644   0.10145   1.69952 
 H                    -1.11421   4.13921   2.27694 
 H                    -0.43602   2.50268  -1.0008 
 H                     1.80751   7.01325   2.62463 
 H                     6.30285   7.01493   2.79471 
 H                     7.51537   5.37477   2.1775 
 H                     8.85603   3.48457   1.45948 
 H                     7.75081   1.43329   0.63816 
 H                     5.32278   1.24826   0.46029 
 H                     1.10558   0.52763  -0.67052 
 H                    -2.80902   1.17881  -1.0442 
 H                    -6.68515   1.92427   0.29167 
 

 GradGradGradGradGradGradGradGradGradGradGradGradGradGradGradGradGradGrad
 Berny optimization.
 Initialization pass.
                           ----------------------------
                           !    Initial Parameters    !
                           ! (Angstroms and Degrees)  !
 --------------------------                            --------------------------
 ! Name  Definition              Value          Derivative Info.                !
 --------------------------------------------------------------------------------
 ! R1    R(1,2)                  1.5386         estimate D2E/DX2                !
 ! R2    R(1,3)                  1.4527         estimate D2E/DX2                !
 ! R3    R(1,4)                  2.1978         estimate D2E/DX2                !
 ! R4    R(1,26)                 1.9372         estimate D2E/DX2                !
 ! R5    R(4,5)                  1.2987         estimate D2E/DX2                !
 ! R6    R(4,36)                 1.1088         estimate D2E/DX2                !
 ! R7    R(5,6)                  1.5731         estimate D2E/DX2                !
 ! R8    R(5,25)                 1.4828         estimate D2E/DX2                !
 ! R9    R(6,7)                  1.3825         estimate D2E/DX2                !
 ! R10   R(6,11)                 1.3782         estimate D2E/DX2                !
 ! R11   R(7,8)                  1.3721         estimate D2E/DX2                !
 ! R12   R(7,37)                 1.1207         estimate D2E/DX2                !
 ! R13   R(8,9)                  1.3801         estimate D2E/DX2                !
 ! R14   R(8,27)                 1.4598         estimate D2E/DX2                !
 ! R15   R(9,10)                 1.4156         estimate D2E/DX2                !
 ! R16   R(9,38)                 1.0943         estimate D2E/DX2                !
 ! R17   R(10,11)                1.3811         estimate D2E/DX2                !
 ! R18   R(11,12)                1.4966         estimate D2E/DX2                !
 ! R19   R(12,13)                1.4596         estimate D2E/DX2                !
 ! R20   R(12,24)                1.4614         estimate D2E/DX2                !
 ! R21   R(13,14)                1.3844         estimate D2E/DX2                !
 ! R22   R(13,17)                1.4667         estimate D2E/DX2                !
 ! R23   R(14,15)                1.7356         estimate D2E/DX2                !
 ! R24   R(14,39)                1.0754         estimate D2E/DX2                !
 ! R25   R(15,16)                1.7073         estimate D2E/DX2                !
 ! R26   R(16,17)                1.391          estimate D2E/DX2                !
 ! R27   R(16,40)                1.0892         estimate D2E/DX2                !
 ! R28   R(17,18)                1.4183         estimate D2E/DX2                !
 ! R29   R(18,19)                1.4219         estimate D2E/DX2                !
 ! R30   R(18,23)                1.4727         estimate D2E/DX2                !
 ! R31   R(19,20)                1.3768         estimate D2E/DX2                !
 ! R32   R(19,41)                1.0894         estimate D2E/DX2                !
 ! R33   R(20,21)                1.3911         estimate D2E/DX2                !
 ! R34   R(20,42)                1.0877         estimate D2E/DX2                !
 ! R35   R(21,22)                1.4173         estimate D2E/DX2                !
 ! R36   R(21,43)                1.0865         estimate D2E/DX2                !
 ! R37   R(22,23)                1.4073         estimate D2E/DX2                !
 ! R38   R(22,44)                1.0828         estimate D2E/DX2                !
 ! R39   R(23,24)                1.489          estimate D2E/DX2                !
 ! R40   R(24,25)                1.5895         estimate D2E/DX2                !
 ! R41   R(25,26)                1.3882         estimate D2E/DX2                !
 ! R42   R(26,45)                1.17           estimate D2E/DX2                !
 ! R43   R(27,28)                1.4034         estimate D2E/DX2                !
 ! R44   R(27,35)                1.4252         estimate D2E/DX2                !
 ! R45   R(28,29)                1.3784         estimate D2E/DX2                !
 ! R46   R(28,46)                1.0928         estimate D2E/DX2                !
 ! R47   R(29,30)                1.3696         estimate D2E/DX2                !
 ! R48   R(30,31)                1.4058         estimate D2E/DX2                !
 ! R49   R(30,47)                1.0802         estimate D2E/DX2                !
 ! R50   R(31,32)                1.3448         estimate D2E/DX2                !
 ! R51   R(31,35)                1.486          estimate D2E/DX2                !
 ! R52   R(32,33)                1.657          estimate D2E/DX2                !
 ! R53   R(33,34)                1.6396         estimate D2E/DX2                !
 ! R54   R(34,35)                1.346          estimate D2E/DX2                !
 ! A1    A(2,1,3)              127.508          estimate D2E/DX2                !
 ! A2    A(2,1,4)              135.4468         estimate D2E/DX2                !
 ! A3    A(2,1,26)              72.9313         estimate D2E/DX2                !
 ! A4    A(3,1,4)               87.7123         estimate D2E/DX2                !
 ! A5    A(3,1,26)             156.7639         estimate D2E/DX2                !
 ! A6    A(4,1,26)              69.0674         estimate D2E/DX2                !
 ! A7    A(1,4,5)              108.8781         estimate D2E/DX2                !
 ! A8    A(1,4,36)             120.1875         estimate D2E/DX2                !
 ! A9    A(5,4,36)             123.7702         estimate D2E/DX2                !
 ! A10   A(4,5,6)              136.183          estimate D2E/DX2                !
 ! A11   A(4,5,25)             106.1928         estimate D2E/DX2                !
 ! A12   A(6,5,25)             113.7029         estimate D2E/DX2                !
 ! A13   A(5,6,7)              120.0875         estimate D2E/DX2                !
 ! A14   A(5,6,11)             108.9264         estimate D2E/DX2                !
 ! A15   A(7,6,11)             109.0286         estimate D2E/DX2                !
 ! A16   A(6,7,8)              115.0291         estimate D2E/DX2                !
 ! A17   A(6,7,37)             112.1158         estimate D2E/DX2                !
 ! A18   A(8,7,37)             106.7518         estimate D2E/DX2                !
 ! A19   A(7,8,9)              107.1272         estimate D2E/DX2                !
 ! A20   A(7,8,27)             123.6461         estimate D2E/DX2                !
 ! A21   A(9,8,27)             125.0403         estimate D2E/DX2                !
 ! A22   A(8,9,10)             123.8331         estimate D2E/DX2                !
 ! A23   A(8,9,38)             113.4602         estimate D2E/DX2                !
 ! A24   A(10,9,38)            114.9012         estimate D2E/DX2                !
 ! A25   A(9,10,11)            116.8334         estimate D2E/DX2                !
 ! A26   A(6,11,10)            110.0049         estimate D2E/DX2                !
 ! A27   A(6,11,12)            114.8816         estimate D2E/DX2                !
 ! A28   A(10,11,12)           117.8583         estimate D2E/DX2                !
 ! A29   A(11,12,13)           128.6379         estimate D2E/DX2                !
 ! A30   A(11,12,24)           114.0836         estimate D2E/DX2                !
 ! A31   A(13,12,24)           116.0233         estimate D2E/DX2                !
 ! A32   A(12,13,14)           128.9313         estimate D2E/DX2                !
 ! A33   A(12,13,17)           122.8813         estimate D2E/DX2                !
 ! A34   A(14,13,17)           108.1869         estimate D2E/DX2                !
 ! A35   A(13,14,15)           114.1948         estimate D2E/DX2                !
 ! A36   A(13,14,39)           131.8339         estimate D2E/DX2                !
 ! A37   A(15,14,39)           113.8782         estimate D2E/DX2                !
 ! A38   A(14,15,16)            91.748          estimate D2E/DX2                !
 ! A39   A(15,16,17)           111.3893         estimate D2E/DX2                !
 ! A40   A(15,16,40)           116.8869         estimate D2E/DX2                !
 ! A41   A(17,16,40)           131.7181         estimate D2E/DX2                !
 ! A42   A(13,17,16)           114.1169         estimate D2E/DX2                !
 ! A43   A(13,17,18)           122.4878         estimate D2E/DX2                !
 ! A44   A(16,17,18)           123.3471         estimate D2E/DX2                !
 ! A45   A(17,18,19)           120.336          estimate D2E/DX2                !
 ! A46   A(17,18,23)           115.3926         estimate D2E/DX2                !
 ! A47   A(19,18,23)           124.2641         estimate D2E/DX2                !
 ! A48   A(18,19,20)           119.3118         estimate D2E/DX2                !
 ! A49   A(18,19,41)           122.8867         estimate D2E/DX2                !
 ! A50   A(20,19,41)           117.7476         estimate D2E/DX2                !
 ! A51   A(19,20,21)           118.6742         estimate D2E/DX2                !
 ! A52   A(19,20,42)           119.882          estimate D2E/DX2                !
 ! A53   A(21,20,42)           121.4432         estimate D2E/DX2                !
 ! A54   A(20,21,22)           122.3523         estimate D2E/DX2                !
 ! A55   A(20,21,43)           118.1101         estimate D2E/DX2                !
 ! A56   A(22,21,43)           119.498          estimate D2E/DX2                !
 ! A57   A(21,22,23)           122.8228         estimate D2E/DX2                !
 ! A58   A(21,22,44)           116.8398         estimate D2E/DX2                !
 ! A59   A(23,22,44)           120.2611         estimate D2E/DX2                !
 ! A60   A(18,23,22)           112.1877         estimate D2E/DX2                !
 ! A61   A(18,23,24)           123.2129         estimate D2E/DX2                !
 ! A62   A(22,23,24)           124.5962         estimate D2E/DX2                !
 ! A63   A(12,24,23)           119.6843         estimate D2E/DX2                !
 ! A64   A(12,24,25)           109.9107         estimate D2E/DX2                !
 ! A65   A(23,24,25)           128.3352         estimate D2E/DX2                !
 ! A66   A(5,25,24)            111.8786         estimate D2E/DX2                !
 ! A67   A(5,25,26)            103.771          estimate D2E/DX2                !
 ! A68   A(24,25,26)           142.9142         estimate D2E/DX2                !
 ! A69   A(1,26,25)             97.3942         estimate D2E/DX2                !
 ! A70   A(1,26,45)             77.8507         estimate D2E/DX2                !
 ! A71   A(25,26,45)           132.2351         estimate D2E/DX2                !
 ! A72   A(8,27,28)            128.1911         estimate D2E/DX2                !
 ! A73   A(8,27,35)            119.0609         estimate D2E/DX2                !
 ! A74   A(28,27,35)           112.3874         estimate D2E/DX2                !
 ! A75   A(27,28,29)           127.0851         estimate D2E/DX2                !
 ! A76   A(27,28,46)           120.6132         estimate D2E/DX2                !
 ! A77   A(29,28,46)           112.2935         estimate D2E/DX2                !
 ! A78   A(28,29,30)           120.9229         estimate D2E/DX2                !
 ! A79   A(29,30,31)           118.1973         estimate D2E/DX2                !
 ! A80   A(29,30,47)           118.5064         estimate D2E/DX2                !
 ! A81   A(31,30,47)           123.2962         estimate D2E/DX2                !
 ! A82   A(30,31,32)           127.1205         estimate D2E/DX2                !
 ! A83   A(30,31,35)           119.5226         estimate D2E/DX2                !
 ! A84   A(32,31,35)           113.341          estimate D2E/DX2                !
 ! A85   A(31,32,33)           106.9056         estimate D2E/DX2                !
 ! A86   A(32,33,34)            99.6486         estimate D2E/DX2                !
 ! A87   A(33,34,35)           108.2651         estimate D2E/DX2                !
 ! A88   A(27,35,31)           121.7349         estimate D2E/DX2                !
 ! A89   A(27,35,34)           126.4374         estimate D2E/DX2                !
 ! A90   A(31,35,34)           111.7879         estimate D2E/DX2                !
 ! D1    D(2,1,4,5)            -73.6157         estimate D2E/DX2                !
 ! D2    D(2,1,4,36)            77.8525         estimate D2E/DX2                !
 ! D3    D(3,1,4,5)            140.4919         estimate D2E/DX2                !
 ! D4    D(3,1,4,36)           -68.0399         estimate D2E/DX2                !
 ! D5    D(26,1,4,5)           -40.3842         estimate D2E/DX2                !
 ! D6    D(26,1,4,36)          111.0841         estimate D2E/DX2                !
 ! D7    D(2,1,26,25)         -144.8264         estimate D2E/DX2                !
 ! D8    D(2,1,26,45)           83.4605         estimate D2E/DX2                !
 ! D9    D(3,1,26,25)           61.1083         estimate D2E/DX2                !
 ! D10   D(3,1,26,45)          -70.6048         estimate D2E/DX2                !
 ! D11   D(4,1,26,25)           58.889          estimate D2E/DX2                !
 ! D12   D(4,1,26,45)          -72.8242         estimate D2E/DX2                !
 ! D13   D(1,4,5,6)            163.9327         estimate D2E/DX2                !
 ! D14   D(1,4,5,25)             8.8061         estimate D2E/DX2                !
 ! D15   D(36,4,5,6)            13.7128         estimate D2E/DX2                !
 ! D16   D(36,4,5,25)         -141.4138         estimate D2E/DX2                !
 ! D17   D(4,5,6,7)            -24.7207         estimate D2E/DX2                !
 ! D18   D(4,5,6,11)          -151.3771         estimate D2E/DX2                !
 ! D19   D(25,5,6,7)           129.1025         estimate D2E/DX2                !
 ! D20   D(25,5,6,11)            2.4461         estimate D2E/DX2                !
 ! D21   D(4,5,25,24)         -150.1151         estimate D2E/DX2                !
 ! D22   D(4,5,25,26)           40.3042         estimate D2E/DX2                !
 ! D23   D(6,5,25,24)           48.4296         estimate D2E/DX2                !
 ! D24   D(6,5,25,26)         -121.151          estimate D2E/DX2                !
 ! D25   D(5,6,7,8)            -53.55           estimate D2E/DX2                !
 ! D26   D(5,6,7,37)          -175.7658         estimate D2E/DX2                !
 ! D27   D(11,6,7,8)            73.0592         estimate D2E/DX2                !
 ! D28   D(11,6,7,37)          -49.1566         estimate D2E/DX2                !
 ! D29   D(5,6,11,10)           79.1682         estimate D2E/DX2                !
 ! D30   D(5,6,11,12)          -56.6413         estimate D2E/DX2                !
 ! D31   D(7,6,11,10)          -53.587          estimate D2E/DX2                !
 ! D32   D(7,6,11,12)          170.6035         estimate D2E/DX2                !
 ! D33   D(6,7,8,9)            -37.203          estimate D2E/DX2                !
 ! D34   D(6,7,8,27)           164.8564         estimate D2E/DX2                !
 ! D35   D(37,7,8,9)            87.8586         estimate D2E/DX2                !
 ! D36   D(37,7,8,27)          -70.082          estimate D2E/DX2                !
 ! D37   D(7,8,9,10)            -9.215          estimate D2E/DX2                !
 ! D38   D(7,8,9,38)           138.2924         estimate D2E/DX2                !
 ! D39   D(27,8,9,10)          148.3358         estimate D2E/DX2                !
 ! D40   D(27,8,9,38)          -64.1569         estimate D2E/DX2                !
 ! D41   D(7,8,27,28)         -163.0484         estimate D2E/DX2                !
 ! D42   D(7,8,27,35)           24.4091         estimate D2E/DX2                !
 ! D43   D(9,8,27,28)           42.9513         estimate D2E/DX2                !
 ! D44   D(9,8,27,35)         -129.5912         estimate D2E/DX2                !
 ! D45   D(8,9,10,11)           23.2499         estimate D2E/DX2                !
 ! D46   D(38,9,10,11)        -123.842          estimate D2E/DX2                !
 ! D47   D(9,10,11,6)           10.3943         estimate D2E/DX2                !
 ! D48   D(9,10,11,12)         144.7316         estimate D2E/DX2                !
 ! D49   D(6,11,12,13)        -107.6828         estimate D2E/DX2                !
 ! D50   D(6,11,12,24)          58.86           estimate D2E/DX2                !
 ! D51   D(10,11,12,13)        120.121          estimate D2E/DX2                !
 ! D52   D(10,11,12,24)        -73.3362         estimate D2E/DX2                !
 ! D53   D(11,12,13,14)         -9.7238         estimate D2E/DX2                !
 ! D54   D(11,12,13,17)        169.9783         estimate D2E/DX2                !
 ! D55   D(24,12,13,14)       -176.0479         estimate D2E/DX2                !
 ! D56   D(24,12,13,17)          3.6542         estimate D2E/DX2                !
 ! D57   D(11,12,24,23)       -167.7017         estimate D2E/DX2                !
 ! D58   D(11,12,24,25)         -2.7264         estimate D2E/DX2                !
 ! D59   D(13,12,24,23)          0.6276         estimate D2E/DX2                !
 ! D60   D(13,12,24,25)        165.6029         estimate D2E/DX2                !
 ! D61   D(12,13,14,15)       -174.0725         estimate D2E/DX2                !
 ! D62   D(12,13,14,39)          2.1398         estimate D2E/DX2                !
 ! D63   D(17,13,14,15)          6.1908         estimate D2E/DX2                !
 ! D64   D(17,13,14,39)       -177.5968         estimate D2E/DX2                !
 ! D65   D(12,13,17,16)        174.0727         estimate D2E/DX2                !
 ! D66   D(12,13,17,18)         -3.4793         estimate D2E/DX2                !
 ! D67   D(14,13,17,16)         -6.1713         estimate D2E/DX2                !
 ! D68   D(14,13,17,18)        176.2768         estimate D2E/DX2                !
 ! D69   D(13,14,15,16)         -3.8741         estimate D2E/DX2                !
 ! D70   D(39,14,15,16)        179.2115         estimate D2E/DX2                !
 ! D71   D(14,15,16,17)          0.0868         estimate D2E/DX2                !
 ! D72   D(14,15,16,40)        179.3129         estimate D2E/DX2                !
 ! D73   D(15,16,17,13)          3.5019         estimate D2E/DX2                !
 ! D74   D(15,16,17,18)       -178.9701         estimate D2E/DX2                !
 ! D75   D(40,16,17,13)       -175.5733         estimate D2E/DX2                !
 ! D76   D(40,16,17,18)          1.9547         estimate D2E/DX2                !
 ! D77   D(13,17,18,19)        177.8539         estimate D2E/DX2                !
 ! D78   D(13,17,18,23)         -1.2062         estimate D2E/DX2                !
 ! D79   D(16,17,18,19)          0.5288         estimate D2E/DX2                !
 ! D80   D(16,17,18,23)       -178.5313         estimate D2E/DX2                !
 ! D81   D(17,18,19,20)        179.7518         estimate D2E/DX2                !
 ! D82   D(17,18,19,41)         -2.9811         estimate D2E/DX2                !
 ! D83   D(23,18,19,20)         -1.2756         estimate D2E/DX2                !
 ! D84   D(23,18,19,41)        175.9915         estimate D2E/DX2                !
 ! D85   D(17,18,23,22)       -175.0248         estimate D2E/DX2                !
 ! D86   D(17,18,23,24)          5.5941         estimate D2E/DX2                !
 ! D87   D(19,18,23,22)          5.9567         estimate D2E/DX2                !
 ! D88   D(19,18,23,24)       -173.4244         estimate D2E/DX2                !
 ! D89   D(18,19,20,21)         -3.0197         estimate D2E/DX2                !
 ! D90   D(18,19,20,42)        176.6814         estimate D2E/DX2                !
 ! D91   D(41,19,20,21)        179.5734         estimate D2E/DX2                !
 ! D92   D(41,19,20,42)         -0.7256         estimate D2E/DX2                !
 ! D93   D(19,20,21,22)          2.2771         estimate D2E/DX2                !
 ! D94   D(19,20,21,43)        179.975          estimate D2E/DX2                !
 ! D95   D(42,20,21,22)       -177.419          estimate D2E/DX2                !
 ! D96   D(42,20,21,43)          0.2788         estimate D2E/DX2                !
 ! D97   D(20,21,22,23)          3.0829         estimate D2E/DX2                !
 ! D98   D(20,21,22,44)        179.9091         estimate D2E/DX2                !
 ! D99   D(43,21,22,23)       -174.5841         estimate D2E/DX2                !
 ! D100  D(43,21,22,44)          2.2421         estimate D2E/DX2                !
 ! D101  D(21,22,23,18)         -6.6981         estimate D2E/DX2                !
 ! D102  D(21,22,23,24)        172.6728         estimate D2E/DX2                !
 ! D103  D(44,22,23,18)        176.5806         estimate D2E/DX2                !
 ! D104  D(44,22,23,24)         -4.0484         estimate D2E/DX2                !
 ! D105  D(18,23,24,12)         -5.4325         estimate D2E/DX2                !
 ! D106  D(18,23,24,25)       -167.3289         estimate D2E/DX2                !
 ! D107  D(22,23,24,12)        175.2637         estimate D2E/DX2                !
 ! D108  D(22,23,24,25)         13.3673         estimate D2E/DX2                !
 ! D109  D(12,24,25,5)         -47.1224         estimate D2E/DX2                !
 ! D110  D(12,24,25,26)        115.9422         estimate D2E/DX2                !
 ! D111  D(23,24,25,5)         116.192          estimate D2E/DX2                !
 ! D112  D(23,24,25,26)        -80.7434         estimate D2E/DX2                !
 ! D113  D(5,25,26,1)          -75.7427         estimate D2E/DX2                !
 ! D114  D(5,25,26,45)           4.538          estimate D2E/DX2                !
 ! D115  D(24,25,26,1)         120.4168         estimate D2E/DX2                !
 ! D116  D(24,25,26,45)       -159.3025         estimate D2E/DX2                !
 ! D117  D(8,27,28,29)        -170.1791         estimate D2E/DX2                !
 ! D118  D(8,27,28,46)           8.6944         estimate D2E/DX2                !
 ! D119  D(35,27,28,29)          2.7731         estimate D2E/DX2                !
 ! D120  D(35,27,28,46)       -178.3534         estimate D2E/DX2                !
 ! D121  D(8,27,35,31)         169.3868         estimate D2E/DX2                !
 ! D122  D(8,27,35,34)          -8.1276         estimate D2E/DX2                !
 ! D123  D(28,27,35,31)         -4.2792         estimate D2E/DX2                !
 ! D124  D(28,27,35,34)        178.2064         estimate D2E/DX2                !
 ! D125  D(27,28,29,30)          0.5559         estimate D2E/DX2                !
 ! D126  D(46,28,29,30)       -178.3963         estimate D2E/DX2                !
 ! D127  D(28,29,30,31)         -2.3525         estimate D2E/DX2                !
 ! D128  D(28,29,30,47)        177.5294         estimate D2E/DX2                !
 ! D129  D(29,30,31,32)        179.1534         estimate D2E/DX2                !
 ! D130  D(29,30,31,35)          0.7054         estimate D2E/DX2                !
 ! D131  D(47,30,31,32)         -0.7224         estimate D2E/DX2                !
 ! D132  D(47,30,31,35)       -179.1705         estimate D2E/DX2                !
 ! D133  D(30,31,32,33)       -179.1191         estimate D2E/DX2                !
 ! D134  D(35,31,32,33)         -0.59           estimate D2E/DX2                !
 ! D135  D(30,31,35,27)          2.8282         estimate D2E/DX2                !
 ! D136  D(30,31,35,34)       -179.3251         estimate D2E/DX2                !
 ! D137  D(32,31,35,27)       -175.8241         estimate D2E/DX2                !
 ! D138  D(32,31,35,34)          2.0227         estimate D2E/DX2                !
 ! D139  D(31,32,33,34)         -0.7176         estimate D2E/DX2                !
 ! D140  D(32,33,34,35)          1.8914         estimate D2E/DX2                !
 ! D141  D(33,34,35,27)        175.329          estimate D2E/DX2                !
 ! D142  D(33,34,35,31)         -2.3945         estimate D2E/DX2                !
 --------------------------------------------------------------------------------
 Trust Radius=3.00D-01 FncErr=1.00D-07 GrdErr=1.00D-06
 Number of steps in this run=    282 maximum allowed number of steps=    282.
 GradGradGradGradGradGradGradGradGradGradGradGradGradGradGradGradGradGrad

                          Input orientation:                          
 ---------------------------------------------------------------------
 Center     Atomic      Atomic             Coordinates (Angstroms)
 Number     Number       Type             X           Y           Z
 ---------------------------------------------------------------------
      1         14           0        2.636450   -0.470520    0.239410
      2          1           0        2.850080   -0.571780   -1.280890
      3          1           0        2.687860   -1.547020    1.213460
      4          6           0        1.188050    0.531530    1.554140
      5          6           0        1.438600    1.805790    1.561400
      6          6           0        0.673410    3.110650    1.993400
      7          6           0       -0.708620    3.125160    2.025460
      8          6           0       -1.320420    2.731920    0.862000
      9          6           0       -0.559380    3.217840   -0.181730
     10          7           0        0.512500    4.127950   -0.018610
     11          6           0        1.116080    4.164190    1.223070
     12          6           0        2.591920    4.406810    1.276440
     13          6           0        3.313750    5.494080    1.930150
     14          6           0        2.812800    6.652540    2.498910
     15         16           0        4.031230    7.767980    3.031520
     16          6           0        5.281210    6.680590    2.619020
     17          6           0        4.771990    5.500360    2.087480
     18          6           0        5.586940    4.413860    1.679030
     19          6           0        7.000740    4.487110    1.811420
     20          6           0        7.771330    3.417990    1.412940
     21          6           0        7.133870    2.271270    0.950630
     22          6           0        5.724330    2.182820    0.831460
     23          6           0        4.866020    3.262880    1.109440
     24          6           0        3.399630    3.265720    0.850850
     25          6           0        2.456670    2.033060    0.507510
     26          6           0        2.047890    1.206920   -0.530470
     27          6           0       -2.731870    2.370040    0.772650
     28          6           0       -3.382580    1.659590   -0.247850
     29          7           0       -4.741250    1.489580   -0.406200
     30          6           0       -5.627930    2.048250    0.475500
     31          6           0       -5.113740    2.757680    1.574910
     32          7           0       -5.814890    3.386750    2.534710
     33         16           0       -4.713290    4.074590    3.563760
     34          7           0       -3.323180    3.585510    2.845040
     35          6           0       -3.642720    2.891960    1.736590
     36          1           0        0.176440    0.101450    1.699520
     37          1           0       -1.114210    4.139210    2.276940
     38          1           0       -0.436020    2.502680   -1.000800
     39          1           0        1.807510    7.013250    2.624630
     40          1           0        6.302850    7.014930    2.794710
     41          1           0        7.515370    5.374770    2.177500
     42          1           0        8.856030    3.484570    1.459480
     43          1           0        7.750810    1.433290    0.638160
     44          1           0        5.322780    1.248260    0.460290
     45          1           0        1.105580    0.527630   -0.670520
     46          1           0       -2.809020    1.178810   -1.044200
     47          1           0       -6.685150    1.924270    0.291670
 ---------------------------------------------------------------------
                    Distance matrix (angstroms):
                    1          2          3          4          5
     1  Si   0.000000
     2  H    1.538572   0.000000
     3  H    1.452676   2.683131   0.000000
     4  C    2.197836   3.466559   2.585704   0.000000
     5  C    2.892074   3.965316   3.594864   1.298679   0.000000
     6  C    4.444636   5.386943   5.134219   2.666395   1.573150
     7  C    5.225742   6.104397   5.833068   3.247525   2.562546
     8  C    5.128358   5.735807   5.873599   3.407814   2.993170
     9  C    4.898437   5.214767   5.932539   3.644587   3.004049
    10  N    5.071850   5.398620   6.201248   3.982982   2.957452
    11  C    4.975907   5.630807   5.923555   3.648425   2.404275
    12  C    4.986558   5.602940   5.954936   4.131073   2.859485
    13  C    6.236489   6.878984   7.105102   5.411736   4.153992
    14  C    7.474920   8.153470   8.300649   6.403059   5.124289
    15  S    8.809891   9.462748   9.585364   7.914072   6.665635
    16  C    7.987219   8.585835   8.740402   7.463167   6.296657
    17  C    6.605097   7.204897   7.400883   6.149663   5.003808
    18  C    5.885156   6.411563   6.644811   5.868417   4.901489
    19  C    6.789428   7.237591   7.441049   7.035636   6.179756
    20  C    6.547112   6.884307   7.108641   7.189657   6.536413
    21  C    5.315076   5.604772   5.866466   6.224443   5.746809
    22  C    4.114090   4.506790   4.824705   4.881277   4.363765
    23  C    4.434660   4.947960   5.281130   4.602770   3.751611
    24  C    3.862097   4.424107   4.878583   3.586293   2.545961
    25  C    2.524304   3.184076   3.656335   2.226976   1.482836
    26  C    1.937246   2.090553   3.321903   2.353949   2.259602
    27  C    6.096883   6.635473   6.701578   4.399616   4.281743
    28  C    6.403399   6.700167   7.019118   5.040868   5.151557
    29  N    7.660892   7.914706   8.187546   6.318021   6.493226
    30  C    8.642911   9.045779   9.089715   7.065514   7.153587
    31  C    8.501193   9.091937   8.917738   6.683467   6.621136
    32  N    9.569330  10.262089   9.918898   7.625940   7.487315
    33  S    9.258942  10.112564   9.586628   7.170611   6.855848
    34  N    7.665369   8.509730   8.070782   5.598608   5.243061
    35  C    7.278447   7.953561   7.749481   5.379708   5.199064
    36  H    2.917314   4.060103   3.043179   1.108810   2.125300
    37  H    6.282403   7.111060   6.922423   4.340299   3.531810
    38  H    4.451754   4.508792   5.573297   3.612583   3.250342
    39  H    7.898305   8.594924   8.720358   6.598665   5.327682
    40  H    8.718028   9.278486   9.427380   8.350729   7.233058
    41  H    7.856683   8.311850   8.493845   7.992530   7.074202
    42  H    7.470909   7.748228   7.963903   8.217501   7.605719
    43  H    5.471761   5.632070   5.903108   6.687452   6.390237
    44  H    3.196774   3.529660   3.914545   4.336612   4.075554
    45  H    2.041529   2.150473   3.218255   2.226192   2.593465
    46  H    5.832760   5.928406   6.537803   4.811124   5.022403
    47  H    9.624447   9.981173  10.037573   8.094494   8.223233
                    6          7          8          9         10
     6  C    0.000000
     7  C    1.382478   0.000000
     8  C    2.323545   1.372070   0.000000
     9  C    2.502489   2.214170   1.380099   0.000000
    10  N    2.260304   2.583591   2.466570   1.415569   0.000000
    11  C    1.378155   2.247875   2.849263   2.382479   1.381083
    12  C    2.423787   3.619008   4.275912   3.670232   2.465544
    13  C    3.557546   4.669082   5.499637   4.964115   3.675728
    14  C    4.168635   5.006692   5.927415   5.509500   4.242976
    15  S    5.834670   6.710746   7.662172   7.218203   5.910548
    16  C    5.862397   6.990812   7.890541   7.344885   6.017778
    17  C    4.745305   5.973484   6.803199   6.227577   4.945946
    18  C    5.093129   6.435436   7.155982   6.532239   5.358514
    19  C    6.477875   7.831663   8.557090   7.920802   6.750945
    20  C    7.128244   8.507084   9.134229   8.484324   7.432630
    21  C    6.597687   7.961723   8.467294   7.833539   6.944727
    22  C    5.265241   6.610332   7.066183   6.448475   5.627550
    23  C    4.287486   5.651077   6.214112   5.577106   4.579736
    24  C    2.960024   4.275182   4.750151   4.091732   3.136068
    25  C    2.559118   3.676400   3.857522   3.312901   2.906056
    26  C    3.447217   4.220281   3.950963   3.311084   3.339437
    27  C    3.692515   2.496654   1.459840   2.519785   3.773894
    28  C    4.855907   3.803406   2.575687   3.225364   4.617034
    29  N    6.140398   4.984997   3.854065   4.530486   5.891783
    30  C    6.568074   5.268939   4.378519   5.243099   6.501860
    31  C    5.812988   4.443323   3.859816   4.903032   6.005957
    32  N    6.516693   5.138264   4.840147   5.918443   6.863285
    33  S    5.693132   4.393764   4.540246   5.658417   6.336016
    34  N    4.113820   2.778409   2.944845   4.115229   4.817382
    35  C    4.329290   2.957494   2.486684   3.645975   4.676992
    36  H    3.064087   3.167395   3.140287   3.713815   4.390627
    37  H    2.081806   1.120733   2.006251   2.683620   2.813514
    38  H    3.250492   3.101619   2.074786   1.094325   2.122708
    39  H    4.112775   4.669814   5.587539   5.280432   4.121738
    40  H    6.897543   8.054984   8.955098   8.388521   7.055323
    41  H    7.209199   8.527478   9.315921   8.684463   7.444303
    42  H    8.208542   9.588120  10.221722   9.561101   8.497834
    43  H    7.398635   8.737790   9.166447   8.539092   7.751495
    44  H    5.237897   6.507711   6.818704   6.236284   5.626789
    45  H    3.735670   4.160143   3.618423   3.201287   3.706620
    46  H    5.008626   4.197948   2.874314   3.156323   4.558701
    47  H    7.645377   6.337750   5.455080   6.278733   7.533833
                   11         12         13         14         15
    11  C    0.000000
    12  C    1.496602   0.000000
    13  C    2.664268   1.459634   0.000000
    14  C    3.270858   2.566422   1.384366   0.000000
    15  S    4.975529   4.055784   2.626483   1.735642   0.000000
    16  C    5.062534   3.768936   2.398593   2.471490   1.707344
    17  C    3.987259   2.570281   1.466716   2.309809   2.565548
    18  C    4.500980   3.021965   2.529294   3.657833   3.936951
    19  C    5.922808   4.441885   3.823870   4.764512   4.590288
    20  C    6.699643   5.274721   4.944459   6.019025   5.960752
    21  C    6.314362   5.029512   5.093062   6.345419   6.646074
    22  C    5.031417   3.867316   4.240573   5.588899   6.237056
    23  C    3.858409   2.551077   2.839254   4.199540   4.968621
    24  C    2.482015   1.461372   2.477469   3.811958   5.042280
    25  C    2.617427   2.498847   3.838900   5.043025   6.460586
    26  C    3.562109   3.714860   5.102626   6.278297   7.724566
    27  C    4.269493   5.722323   6.902822   7.215480   8.943141
    28  C    5.354864   6.750209   8.017969   8.417658  10.150432
    29  N    6.642016   8.069504   9.293954   9.599974  11.322218
    30  C    7.107583   8.588961   9.692440   9.825457  11.512946
    31  C    6.396305   7.885804   8.867732   8.879963  10.528784
    32  N    7.096700   8.561438   9.388205   9.225167  10.788331
    33  S    6.282389   7.662134   8.313664   8.026317   9.507420
    34  N    4.761584   6.174419   6.966240   6.868532   8.462575
    35  C    4.952620   6.432515   7.429735   7.509782   9.183786
    36  H    4.197116   4.954762   6.243105   7.106771   8.683854
    37  H    2.466872   3.848118   4.643573   4.667709   6.341365
    38  H    3.180445   4.240278   5.621363   6.326463   7.996206
    39  H    3.249552   3.037506   2.249209   1.075419   2.383298
    40  H    6.123672   4.783141   3.463404   3.521260   2.404874
    41  H    6.582352   5.097962   4.210585   4.883663   4.312312
    42  H    7.773326   6.334280   5.914096   6.901962   6.640603
    43  H    7.198582   5.988603   6.151972   7.422055   7.726043
    44  H    5.175017   4.254425   4.921756   6.297794   7.126435
    45  H    4.100044   4.587799   6.025373   7.104534   8.642175
    46  H    5.427653   6.706378   8.059567   8.609309  10.335264
    47  H    8.169696   9.653849  10.742726  10.836951  12.509857
                   16         17         18         19         20
    16  C    0.000000
    17  C    1.390965   0.000000
    18  C    2.472876   1.418258   0.000000
    19  C    2.901785   2.463780   1.421873   0.000000
    20  C    4.277837   3.713127   2.415392   1.376813   0.000000
    21  C    5.065370   4.159078   2.741213   2.380888   1.391062
    22  C    4.860212   3.672956   2.390563   2.810569   2.460482
    23  C    3.759249   2.443710   1.472723   2.559012   2.925235
    24  C    4.281134   2.899352   2.605462   3.922051   4.410317
    25  C    5.834041   4.458608   4.103567   5.326454   5.566278
    26  C    7.094696   5.719092   5.262246   6.385516   6.436104
    27  C    9.284362   8.236237   8.614019  10.014226  10.574752
    28  C   10.415884   9.311407   9.578683  10.956678  11.413146
    29  N   11.685386  10.621042  10.934857  12.319795  12.790336
    30  C   12.044193  11.075824  11.524665  12.931204  13.501672
    31  C   11.159497  10.271936  10.828588  12.239587  12.902995
    32  N   11.574970  10.805063  11.479933  12.883102  13.632488
    33  S   10.371779   9.704780  10.476738  11.851555  12.685538
    34  N    9.146919   8.352983   9.024189  10.414633  11.187811
    35  C    9.734933   8.816701   9.354470  10.762590  11.430748
    36  H    8.377902   7.100551   6.918873   8.112805   8.292401
    37  H    6.890358   6.044500   6.733375   8.135733   8.956533
    38  H    7.952657   6.756251   6.863683   8.194629   8.603751
    39  H    3.489597   3.371277   4.683490   5.832009   7.068326
    40  H    1.089219   2.266634   2.919389   2.800676   4.123554
    41  H    2.625181   2.747728   2.211484   1.089403   2.116378
    42  H    4.933398   4.597518   3.405691   2.138001   1.087738
    43  H    6.128367   5.245470   3.827472   3.356331   2.130666
    44  H    5.845687   4.586008   3.402371   3.889891   3.407443
    45  H    8.131167   6.765883   6.380106   7.522660   7.558254
    46  H   10.447037   9.271188   9.400727  10.739218  11.090323
    47  H   13.085599  12.135873  12.598691  14.006476  14.576634
                   21         22         23         24         25
    21  C    0.000000
    22  C    1.417331   0.000000
    23  C    2.480253   1.407302   0.000000
    24  C    3.865674   2.564621   1.489019   0.000000
    25  C    4.704179   3.287092   2.771235   1.589499   0.000000
    26  C    5.403119   4.040228   3.854625   2.823810   1.388168
    27  C    9.867840   8.458477   7.657579   6.197068   5.206227
    28  C   10.602180   9.185559   8.511884   7.055861   5.899736
    29  N   11.977917  10.561285   9.886425   8.426670   7.276008
    30  C   12.772589  11.358637  10.583014   9.117015   8.084678
    31  C   12.273152  10.878738  10.003374   8.559196   7.679552
    32  N   13.092898  11.726214  10.776297   9.367893   8.623266
    33  S   12.265220  10.953911   9.921983   8.592649   8.057098
    34  N   10.708217   9.374406   8.377314   7.019632   6.425015
    35  C   10.823026   9.437360   8.539880   7.107667   6.280996
    36  H    7.326308   5.988715   5.686387   4.595846   3.217368
    37  H    8.560323   7.258271   6.155823   4.813675   4.507542
    38  H    7.820797   6.435014   5.756965   4.327014   3.295937
    39  H    7.325214   6.472248   5.071051   4.441297   5.450312
    40  H    5.156892   5.247697   4.356890   5.124827   6.696522
    41  H    3.358938   3.899768   3.552448   4.811175   6.288588
    42  H    2.167224   3.449131   4.011465   5.494600   6.630606
    43  H    1.086491   2.169281   3.448408   4.726077   5.329607
    44  H    2.137061   1.082780   2.165345   2.814460   2.971990
    45  H    6.481411   5.131126   4.979032   3.882572   2.340837
    46  H   10.199700   8.794555   8.239402   6.818632   5.555631
    47  H   13.839073  12.423905  11.657193  10.188963   9.145015
                   26         27         28         29         30
    26  C    0.000000
    27  C    5.088917   0.000000
    28  C    5.456628   1.403418   0.000000
    29  N    6.796158   2.490483   1.378391   0.000000
    30  C    7.787042   2.928995   2.390792   1.369565   0.000000
    31  C    7.624069   2.543067   2.743204   2.381517   1.405839
    32  N    8.716094   3.693720   4.079443   3.660725   2.463104
    33  S    8.408318   3.823848   4.704401   4.737472   3.805256
    34  N    6.774965   2.474230   3.643990   4.120001   3.645512
    35  C    6.353107   1.425212   2.350407   2.786573   2.498650
    36  H    3.114040   3.803138   4.345880   5.526720   6.243314
    37  H    5.145751   2.830137   4.203401   5.232131   5.290649
    38  H    2.840777   2.904074   3.155939   4.462614   5.416816
    39  H    6.612557   6.752422   7.990610   9.087525   9.195420
    40  H    7.930604  10.358084  11.477996  12.757251  13.129743
    41  H    7.389006  10.770698  11.766486  13.114684  13.664146
    42  H    7.449722  11.661618  12.491161  13.868914  14.588226
    43  H    5.825825  10.525311  11.170882  12.535766  13.393854
    44  H    3.421727   8.138387   8.743795  10.104145  10.979903
    45  H    1.170041   4.494801   4.647963   5.931326   6.997557
    46  H    4.884085   2.173919   1.092838   2.058430   3.318383
    47  H    8.800937   4.007303   3.356800   2.110622   1.080222
                   31         32         33         34         35
    31  C    0.000000
    32  N    1.344826   0.000000
    33  S    2.418706   1.656982   0.000000
    34  N    2.346196   2.518815   1.639562   0.000000
    35  C    1.485958   2.366460   2.425548   1.346023   0.000000
    36  H    5.920903   6.883805   6.570441   5.069342   4.730148
    37  H    4.289255   4.767498   3.822755   2.347098   2.870710
    38  H    5.346061   6.497203   6.449895   4.929371   4.234119
    39  H    8.192404   8.441598   7.213773   6.174298   6.890476
    40  H   12.245432  12.651913  11.427702  10.218802  10.818173
    41  H   12.911495  13.482420  12.375472  11.005509  11.439481
    42  H   13.989145  14.710594  13.744183  12.258186  12.515859
    43  H   12.966424  13.836225  13.072467  11.495026  11.538925
    44  H   10.603852  11.529269  10.878528   9.268354   9.203851
    45  H    6.978182   8.144997   8.023048   6.428352   5.824997
    46  H    3.829400   5.169028   5.765855   4.602473   3.370865
    47  H    2.193309   2.815569   4.383912   4.536767   3.504368
                   36         37         38         39         40
    36  H    0.000000
    37  H    4.278165   0.000000
    38  H    3.665070   3.725822   0.000000
    39  H    7.161648   4.113082   6.206643   0.000000
    40  H    9.302072   7.971865   8.954254   4.498557   0.000000
    41  H    9.049655   8.718150   9.031893   5.955183   2.131027
    42  H    9.318713  10.025093   9.662261   7.968111   4.556864
    43  H    7.763463   9.412555   8.417480   8.390759   6.156460
    44  H    5.416242   7.286470   6.072243   7.090599   6.297979
    45  H    2.581089   5.163187   2.527140   7.308487   9.005803
    46  H    4.195435   4.760916   2.717654   8.295381  11.481450
    47  H    7.237826   6.315269   6.407547  10.171809  14.172797
                   41         42         43         44         45
    41  H    0.000000
    42  H    2.426062   0.000000
    43  H    4.237955   2.470593   0.000000
    44  H    4.978388   4.299223   2.441558   0.000000
    45  H    8.525925   8.564454   6.833150   4.425247   0.000000
    46  H   11.600796  12.151475  10.696032   8.270096   3.985946
    47  H   14.734893  15.662905  14.448462  12.028126   7.973198
                   46         47
    46  H    0.000000
    47  H    4.167090   0.000000
 Stoichiometry    C26H14N4S2Si
 Framework group  C1[X(C26H14N4S2Si)]
 Deg. of freedom   135
 Full point group                 C1      NOp   1
 Largest Abelian subgroup         C1      NOp   1
 Largest concise Abelian subgroup C1      NOp   1
                         Standard orientation:                         
 ---------------------------------------------------------------------
 Center     Atomic      Atomic             Coordinates (Angstroms)
 Number     Number       Type             X           Y           Z
 ---------------------------------------------------------------------
      1         14           0       -0.997696   -4.161900   -0.673517
      2          1           0       -1.179943   -4.943865    0.638932
      3          1           0       -0.883436   -4.702878   -2.016854
      4          6           0        0.260232   -2.485954   -1.336316
      5          6           0       -0.191786   -1.387774   -0.810722
      6          6           0        0.350353    0.072570   -0.591000
      7          6           0        1.711803    0.304148   -0.527186
      8          6           0        2.388243   -0.459944    0.389966
      9          6           0        1.567532   -0.594318    1.491351
     10          7           0        0.362100    0.126333    1.668635
     11          6           0       -0.249521    0.608433    0.528069
     12          6           0       -1.745553    0.628517    0.491980
     13          6           0       -2.637928    1.771523    0.325445
     14          6           0       -2.334185    3.122048    0.342519
     15         16           0       -3.720238    4.163906    0.266105
     16          6           0       -4.775944    2.833422    0.091984
     17          6           0       -4.079472    1.629388    0.095217
     18          6           0       -4.705987    0.365906   -0.054956
     19          6           0       -6.114223    0.279024   -0.231150
     20          6           0       -6.699828   -0.958113   -0.380057
     21          6           0       -5.882729   -2.083304   -0.416752
     22          6           0       -4.476363   -2.004815   -0.259266
     23          6           0       -3.804959   -0.797302    0.008366
     24          6           0       -2.356015   -0.689838    0.334230
     25          6           0       -1.224554   -1.794447    0.172543
     26          6           0       -0.679978   -2.918737    0.777870
     27          6           0        3.840170   -0.611155    0.403164
     28          6           0        4.604804   -1.589220    1.057616
     29          7           0        5.974380   -1.607749    1.212146
     30          6           0        6.752630   -0.597047    0.713632
     31          6           0        6.122263    0.434613   -0.003793
     32          7           0        6.705456    1.514299   -0.553993
     33         16           0        5.499364    2.409186   -1.254071
     34          7           0        4.211737    1.456515   -0.903930
     35          6           0        4.647511    0.406199   -0.183711
     36          1           0        1.326573   -2.655043   -1.588871
     37          1           0        1.947197    1.374428   -0.292383
     38          1           0        1.567294   -1.603762    1.913928
     39          1           0       -1.400938    3.646079    0.447237
     40          1           0       -5.839413    3.055420    0.013564
     41          1           0       -6.767700    1.150447   -0.211467
     42          1           0       -7.781480   -1.039452   -0.461206
     43          1           0       -6.354507   -3.054955   -0.534149
     44          1           0       -3.926920   -2.936873   -0.301601
     45          1           0        0.360310   -3.443487    0.670932
     46          1           0        4.122395   -2.447255    1.532327
     47          1           0        7.817494   -0.630410    0.892044
 ---------------------------------------------------------------------
 Rotational constants (GHZ):      0.2090652      0.0629573      0.0509873
 Standard basis: 6-31++G(d,p) (6D, 7F)
 There are   723 symmetry adapted basis functions of A   symmetry.
 Integral buffers will be    131072 words long.
 Raffenetti 2 integral format.
 Two-electron integral symmetry is turned on.
   723 basis functions,  1240 primitive gaussians,   723 cartesian basis functions
   122 alpha electrons      122 beta electrons
       nuclear repulsion energy      3473.2586531673 Hartrees.
 NAtoms=   47 NActive=   47 NUniq=   47 SFac= 1.00D+00 NAtFMM=   60 NAOKFM=F Big=F
 One-electron integrals computed using PRISM.
 NBasis=   723 RedAO= T  NBF=   723
 NBsUse=   711 1.00D-06 NBFU=   711
 Harris functional with IExCor=  402 diagonalized for initial guess.
 ExpMin= 3.31D-02 ExpMax= 2.19D+04 ExpMxC= 3.30D+03 IAcc=3 IRadAn=         5 AccDes= 0.00D+00
 HarFok:  IExCor=  402 AccDes= 0.00D+00 IRadAn=         5 IDoV= 1
 ScaDFX=  1.000000  1.000000  1.000000  1.000000
 FoFCou: FMM=F IPFlag=           0 FMFlag=      100000 FMFlg1=           0
         NFxFlg=           0 DoJE=T BraDBF=F KetDBF=T FulRan=T
         Omega=  0.000000  0.000000  1.000000  0.000000  0.000000 ICntrl=     500 IOpCl=  0
         NMat0=    1 NMatS0=    1 NMatT0=    0 NMatD0=    1 NMtDS0=    0 NMtDT0=    0
         I1Cent=           4 NGrid=           0.
 Petite list used in FoFCou.
 Initial guess orbital symmetries:
       Occupied  (A) (A) (A) (A) (A) (A) (A) (A) (A) (A) (A) (A)
                 (A) (A) (A) (A) (A) (A) (A) (A) (A) (A) (A) (A)
                 (A) (A) (A) (A) (A) (A) (A) (A) (A) (A) (A) (A)
                 (A) (A) (A) (A) (A) (A) (A) (A) (A) (A) (A) (A)
                 (A) (A) (A) (A) (A) (A) (A) (A) (A) (A) (A) (A)
                 (A) (A) (A) (A) (A) (A) (A) (A) (A) (A) (A) (A)
                 (A) (A) (A) (A) (A) (A) (A) (A) (A) (A) (A) (A)
                 (A) (A) (A) (A) (A) (A) (A) (A) (A) (A) (A) (A)
                 (A) (A) (A) (A) (A) (A) (A) (A) (A) (A) (A) (A)
                 (A) (A) (A) (A) (A) (A) (A) (A) (A) (A) (A) (A)
                 (A) (A)
       Virtual   (A) (A) (A) (A) (A) (A) (A) (A) (A) (A) (A) (A)
                 (A) (A) (A) (A) (A) (A) (A) (A) (A) (A) (A) (A)
                 (A) (A) (A) (A) (A) (A) (A) (A) (A) (A) (A) (A)
                 (A) (A) (A) (A) (A) (A) (A) (A) (A) (A) (A) (A)
                 (A) (A) (A) (A) (A) (A) (A) (A) (A) (A) (A) (A)
                 (A) (A) (A) (A) (A) (A) (A) (A) (A) (A) (A) (A)
                 (A) (A) (A) (A) (A) (A) (A) (A) (A) (A) (A) (A)
                 (A) (A) (A) (A) (A) (A) (A) (A) (A) (A) (A) (A)
                 (A) (A) (A) (A) (A) (A) (A) (A) (A) (A) (A) (A)
                 (A) (A) (A) (A) (A) (A) (A) (A) (A) (A) (A) (A)
                 (A) (A) (A) (A) (A) (A) (A) (A) (A) (A) (A) (A)
                 (A) (A) (A) (A) (A) (A) (A) (A) (A) (A) (A) (A)
                 (A) (A) (A) (A) (A) (A) (A) (A) (A) (A) (A) (A)
                 (A) (A) (A) (A) (A) (A) (A) (A) (A) (A) (A) (A)
                 (A) (A) (A) (A) (A) (A) (A) (A) (A) (A) (A) (A)
                 (A) (A) (A) (A) (A) (A) (A) (A) (A) (A) (A) (A)
                 (A) (A) (A) (A) (A) (A) (A) (A) (A) (A) (A) (A)
                 (A) (A) (A) (A) (A) (A) (A) (A) (A) (A) (A) (A)
                 (A) (A) (A) (A) (A) (A) (A) (A) (A) (A) (A) (A)
                 (A) (A) (A) (A) (A) (A) (A) (A) (A) (A) (A) (A)
                 (A) (A) (A) (A) (A) (A) (A) (A) (A) (A) (A) (A)
                 (A) (A) (A) (A) (A) (A) (A) (A) (A) (A) (A) (A)
                 (A) (A) (A) (A) (A) (A) (A) (A) (A) (A) (A) (A)
                 (A) (A) (A) (A) (A) (A) (A) (A) (A) (A) (A) (A)
                 (A) (A) (A) (A) (A) (A) (A) (A) (A) (A) (A) (A)
                 (A) (A) (A) (A) (A) (A) (A) (A) (A) (A) (A) (A)
                 (A) (A) (A) (A) (A) (A) (A) (A) (A) (A) (A) (A)
                 (A) (A) (A) (A) (A) (A) (A) (A) (A) (A) (A) (A)
                 (A) (A) (A) (A) (A) (A) (A) (A) (A) (A) (A) (A)
                 (A) (A) (A) (A) (A) (A) (A) (A) (A) (A) (A) (A)
                 (A) (A) (A) (A) (A) (A) (A) (A) (A) (A) (A) (A)
                 (A) (A) (A) (A) (A) (A) (A) (A) (A) (A) (A) (A)
                 (A) (A) (A) (A) (A) (A) (A) (A) (A) (A) (A) (A)
                 (A) (A) (A) (A) (A) (A) (A) (A) (A) (A) (A) (A)
                 (A) (A) (A) (A) (A) (A) (A) (A) (A) (A) (A) (A)
                 (A) (A) (A) (A) (A) (A) (A) (A) (A) (A) (A) (A)
                 (A) (A) (A) (A) (A) (A) (A) (A) (A) (A) (A) (A)
                 (A) (A) (A) (A) (A) (A) (A) (A) (A) (A) (A) (A)
                 (A) (A) (A) (A) (A) (A) (A) (A) (A) (A) (A) (A)
                 (A) (A) (A) (A) (A) (A) (A) (A) (A) (A) (A) (A)
                 (A) (A) (A) (A) (A) (A) (A) (A) (A) (A) (A) (A)
                 (A) (A) (A) (A) (A) (A) (A) (A) (A) (A) (A) (A)
                 (A) (A) (A) (A) (A) (A) (A) (A) (A) (A) (A) (A)
                 (A) (A) (A) (A) (A) (A) (A) (A) (A) (A) (A) (A)
                 (A) (A) (A) (A) (A) (A) (A) (A) (A) (A) (A) (A)
                 (A) (A) (A) (A) (A) (A) (A) (A) (A) (A) (A) (A)
                 (A) (A) (A) (A) (A) (A) (A) (A) (A) (A) (A) (A)
                 (A) (A) (A) (A) (A) (A) (A) (A) (A) (A) (A) (A)
                 (A) (A) (A) (A) (A) (A) (A) (A) (A) (A) (A) (A)
                 (A)
 The electronic state of the initial guess is 1-A.
 Requested convergence on RMS density matrix=1.00D-08 within 128 cycles.
 Requested convergence on MAX density matrix=1.00D-06.
 Requested convergence on             energy=1.00D-06.
 No special actions if energy rises.
 EnCoef did    10 forward-backward iterations
 EnCoef did   100 forward-backward iterations
 EnCoef did     8 forward-backward iterations
 EnCoef did     2 forward-backward iterations
 EnCoef did     5 forward-backward iterations
 EnCoef did     3 forward-backward iterations
 Restarting incremental Fock formation.
 SCF Done:  E(RB3LYP) =  -2303.47976648     A.U. after   29 cycles
             Convg  =    0.7250D-08             -V/T =  2.0067

 **********************************************************************

            Population analysis using the SCF density.

 **********************************************************************

 Orbital symmetries:
       Occupied  (A) (A) (A) (A) (A) (A) (A) (A) (A) (A) (A) (A)
                 (A) (A) (A) (A) (A) (A) (A) (A) (A) (A) (A) (A)
                 (A) (A) (A) (A) (A) (A) (A) (A) (A) (A) (A) (A)
                 (A) (A) (A) (A) (A) (A) (A) (A) (A) (A) (A) (A)
                 (A) (A) (A) (A) (A) (A) (A) (A) (A) (A) (A) (A)
                 (A) (A) (A) (A) (A) (A) (A) (A) (A) (A) (A) (A)
                 (A) (A) (A) (A) (A) (A) (A) (A) (A) (A) (A) (A)
                 (A) (A) (A) (A) (A) (A) (A) (A) (A) (A) (A) (A)
                 (A) (A) (A) (A) (A) (A) (A) (A) (A) (A) (A) (A)
                 (A) (A) (A) (A) (A) (A) (A) (A) (A) (A) (A) (A)
                 (A) (A)
       Virtual   (A) (A) (A) (A) (A) (A) (A) (A) (A) (A) (A) (A)
                 (A) (A) (A) (A) (A) (A) (A) (A) (A) (A) (A) (A)
                 (A) (A) (A) (A) (A) (A) (A) (A) (A) (A) (A) (A)
                 (A) (A) (A) (A) (A) (A) (A) (A) (A) (A) (A) (A)
                 (A) (A) (A) (A) (A) (A) (A) (A) (A) (A) (A) (A)
                 (A) (A) (A) (A) (A) (A) (A) (A) (A) (A) (A) (A)
                 (A) (A) (A) (A) (A) (A) (A) (A) (A) (A) (A) (A)
                 (A) (A) (A) (A) (A) (A) (A) (A) (A) (A) (A) (A)
                 (A) (A) (A) (A) (A) (A) (A) (A) (A) (A) (A) (A)
                 (A) (A) (A) (A) (A) (A) (A) (A) (A) (A) (A) (A)
                 (A) (A) (A) (A) (A) (A) (A) (A) (A) (A) (A) (A)
                 (A) (A) (A) (A) (A) (A) (A) (A) (A) (A) (A) (A)
                 (A) (A) (A) (A) (A) (A) (A) (A) (A) (A) (A) (A)
                 (A) (A) (A) (A) (A) (A) (A) (A) (A) (A) (A) (A)
                 (A) (A) (A) (A) (A) (A) (A) (A) (A) (A) (A) (A)
                 (A) (A) (A) (A) (A) (A) (A) (A) (A) (A) (A) (A)
                 (A) (A) (A) (A) (A) (A) (A) (A) (A) (A) (A) (A)
                 (A) (A) (A) (A) (A) (A) (A) (A) (A) (A) (A) (A)
                 (A) (A) (A) (A) (A) (A) (A) (A) (A) (A) (A) (A)
                 (A) (A) (A) (A) (A) (A) (A) (A) (A) (A) (A) (A)
                 (A) (A) (A) (A) (A) (A) (A) (A) (A) (A) (A) (A)
                 (A) (A) (A) (A) (A) (A) (A) (A) (A) (A) (A) (A)
                 (A) (A) (A) (A) (A) (A) (A) (A) (A) (A) (A) (A)
                 (A) (A) (A) (A) (A) (A) (A) (A) (A) (A) (A) (A)
                 (A) (A) (A) (A) (A) (A) (A) (A) (A) (A) (A) (A)
                 (A) (A) (A) (A) (A) (A) (A) (A) (A) (A) (A) (A)
                 (A) (A) (A) (A) (A) (A) (A) (A) (A) (A) (A) (A)
                 (A) (A) (A) (A) (A) (A) (A) (A) (A) (A) (A) (A)
                 (A) (A) (A) (A) (A) (A) (A) (A) (A) (A) (A) (A)
                 (A) (A) (A) (A) (A) (A) (A) (A) (A) (A) (A) (A)
                 (A) (A) (A) (A) (A) (A) (A) (A) (A) (A) (A) (A)
                 (A) (A) (A) (A) (A) (A) (A) (A) (A) (A) (A) (A)
                 (A) (A) (A) (A) (A) (A) (A) (A) (A) (A) (A) (A)
                 (A) (A) (A) (A) (A) (A) (A) (A) (A) (A) (A) (A)
                 (A) (A) (A) (A) (A) (A) (A) (A) (A) (A) (A) (A)
                 (A) (A) (A) (A) (A) (A) (A) (A) (A) (A) (A) (A)
                 (A) (A) (A) (A) (A) (A) (A) (A) (A) (A) (A) (A)
                 (A) (A) (A) (A) (A) (A) (A) (A) (A) (A) (A) (A)
                 (A) (A) (A) (A) (A) (A) (A) (A) (A) (A) (A) (A)
                 (A) (A) (A) (A) (A) (A) (A) (A) (A) (A) (A) (A)
                 (A) (A) (A) (A) (A) (A) (A) (A) (A) (A) (A) (A)
                 (A) (A) (A) (A) (A) (A) (A) (A) (A) (A) (A) (A)
                 (A) (A) (A) (A) (A) (A) (A) (A) (A) (A) (A) (A)
                 (A) (A) (A) (A) (A) (A) (A) (A) (A) (A) (A) (A)
                 (A) (A) (A) (A) (A) (A) (A) (A) (A) (A) (A) (A)
                 (A) (A) (A) (A) (A) (A) (A) (A) (A) (A) (A) (A)
                 (A) (A) (A) (A) (A) (A) (A) (A) (A) (A) (A) (A)
                 (A) (A) (A) (A) (A) (A) (A) (A) (A) (A) (A) (A)
                 (A) (A) (A) (A) (A) (A) (A) (A) (A) (A) (A) (A)
                 (A)
 The electronic state is 1-A.
 Alpha  occ. eigenvalues --  -88.99775 -88.93276 -66.21363 -14.39398 -14.39061
 Alpha  occ. eigenvalues --  -14.36498 -14.36351 -10.27015 -10.26915 -10.26508
 Alpha  occ. eigenvalues --  -10.25976 -10.25655 -10.25572 -10.24917 -10.24453
 Alpha  occ. eigenvalues --  -10.23952 -10.23946 -10.23581 -10.23046 -10.22964
 Alpha  occ. eigenvalues --  -10.22963 -10.22853 -10.22720 -10.22482 -10.22394
 Alpha  occ. eigenvalues --  -10.22160 -10.21805 -10.21594 -10.21067 -10.20965
 Alpha  occ. eigenvalues --  -10.20944 -10.20760 -10.18419  -8.05030  -7.99194
 Alpha  occ. eigenvalues --   -6.01589  -6.01001  -6.00804  -5.95577  -5.95206
 Alpha  occ. eigenvalues --   -5.94989  -5.35450  -3.71747  -3.71244  -3.70984
 Alpha  occ. eigenvalues --   -1.03415  -0.96722  -0.94597  -0.91204  -0.90909
 Alpha  occ. eigenvalues --   -0.89033  -0.87130  -0.85086  -0.82711  -0.80571
 Alpha  occ. eigenvalues --   -0.79779  -0.78929  -0.77852  -0.76227  -0.74349
 Alpha  occ. eigenvalues --   -0.72473  -0.71560  -0.68904  -0.67174  -0.65542
 Alpha  occ. eigenvalues --   -0.65122  -0.63502  -0.62939  -0.61770  -0.59545
 Alpha  occ. eigenvalues --   -0.59030  -0.57080  -0.54893  -0.54424  -0.53658
 Alpha  occ. eigenvalues --   -0.53256  -0.53177  -0.52204  -0.50626  -0.49720
 Alpha  occ. eigenvalues --   -0.49334  -0.48606  -0.48036  -0.47747  -0.47332
 Alpha  occ. eigenvalues --   -0.46880  -0.45551  -0.44904  -0.44484  -0.43127
 Alpha  occ. eigenvalues --   -0.42651  -0.42375  -0.41836  -0.41659  -0.40637
 Alpha  occ. eigenvalues --   -0.40088  -0.40016  -0.39095  -0.39029  -0.37896
 Alpha  occ. eigenvalues --   -0.37710  -0.37047  -0.35975  -0.35648  -0.35165
 Alpha  occ. eigenvalues --   -0.34616  -0.33493  -0.32633  -0.31648  -0.30036
 Alpha  occ. eigenvalues --   -0.29710  -0.29540  -0.28761  -0.28247  -0.27921
 Alpha  occ. eigenvalues --   -0.27567  -0.25755  -0.24030  -0.23100  -0.21574
 Alpha  occ. eigenvalues --   -0.20900  -0.19122
 Alpha virt. eigenvalues --   -0.13840  -0.13060  -0.11178  -0.10112  -0.07509
 Alpha virt. eigenvalues --   -0.05393  -0.04991  -0.03984  -0.03051  -0.02342
 Alpha virt. eigenvalues --   -0.01901  -0.01340  -0.01191  -0.00589  -0.00461
 Alpha virt. eigenvalues --   -0.00132   0.00309   0.00683   0.00950   0.01570
 Alpha virt. eigenvalues --    0.01675   0.01883   0.02116   0.02604   0.02740
 Alpha virt. eigenvalues --    0.02961   0.03374   0.03602   0.03873   0.04200
 Alpha virt. eigenvalues --    0.04397   0.04733   0.05059   0.05178   0.05333
 Alpha virt. eigenvalues --    0.05743   0.06076   0.06478   0.06641   0.06794
 Alpha virt. eigenvalues --    0.07180   0.07349   0.07635   0.08245   0.08372
 Alpha virt. eigenvalues --    0.08551   0.08916   0.09165   0.09444   0.09780
 Alpha virt. eigenvalues --    0.09933   0.09954   0.10327   0.10537   0.10958
 Alpha virt. eigenvalues --    0.10972   0.11252   0.11453   0.11596   0.11762
 Alpha virt. eigenvalues --    0.11977   0.12129   0.12290   0.12534   0.12699
 Alpha virt. eigenvalues --    0.12886   0.13111   0.13288   0.13437   0.13517
 Alpha virt. eigenvalues --    0.13978   0.14041   0.14164   0.14480   0.14783
 Alpha virt. eigenvalues --    0.15183   0.15302   0.15621   0.15701   0.15852
 Alpha virt. eigenvalues --    0.16050   0.16318   0.16673   0.16819   0.16965
 Alpha virt. eigenvalues --    0.17016   0.17346   0.17385   0.17649   0.17727
 Alpha virt. eigenvalues --    0.18224   0.18500   0.18648   0.19167   0.19246
 Alpha virt. eigenvalues --    0.19525   0.19821   0.19981   0.20100   0.20283
 Alpha virt. eigenvalues --    0.20665   0.20909   0.21075   0.21232   0.21628
 Alpha virt. eigenvalues --    0.21703   0.21931   0.22225   0.22295   0.22630
 Alpha virt. eigenvalues --    0.22935   0.22964   0.23186   0.23378   0.23456
 Alpha virt. eigenvalues --    0.23639   0.23949   0.24152   0.24418   0.24622
 Alpha virt. eigenvalues --    0.24908   0.25109   0.25229   0.25525   0.25588
 Alpha virt. eigenvalues --    0.25847   0.26264   0.26363   0.26833   0.26890
 Alpha virt. eigenvalues --    0.27143   0.27465   0.27775   0.28024   0.28318
 Alpha virt. eigenvalues --    0.28405   0.28446   0.28663   0.28891   0.29232
 Alpha virt. eigenvalues --    0.29710   0.29775   0.30039   0.30520   0.30576
 Alpha virt. eigenvalues --    0.30652   0.31047   0.31170   0.31664   0.31953
 Alpha virt. eigenvalues --    0.32107   0.32448   0.32826   0.32904   0.33192
 Alpha virt. eigenvalues --    0.33394   0.33481   0.33705   0.33882   0.34407
 Alpha virt. eigenvalues --    0.34481   0.34866   0.34944   0.35432   0.35646
 Alpha virt. eigenvalues --    0.35703   0.36290   0.36437   0.36619   0.36776
 Alpha virt. eigenvalues --    0.37135   0.37552   0.38089   0.38340   0.38720
 Alpha virt. eigenvalues --    0.39075   0.39558   0.39889   0.40098   0.40699
 Alpha virt. eigenvalues --    0.41140   0.41564   0.41752   0.42207   0.42873
 Alpha virt. eigenvalues --    0.43153   0.43834   0.44432   0.44578   0.45146
 Alpha virt. eigenvalues --    0.45362   0.46303   0.46399   0.47071   0.47669
 Alpha virt. eigenvalues --    0.48060   0.48821   0.49195   0.49784   0.50528
 Alpha virt. eigenvalues --    0.50980   0.51593   0.51961   0.52894   0.53978
 Alpha virt. eigenvalues --    0.55276   0.55789   0.55853   0.58115   0.59169
 Alpha virt. eigenvalues --    0.60614   0.61238   0.62017   0.63210   0.64129
 Alpha virt. eigenvalues --    0.64493   0.64723   0.65558   0.66150   0.66557
 Alpha virt. eigenvalues --    0.67116   0.67468   0.67918   0.68557   0.68685
 Alpha virt. eigenvalues --    0.69905   0.69975   0.70633   0.71239   0.71793
 Alpha virt. eigenvalues --    0.72274   0.72830   0.73121   0.73216   0.73472
 Alpha virt. eigenvalues --    0.73838   0.74626   0.74808   0.75403   0.75578
 Alpha virt. eigenvalues --    0.75917   0.76462   0.77113   0.77773   0.78344
 Alpha virt. eigenvalues --    0.78871   0.79081   0.79592   0.79968   0.80395
 Alpha virt. eigenvalues --    0.80726   0.81416   0.81857   0.82079   0.82567
 Alpha virt. eigenvalues --    0.82856   0.83324   0.83644   0.84332   0.85267
 Alpha virt. eigenvalues --    0.85917   0.86307   0.87093   0.87288   0.87657
 Alpha virt. eigenvalues --    0.88512   0.89767   0.90082   0.91081   0.91417
 Alpha virt. eigenvalues --    0.91614   0.92353   0.92990   0.93629   0.94254
 Alpha virt. eigenvalues --    0.94435   0.94775   0.95343   0.95736   0.96519
 Alpha virt. eigenvalues --    0.96822   0.97342   0.97629   0.98078   0.99342
 Alpha virt. eigenvalues --    0.99449   1.00111   1.00392   1.00763   1.01484
 Alpha virt. eigenvalues --    1.02046   1.02332   1.02923   1.03440   1.05200
 Alpha virt. eigenvalues --    1.05461   1.05890   1.06421   1.06537   1.07320
 Alpha virt. eigenvalues --    1.07888   1.08178   1.08990   1.09131   1.10038
 Alpha virt. eigenvalues --    1.10827   1.11020   1.12146   1.12282   1.13034
 Alpha virt. eigenvalues --    1.13510   1.13894   1.14357   1.15081   1.15290
 Alpha virt. eigenvalues --    1.16126   1.17007   1.17387   1.17981   1.18170
 Alpha virt. eigenvalues --    1.18881   1.19749   1.19940   1.20110   1.21149
 Alpha virt. eigenvalues --    1.21882   1.22217   1.23309   1.24072   1.24191
 Alpha virt. eigenvalues --    1.24605   1.25241   1.25430   1.26156   1.26420
 Alpha virt. eigenvalues --    1.26653   1.28324   1.29065   1.30028   1.30876
 Alpha virt. eigenvalues --    1.31219   1.32114   1.32770   1.33348   1.34330
 Alpha virt. eigenvalues --    1.35184   1.35665   1.36265   1.36698   1.37090
 Alpha virt. eigenvalues --    1.38675   1.39091   1.39572   1.40166   1.40487
 Alpha virt. eigenvalues --    1.41134   1.41984   1.42888   1.44124   1.44966
 Alpha virt. eigenvalues --    1.45975   1.46512   1.47257   1.48342   1.49202
 Alpha virt. eigenvalues --    1.49816   1.51427   1.52010   1.54071   1.55363
 Alpha virt. eigenvalues --    1.56130   1.56317   1.59011   1.60233   1.61948
 Alpha virt. eigenvalues --    1.63334   1.65082   1.65866   1.66300   1.67247
 Alpha virt. eigenvalues --    1.68521   1.69846   1.71057   1.72130   1.73328
 Alpha virt. eigenvalues --    1.74394   1.75019   1.75907   1.76208   1.76518
 Alpha virt. eigenvalues --    1.77538   1.78140   1.78606   1.79731   1.80184
 Alpha virt. eigenvalues --    1.81241   1.82165   1.83179   1.83560   1.84381
 Alpha virt. eigenvalues --    1.85265   1.85832   1.86941   1.87862   1.88187
 Alpha virt. eigenvalues --    1.89348   1.91087   1.91285   1.91883   1.92424
 Alpha virt. eigenvalues --    1.93191   1.93991   1.94838   1.95105   1.96055
 Alpha virt. eigenvalues --    1.96168   1.97023   1.98507   1.99318   1.99914
 Alpha virt. eigenvalues --    2.00390   2.01834   2.02619   2.03124   2.04289
 Alpha virt. eigenvalues --    2.05472   2.06194   2.06609   2.06698   2.07958
 Alpha virt. eigenvalues --    2.09150   2.10337   2.10697   2.11736   2.11928
 Alpha virt. eigenvalues --    2.13849   2.14453   2.15829   2.15928   2.17077
 Alpha virt. eigenvalues --    2.17953   2.19067   2.20334   2.21447   2.21494
 Alpha virt. eigenvalues --    2.21772   2.22611   2.24184   2.24727   2.25552
 Alpha virt. eigenvalues --    2.26065   2.26561   2.27992   2.28853   2.29470
 Alpha virt. eigenvalues --    2.30348   2.31067   2.31833   2.32321   2.32995
 Alpha virt. eigenvalues --    2.33714   2.35041   2.35210   2.35989   2.37347
 Alpha virt. eigenvalues --    2.37762   2.37934   2.38640   2.39236   2.40181
 Alpha virt. eigenvalues --    2.41067   2.41798   2.42799   2.43520   2.44225
 Alpha virt. eigenvalues --    2.44567   2.45064   2.45722   2.48236   2.48298
 Alpha virt. eigenvalues --    2.49102   2.49622   2.50939   2.51411   2.52541
 Alpha virt. eigenvalues --    2.53319   2.53522   2.54713   2.55531   2.56771
 Alpha virt. eigenvalues --    2.56939   2.57657   2.58787   2.59684   2.60441
 Alpha virt. eigenvalues --    2.61146   2.61740   2.62292   2.63214   2.63839
 Alpha virt. eigenvalues --    2.64184   2.64387   2.64767   2.65929   2.66716
 Alpha virt. eigenvalues --    2.67653   2.68760   2.70176   2.71511   2.71971
 Alpha virt. eigenvalues --    2.73275   2.73678   2.74669   2.75407   2.76348
 Alpha virt. eigenvalues --    2.77983   2.78833   2.80918   2.82020   2.82860
 Alpha virt. eigenvalues --    2.84198   2.85964   2.86341   2.87663   2.91166
 Alpha virt. eigenvalues --    2.91913   2.93234   2.95024   2.96523   2.97789
 Alpha virt. eigenvalues --    3.01726   3.01867   3.04915   3.05727   3.08445
 Alpha virt. eigenvalues --    3.09942   3.12004   3.13205   3.16570   3.17924
 Alpha virt. eigenvalues --    3.21008   3.22708   3.25091   3.28291   3.29216
 Alpha virt. eigenvalues --    3.33661   3.38298   3.39189   3.42022   3.43442
 Alpha virt. eigenvalues --    3.44329   3.45511   3.47478   3.52500   3.57261
 Alpha virt. eigenvalues --    3.62733   3.82693   3.95198   3.98663   4.15127
 Alpha virt. eigenvalues --    4.20839   4.27387   4.27921   4.30783   4.31236
 Alpha virt. eigenvalues --    4.33047   4.33908   4.35893   4.37299   4.37893
 Alpha virt. eigenvalues --    4.42091   4.44947   4.46355   4.48399   4.49698
 Alpha virt. eigenvalues --    4.50394   4.52415   4.54625   4.55728   4.57030
 Alpha virt. eigenvalues --    4.58095   4.62886   4.64443   4.69527   4.70533
 Alpha virt. eigenvalues --    4.75615   4.80394   4.86295   4.91354
          Condensed to atoms (all electrons):
              1          2          3          4          5          6
     1  Si  15.123782   0.331418   0.646414  -1.404274   2.793976   0.874557
     2  H    0.331418   0.685950  -0.039797   0.018878   0.118465  -0.025542
     3  H    0.646414  -0.039797   0.786141  -0.292850   0.129752   0.128965
     4  C   -1.404274   0.018878  -0.292850  31.859012 -10.490569 -18.382872
     5  C    2.793976   0.118465   0.129752 -10.490569  49.164254 -13.855438
     6  C    0.874557  -0.025542   0.128965 -18.382872 -13.855438  50.262585
     7  C   -0.055384   0.009719   0.003823  -0.099993  -4.590240   6.654447
     8  C    0.227795  -0.014143   0.003007  -1.705135   0.780200  -5.685815
     9  C   -0.874316   0.038744  -0.096901   0.580385  -1.092401  -2.331430
    10  N    0.065573   0.000278   0.004513  -0.501169  -0.407133   1.708134
    11  C    0.424972  -0.026029   0.030289   0.472932   0.580351   0.552262
    12  C   -0.147291   0.015774  -0.033681   2.339886   2.970881  -7.861044
    13  C    0.027780  -0.006112   0.006358   0.887329   2.317492  -4.025894
    14  C    0.096405  -0.004656   0.005431  -0.335700  -1.238437   1.862992
    15  S   -0.004977   0.000201  -0.000383   0.029781   0.131458  -0.204584
    16  C    0.006364  -0.000747   0.001526  -0.043058  -0.502761   0.363821
    17  C   -0.060785   0.002265  -0.003822   0.385348   0.700824  -1.961254
    18  C   -0.071479   0.003275  -0.000719  -0.166863  -1.082053   0.451561
    19  C    0.035337  -0.004558   0.002296   0.014643   0.196598  -0.095760
    20  C   -0.019382   0.001819   0.003349  -0.029960  -0.159192   0.067815
    21  C    0.167485  -0.021304   0.043392  -0.113731   0.286052  -0.028183
    22  C    0.145907  -0.021066   0.040283   0.272346   0.812325  -0.355794
    23  C   -0.337002   0.034544  -0.059819   0.247003  -0.883937  -0.751382
    24  C   -0.629593  -0.054069  -0.015720   3.704402  -2.367476  -5.348877
    25  C    1.504913  -0.247440   0.314871  -1.118190 -10.360695   6.877346
    26  C   -4.513977   0.140816  -0.522649  -1.957825  -6.043265   1.404123
    27  C   -0.108106   0.012339  -0.005610   0.459991   0.274394  -3.644971
    28  C    0.091222  -0.006735   0.008729   0.380933  -0.583994   0.700417
    29  N    0.000685   0.000023   0.000136   0.001473   0.005272   0.005039
    30  C    0.001355   0.000119   0.000169   0.006790   0.013161  -0.079209
    31  C    0.015885  -0.001483   0.000406   0.073044  -0.209696   0.387861
    32  N   -0.000028   0.000002  -0.000003  -0.001340  -0.001106  -0.026276
    33  S    0.000552  -0.000025   0.000118   0.007793   0.004064   0.024343
    34  N   -0.005245   0.000210  -0.000358   0.030600   0.099565  -0.331845
    35  C    0.089195  -0.006290   0.007366   0.213270  -0.445842   0.101949
    36  H   -0.088117   0.003955  -0.018572   0.922914  -0.275592  -0.348012
    37  H   -0.016938   0.001169  -0.001365   0.213058   0.207161  -0.637423
    38  H   -0.047411   0.001851  -0.007798  -0.089210   0.148714  -0.066403
    39  H    0.003139  -0.000180   0.000181  -0.013364  -0.034554   0.064372
    40  H    0.000422  -0.000033   0.000068  -0.002427  -0.014886   0.015871
    41  H    0.000353  -0.000026  -0.000057   0.002966   0.016444  -0.010506
    42  H   -0.001115   0.000155   0.000025  -0.000394  -0.003474   0.001794
    43  H    0.006720  -0.000599  -0.000288  -0.002607   0.008530  -0.001229
[...]
 00000627,0.00001954,-0.00002682,-0.00004074,-0.00000157,0.00000277,-0.
 00000025,0.00001060,-0.00000145,0.00001288,0.00001141,0.00002581,-0.00
 000809,0.00000763,-0.00000330,0.00000363,-0.00004734,-0.00009482,-0.00
 040575,-0.00045918,-0.00129170,0.00035756,0.00025026,0.00002234,-0.001
 97746,0.10643461,-0.00016913,0.00024986,-0.00016508,0.00001679,-0.0000
 3757,-0.00001627,0.00005271,-0.00002215,-0.00001996,-0.00088042,-0.000
 30998,0.00023238,0.00005327,-0.00019623,0.00000005,0.00001920,0.000017
 99,-0.00005283,0.00003602,0.00003539,0.00000223,-0.00002279,0.00001209
 ,0.00001063,-0.00004958,-0.00002578,0.00001073,0.00008109,0.00002501,-
 0.00004013,-0.00008391,0.00009758,0.00004658,0.00011936,-0.00028083,-0
 .00003250,-0.00015405,0.00008990,0.00004945,0.00008910,-0.00007303,-0.
 00003026,0.00010848,-0.00014620,-0.00004020,0.00028901,-0.00010902,-0.
 00011827,-0.00108476,-0.00075321,0.00055887,0.00422439,-0.00199148,-0.
 00082965,0.00062774,0.00024519,-0.00037820,0.00058607,0.00160228,0.000
 51217,0.00197391,0.00346021,-0.00057617,-0.09733628,-0.28652030,0.0674
 4695,-0.01205547,-0.01826726,0.00702083,-0.00121040,0.00034541,0.00009
 115,0.00098712,-0.00057648,-0.00017117,-0.00191969,0.00007514,0.000542
 41,0.00000214,0.00000730,0.00001013,0.00000182,-0.00000432,-0.00000494
 ,0.00000049,0.00000948,0.00000079,-0.00000093,-0.00001095,0.00000010,0
 .00000208,0.00000696,-0.00000476,-0.00000570,-0.00000014,-0.00000482,0
 .00001581,0.00000891,0.00001376,-0.00001532,0.00000647,-0.00000266,-0.
 00000336,-0.00001109,-0.00000757,-0.00014746,0.00003184,0.00014845,-0.
 00000855,-0.00000621,0.00000723,-0.00000229,0.00000165,-0.00000242,-0.
 00001219,-0.00003246,0.00000925,-0.00000761,0.00000024,0.00000500,-0.0
 0016319,-0.00003459,-0.00004739,0.00018288,0.00007340,-0.00009760,-0.0
 0040667,0.00087120,-0.00045781,0.10799629,0.30231366,0.00073453,0.0004
 2984,-0.00040678,-0.00008412,-0.00002860,-0.00000176,-0.00007584,-0.00
 005874,-0.00000735,-0.00004810,0.00004794,-0.00053939,-0.00017616,-0.0
 0000944,-0.00001180,-0.00001444,-0.00003606,0.00002523,0.00008475,0.00
 001088,0.00005356,-0.00002867,0.00002619,-0.00001380,-0.00002548,-0.00
 000915,0.00000169,0.00005389,-0.00003984,-0.00001025,0.00006933,0.0001
 0636,0.00008580,-0.00017504,0.00001013,-0.00020660,-0.00008715,-0.0000
 0167,-0.00006847,0.00002845,-0.00001549,0.00001084,0.00001960,-0.00002
 063,-0.00003074,0.00003869,-0.00001907,-0.00008359,-0.00005890,-0.0002
 0759,0.00036148,0.00265974,-0.00048710,0.00520190,-0.00022833,-0.00034
 951,-0.00059630,0.00457216,-0.00010050,0.00570467,0.00467105,0.0111783
 3,0.00089036,0.03609617,0.06835264,-0.05872304,-0.00216363,-0.00443609
 ,0.00423515,-0.00109474,-0.00007178,-0.00241951,0.00076081,-0.00060024
 ,0.00010138,0.00124529,0.00062645,0.00052730,0.00001677,0.00000814,0.0
 0002890,-0.00000146,0.00001092,-0.00000767,0.00000258,-0.00000538,0.00
 000169,-0.00000645,-0.00000581,-0.00001155,-0.00000919,0.00001037,-0.0
 0001317,-0.00000177,0.00000482,-0.00003120,0.00000483,-0.00001378,0.00
 002887,-0.00001076,0.00000251,0.00000350,-0.00000445,-0.00000061,-0.00
 000123,-0.00008274,0.00007376,0.00001110,-0.00003246,-0.00002233,0.000
 01409,-0.00000519,-0.00000142,-0.00000302,-0.00000344,-0.00000824,0.00
 000444,0.00000411,0.00000328,0.00001385,-0.00040007,-0.00004442,-0.000
 88015,0.00022891,0.00051583,0.00003097,-0.00193900,-0.00053634,-0.0036
 4071,-0.04446049,-0.07394597,0.05008263,-0.00204714,-0.00473278,-0.006
 46000,0.00019229,-0.00004764,0.00106439,0.00147263,0.00049113,-0.00186
 226,0.00024077,0.01503878,0.01782717,0.00079391,-0.00179276,0.00199985
 ,-0.00109287,0.00360412,-0.00100347,-0.00020514,0.00020613,-0.00018532
 ,-0.00000585,-0.00026430,0.00010174,0.00067440,-0.00022744,-0.00028694
 ,-0.00058956,0.00118916,0.00043954,-0.00106957,-0.00232037,0.00010271,
 0.00093589,-0.00001052,0.00001450,-0.00002484,0.00004072,0.00000575,-0
 .00001545,0.00000750,0.00000063,0.00001940,0.00000850,-0.00002155,-0.0
 0002090,0.00004272,0.00000688,0.00006762,0.00000147,0.00000716,-0.0003
 1104,-0.00006279,0.00015963,0.00027749,-0.00000798,-0.00011840,-0.0000
 7290,0.00029891,0.00004457,-0.00020438,-0.00006885,0.00029517,-0.00019
 247,0.00015454,-0.00030333,0.00096242,0.00023015,-0.00043217,0.0002221
 0,-0.00069823,0.00031179,-0.00438539,0.00398300,-0.00175489,-0.0501117
 7,0.02937552,0.06366853,0.00011157,0.00005374,-0.00002836,-0.00001882,
 -0.00001772,0.00000611,0.00002610,-0.00000722,0.00000332,-0.00001274,0
 .00003046,-0.00001605,-0.00002573,-0.00000404,-0.00000011,0.00001328,0
 .00003424,-0.00005045,-0.00001633,-0.00002149,0.00006128,0.00002386,0.
 00004996,-0.00002230,-0.00001166,-0.00006222,0.00002159,0.00148650,-0.
 00068267,-0.00103329,-0.00003676,-0.00010504,0.00010906,0.00003147,0.0
 0004696,0.00006569,0.00002483,0.00002129,0.00000052,-0.00000086,-0.000
 00620,0.00000181,-0.00000434,0.00000426,-0.00000951,-0.00000008,0.0000
 2387,-0.00005481,-0.00006119,-0.00001053,0.00000047,-0.00180276,-0.001
 72583,-0.00007385,0.05479402,-0.00243373,0.00321006,0.00726386,0.00056
 001,-0.00001362,-0.00077409,-0.00070102,-0.00019152,0.00053533,-0.0000
 0238,0.00146777,0.00567510,0.00093927,-0.00593808,0.00050247,0.0013093
 8,0.00098792,0.00005956,-0.00004080,-0.00018104,0.00013251,0.00024043,
 -0.00009980,-0.00015252,0.00003049,-0.00015291,-0.00001319,0.00007052,
 0.00014762,-0.00006280,-0.00059235,-0.00026354,-0.00011218,0.00076147,
 -0.00034508,0.00081417,0.00010306,-0.00009421,-0.00008853,-0.00004818,
 0.00000143,0.00002432,-0.00002530,-0.00005105,0.00001763,-0.00003678,0
 .00001106,0.00001396,0.00007576,-0.00003235,-0.00003969,-0.00020755,0.
 00011345,0.00003025,0.00005195,0.00005781,0.00001402,-0.00004877,0.000
 04021,-0.00002996,-0.00011992,0.00020509,0.00014780,0.00009617,-0.0003
 1779,0.00029399,-0.00005483,-0.00033738,-0.00051240,0.00125617,0.00081
 590,-0.00020134,0.00664692,-0.00664708,-0.02154431,0.03490327,-0.12239
 150,-0.12561424,-0.00000233,-0.00003047,-0.00011166,-0.00000351,-0.000
 03472,0.00004564,0.00000474,0.00001900,-0.00002491,0.00002214,0.000009
 35,0.00004043,0.00001185,-0.00001524,0.00003195,-0.00000154,0.00000024
 ,0.00003511,0.00003026,0.00007087,0.00000562,-0.00002912,0.00001139,-0
 .00002277,0.00000649,-0.00005521,-0.00001605,0.00029000,0.00062197,-0.
 00073650,0.00005267,-0.00008887,-0.00000493,0.00003831,-0.00001611,0.0
 0009933,0.00001456,0.00001673,-0.00000398,-0.00000572,-0.00000940,-0.0
 0000100,-0.00001322,-0.00000006,0.00001067,0.00000991,0.00002983,-0.00
 002291,-0.00000471,0.00000282,0.00001397,-0.00104790,-0.00017745,-0.00
 033666,-0.04208743,0.12961871,0.00356653,-0.00767323,-0.01010611,-0.00
 026374,0.00036345,0.00122600,0.00099334,0.00045266,-0.00071530,-0.0010
 9699,0.00200515,-0.00165473,-0.00018003,0.00048944,-0.00092873,-0.0004
 9179,0.00043955,0.00029384,-0.00004356,0.00000826,0.00010797,0.0000512
 5,-0.00002270,-0.00005084,0.00008318,-0.00004570,-0.00007673,-0.000086
 07,0.00011068,0.00003989,0.00013067,-0.00016662,-0.00006635,-0.0001556
 1,0.00023714,-0.00014533,0.00000321,0.00004781,-0.00000172,-0.00001108
 ,0.00003680,-0.00000696,-0.00003973,0.00001661,0.00002248,-0.00002653,
 -0.00002954,0.00001683,0.00004326,0.00003234,-0.00004099,0.00002292,0.
 00013867,-0.00012293,-0.00011929,0.00014999,0.00003452,0.00000975,-0.0
 0018930,-0.00003241,0.00016303,0.00043599,-0.00018154,0.00003436,-0.00
 081505,0.00032870,0.00004359,0.00032463,0.00001598,0.00036452,-0.00038
 048,0.00002892,-0.00253883,0.00422801,0.00528384,0.07194235,-0.1349538
 9,-0.23563330,0.00000275,-0.00000741,-0.00002438,-0.00000225,-0.000010
 40,0.00000018,0.00000429,0.00000376,0.00000236,0.00000161,0.00000975,0
 .00000440,0.00000549,-0.00000356,0.00002403,0.00000925,-0.00000470,0.0
 0002680,-0.00001682,-0.00000997,-0.00002915,0.00001105,-0.00001002,-0.
 00000503,0.00000172,0.00001039,-0.00000177,0.00021010,-0.00024955,0.00
 075934,-0.00004119,0.00002058,0.00003153,0.00001667,0.00000152,0.00003
 874,0.00000840,0.00001499,-0.00000646,-0.00000359,-0.00000667,0.000000
 94,0.00000710,0.00001521,0.00001181,0.00003660,0.00004166,0.00001035,-
 0.00002737,-0.00001453,0.00002899,-0.00001668,0.00032586,0.00028690,-0
 .07260095,0.13462137,0.24120827,0.00003670,0.00002134,-0.00006583,0.00
 000200,-0.00003293,0.00003119,0.00000038,-0.00000434,0.00002222,0.0000
 4640,-0.00002420,-0.00000518,0.00037044,-0.00014513,-0.00002364,-0.000
 22418,0.00016507,-0.00016418,-0.00028496,-0.00038488,-0.00034478,-0.00
 291654,0.00095370,0.00010914,0.00050163,0.00129849,-0.00102689,-0.0002
 8207,0.00025773,0.00030698,-0.00038141,0.00023200,-0.00005785,0.000049
 13,-0.00018047,0.00004400,-0.00008242,0.00007361,-0.00004507,-0.000021
 36,-0.00008571,0.00007851,0.00002324,0.00000069,-0.00000806,0.00005316
 ,0.00001275,-0.00001543,-0.00000619,0.00001245,-0.00001471,-0.00001616
 ,0.00004095,0.00000713,0.00001305,-0.00001348,-0.00000334,-0.00000002,
 0.00000804,-0.00000076,-0.00000213,-0.00001097,-0.00000260,0.00001324,
 -0.00000308,-0.00000037,-0.00002877,-0.00001288,0.00000723,-0.00003793
 ,0.00013208,0.00007283,-0.00026090,-0.00004671,0.00008426,-0.00002607,
 -0.00008892,0.00006449,0.00757542,0.00522840,0.00156411,-0.05094018,-0
 .04784731,-0.01746685,-0.00560454,-0.01349977,-0.00838055,0.00458950,-
 0.00053506,-0.00414388,-0.00048877,0.00015265,0.00011216,-0.00019251,-
 0.00022728,0.00017504,-0.00120035,0.00005975,0.00020075,0.00085085,0.0
 0001386,0.00000107,0.00562173,0.00040025,-0.00388287,0.00000276,-0.000
 01556,-0.00001798,0.00001625,-0.00002421,0.00002874,0.00027330,0.00004
 846,0.00004625,-0.00008219,-0.00005728,-0.00005798,0.00000415,-0.00000
 633,-0.00000359,-0.00000266,0.00000371,0.00000054,0.00000558,-0.000000
 25,-0.00000212,0.00000331,-0.00000464,-0.00000074,-0.00000449,-0.00000
 017,0.00000304,-0.00003074,-0.00002095,-0.00000598,0.04266447,-0.00006
 056,-0.00002657,0.00006778,0.00001000,0.00003130,-0.00002630,0.0000061
 9,0.00000577,-0.00001655,-0.00002202,0.00002258,0.00001502,-0.00015389
 ,0.00001140,0.00014699,-0.00007619,-0.00004681,0.00006805,0.00004004,0
 .00008603,0.00012144,-0.00048009,-0.00004197,-0.00110757,-0.00039973,-
 0.00036176,0.00035510,0.00057519,0.00015369,-0.00073865,-0.00000974,-0
 .00007555,0.00016903,0.00013091,0.00015991,-0.00005139,0.00004398,-0.0
 0008633,-0.00002794,0.00000487,0.00008388,-0.00002588,-0.00004575,-0.0
 0003150,0.00001807,-0.00003939,-0.00001724,0.00002670,0.00003169,-0.00
 002534,-0.00001084,0.00000616,-0.00001913,0.00000368,-0.00000428,0.000
 00827,-0.00000115,-0.00000511,0.00000050,0.00000333,-0.00000288,0.0000
 0558,0.00000250,-0.00000983,-0.00000375,0.00000669,0.00002142,0.000012
 30,-0.00001093,0.00004670,0.00005364,-0.00004832,0.00008038,-0.0000356
 0,-0.00002187,-0.00001621,0.00011663,-0.00008371,-0.00537808,-0.018417
 84,-0.00767506,-0.04785181,-0.30848882,-0.07049070,-0.00226121,0.00311
 302,-0.00552817,0.00031966,0.00274009,0.00115369,0.00026063,0.00002068
 ,0.00048838,-0.00005706,0.00020912,-0.00019977,0.00011359,-0.00048353,
 0.00013981,-0.00034806,-0.00088869,-0.00048660,0.00107711,-0.00136167,
 0.00354061,-0.00000448,0.00002734,0.00000530,0.00004950,-0.00003339,0.
 00004804,-0.00018131,0.00055695,-0.00021701,0.00003352,0.00005996,0.00
 000013,-0.00000448,0.00000187,0.00000047,0.00000088,-0.00000390,-0.000
 00053,-0.00000553,0.00000008,0.00000134,-0.00000441,0.00000424,0.00000
 013,0.00000463,-0.00000010,-0.00000485,0.00002431,0.00001941,0.0000093
 6,0.05457866,0.32299947,0.00000972,0.00000696,-0.00001892,-0.00000408,
 -0.00000448,0.00000331,-0.00000035,-0.00000136,0.00000384,-0.00000086,
 -0.00001296,-0.00001064,-0.00007985,0.00006724,-0.00013066,0.00026497,
 0.00006200,0.00015427,0.00036234,-0.00006650,0.00015762,0.00147814,-0.
 00041516,0.00055828,-0.00020500,-0.00031749,-0.00056707,-0.00092541,0.
 00030337,-0.00041708,0.00052569,-0.00053969,0.00004362,-0.00025634,-0.
 00002482,0.00008140,0.00002750,0.00002661,0.00002608,-0.00003324,-0.00
 001773,-0.00004065,0.00003667,0.00005500,-0.00001729,-0.00000150,-0.00
 000280,-0.00001877,-0.00001323,0.00002205,0.00001871,0.00002364,-0.000
 02797,-0.00000520,-0.00001127,0.00000508,0.00000176,0.00000892,-0.0000
 0773,-0.00000366,0.00000273,0.00000962,-0.00000160,0.00000146,0.000003
 02,-0.00000387,-0.00000183,0.00000427,0.00000774,-0.00001422,-0.000156
 33,-0.00002634,0.00008322,0.00007764,-0.00003785,0.00002543,-0.0000422
 2,0.00003178,0.00178649,0.01819157,0.00921604,-0.01721777,-0.06925786,
 -0.07027726,-0.01061064,-0.03027190,-0.01968291,-0.00425730,-0.0010034
 0,-0.00274071,-0.00004209,0.00038080,-0.00081490,0.00021303,-0.0002338
 2,0.00024959,0.00063818,0.00034026,0.00000178,0.00002837,0.00114128,0.
 00067383,-0.00384383,0.00232799,-0.00133311,0.00000173,-0.00000330,0.0
 0000471,-0.00003316,0.00004273,-0.00001133,-0.00065439,-0.00014672,-0.
 00094693,0.00000252,-0.00001095,0.00006658,0.00000227,0.00000151,0.000
 00308,0.00000338,0.00000186,-0.00000040,0.00000117,0.00000019,0.000000
 01,0.00000098,-0.00000050,0.00000007,-0.00000328,0.00000218,0.00000174
 ,-0.00000280,-0.00000087,-0.00000332,0.03310009,0.08035153,0.08594024,
 0.00000043,0.00000387,-0.00000078,0.00000212,-0.00000003,-0.00000081,0
 .00000050,-0.00000080,0.00000189,-0.00000312,-0.00000972,0.00001883,0.
 00000378,0.00000739,-0.00000981,-0.00000942,-0.00019836,0.00003502,0.0
 0003017,-0.00015759,0.00002195,-0.00189277,0.00013447,0.00030339,0.000
 03954,0.00019995,0.00025960,-0.00004840,-0.00009139,-0.00010269,0.0000
 0636,0.00002868,-0.00001171,0.00002671,-0.00000150,0.00000832,0.000000
 35,-0.00000121,-0.00000694,0.00000359,0.00000229,0.00000045,-0.0000027
 3,-0.00000348,0.00000005,-0.00000067,-0.00000168,0.00000645,-0.0000015
 0,-0.00000215,-0.00000430,0.00000113,-0.00000315,0.00000045,-0.0000009
 3,0.00000039,0.00000282,-0.00000131,-0.00000007,0.00000235,-0.00000079
 ,0.00000160,0.00000264,-0.00000034,0.00000286,0.00000236,0.00000066,0.
 00000119,-0.00000137,0.00000455,0.00001631,-0.00000764,0.00000448,-0.0
 0000769,0.00001642,-0.00000409,0.00000820,-0.00001326,-0.00058666,0.00
 016311,0.00027431,0.01029626,-0.00128373,-0.00322671,-0.00829408,-0.00
 460103,-0.00464717,-0.08643483,-0.00104700,-0.11080594,0.00457535,-0.0
 0107867,-0.00546556,-0.00107930,-0.00000493,0.00099260,-0.00064902,0.0
 0061331,-0.00003336,0.00007382,-0.00070885,0.00007889,0.00356385,0.000
 31330,-0.00172877,0.00000943,0.00000488,-0.00000766,0.00030312,0.00036
 564,-0.00009701,0.00004080,0.00001747,0.00003309,0.00000547,0.00000306
 ,-0.00000100,-0.00000181,-0.00000019,-0.00000158,-0.00000061,-0.000000
 51,-0.00000152,-0.00000084,-0.00000008,-0.00000129,-0.00000100,0.00000
 015,-0.00000141,0.00000034,-0.00000001,-0.00000281,0.00000075,0.000002
 25,0.00000109,0.00040083,-0.00003796,-0.00041620,0.07961979,0.00000169
 ,-0.00000707,0.00001125,-0.00000312,0.00000864,-0.00000542,0.00000024,
 0.00000252,-0.00000372,-0.00001670,0.00001467,-0.00001919,-0.00005019,
 -0.00002075,0.00003895,0.00003300,-0.00007152,-0.00001187,0.00016231,0
 .00014429,-0.00015339,-0.00004546,0.00029192,-0.00019003,0.00004041,0.
 00000823,0.00005129,0.00001340,-0.00003325,-0.00003327,-0.00001794,0.0
 0004374,0.00002909,0.00001024,0.00001645,-0.00000075,0.00000277,-0.000
 00772,0.00000816,0.00000950,0.00001673,-0.00000261,-0.00001095,-0.0000
 1259,0.00000279,-0.00001249,-0.00000398,0.00000695,0.00000538,-0.00000
 612,0.00000098,-0.00000270,-0.00000040,0.,-0.00000029,0.00000317,0.000
 00052,-0.00000393,0.00000025,0.00000198,-0.00000036,-0.00000079,0.0000
 0174,-0.00000374,-0.00000275,0.00000123,0.00000704,0.00000242,-0.00000
 387,0.00000527,-0.00001701,-0.00001797,0.00003019,0.00000220,0.0000001
 0,0.00000449,0.00002036,-0.00000365,-0.00020067,-0.00082849,-0.0003893
 9,-0.00201813,-0.00272013,-0.00222314,-0.01501878,-0.00596539,-0.03355
 333,-0.00046204,-0.05500593,0.00173875,0.01053820,0.00491798,0.0242887
 5,-0.00011107,0.00244715,-0.00109304,0.00026478,0.00007067,0.00036860,
 0.00072432,-0.00081261,0.00175343,-0.00068697,-0.00442784,0.00017336,-
 0.00000801,0.00001652,0.00000670,-0.00009877,-0.00008936,0.00002453,-0
 .00001670,0.00000209,-0.00000523,0.00000829,0.00000905,-0.00000229,-0.
 00000187,0.00000049,-0.00000076,-0.00000070,-0.00000182,-0.00000016,-0
 .00000186,0.00000011,0.00000028,-0.00000125,0.00000130,0.00000018,0.00
 000120,-0.00000036,-0.00000108,0.00000264,0.00000585,0.00000166,-0.000
 42212,-0.00005424,-0.00085819,0.00735143,0.06204333,0.00000801,-0.0000
 0554,0.00000477,-0.00000189,0.00000044,-0.00000117,-0.00000429,0.00000
 039,-0.00000259,0.00000664,0.00000673,0.00000613,0.00000608,0.00000794
 ,-0.00000119,-0.00001099,0.00009378,-0.00003939,-0.00019500,-0.0000088
 0,-0.00005738,0.00096708,0.00004056,0.00021643,-0.00010498,-0.00010606
 ,-0.00013727,0.00007373,0.00002742,0.00002718,-0.00000827,-0.00001756,
 -0.00000093,0.00001111,0.00001541,-0.00001365,0.00000247,-0.00000941,-
 0.00000420,-0.00000330,0.00000373,-0.00000433,0.00000161,0.00000068,0.
 00000092,-0.00000229,-0.00000079,0.00000022,0.00000142,0.00000101,0.00
 000043,-0.00000048,-0.00000081,0.00000118,-0.00000019,-0.00000009,-0.0
 0000100,-0.00000097,0.00000091,0.00000032,-0.00000069,-0.00000077,0.00
 000008,-0.00000005,0.00000124,0.00000035,0.00000189,0.00000008,-0.0000
 0170,0.00000230,0.00000901,0.00000864,-0.00000732,-0.00000487,-0.00000
 499,-0.00000223,-0.00000170,-0.00000347,0.00010679,0.00029653,-0.00067
 073,-0.00333993,-0.00024486,0.00411183,-0.00254488,-0.01088515,-0.0095
 2143,-0.11114052,0.00081315,-0.28820308,-0.00774606,-0.00265001,-0.009
 63505,0.00096375,-0.00048142,0.00073344,-0.00007170,0.00054463,-0.0008
 5505,-0.00015809,0.00074307,-0.00044844,-0.00091448,0.00179334,0.00170
 052,0.00000197,-0.00001444,0.00000130,-0.00010221,-0.00007572,-0.00000
 843,-0.00001393,0.00001797,0.00000320,0.00000245,-0.00000015,0.0000030
 9,-0.00000006,0.00000065,0.00000037,0.00000020,-0.00000054,0.00000016,
 -0.00000051,-0.00000011,0.00000033,-0.00000014,0.00000053,0.00000002,0
 .00000120,-0.00000052,0.00000003,0.00000096,-0.00000158,0.00000048,-0.
 00031853,0.00003062,-0.00013562,0.12453432,0.01006106,0.30292965\\0.00
 000768,0.00000102,0.00000003,-0.00000565,-0.00000429,-0.00000409,-0.00
 000232,0.00000207,-0.00000612,-0.00003225,0.00001550,0.00000312,0.0000
 1647,-0.00001707,-0.00000273,-0.00000238,0.00001380,-0.00001404,-0.000
 01801,0.00001465,-0.00000421,0.00001013,-0.00000261,-0.00000220,0.0000
 0230,0.00000629,0.00000394,0.00000242,0.00000241,-0.00000829,-0.000002
 69,-0.00001592,0.00000637,-0.00000862,0.00000957,0.00002415,0.00000990
 ,-0.00000492,0.00000834,-0.00000321,-0.00000148,-0.00000996,0.00000642
 ,0.00000156,0.00000871,0.00000226,-0.00000590,-0.00000841,0.00000205,-
 0.00000723,-0.00000713,0.00000403,0.00000192,-0.00000135,-0.00000210,-
 0.00000108,-0.00000058,-0.00000071,-0.00001086,0.00000069,-0.00000258,
 0.00000103,-0.00000140,0.00000447,-0.00000404,0.00000006,-0.00000641,0
 .00000150,0.00000005,0.00000684,-0.00000579,-0.00002797,0.00000924,-0.
 00001369,0.00000572,0.00000533,0.00001869,0.00001702,0.00000727,-0.000
 00375,0.00002000,-0.00000050,0.00000286,-0.00000764,0.00000258,0.00000
 626,0.00000084,-0.00000353,0.00000129,0.00000533,0.00000140,0.00000853
 ,-0.00000018,-0.00000098,0.00000519,0.00000581,-0.00000285,-0.00000792
 ,0.00000352,-0.00000315,0.00000629,-0.00000197,-0.00000282,0.00000311,
 -0.00000481,-0.00000420,-0.00000640,0.00000535,0.00000445,0.00000497,-
 0.00000003,0.00000101,0.00000402,0.00000059,0.00000264,0.00000093,-0.0
 0000409,0.00000158,-0.00000284,-0.00000359,0.00000138,-0.00000557,-0.0
 0000191,-0.00000026,-0.00000579,-0.00000182,-0.00000247,-0.00000582,0.
 00000020,-0.00000306,-0.00000428,0.00000170,-0.00000262,-0.00000296,0.
 00000440,0.00000049,0.00000369,-0.00000273,0.00000104,0.00000310,0.000
 00130\\\@


 HE THAT IS UNAWARE OF HIS IGNORANCE WILL BE MISLED BY HIS KNOWLEDGE.

                                        -- WHATLEY
 Job cpu time:  1 days 21 hours 33 minutes 13.7 seconds.
 File lengths (MBytes):  RWF=   2496 Int=      0 D2E=      0 Chk=     37 Scr=      1
 Normal termination of Gaussian 09 at Mon Dec 30 07:52:56 2013.
