 Entering Gaussian System, Link 0=g09
 Initial command:
 /opt/gaussian/g09/l1.exe /panfs/panfs.cluster/home/shuo/Gau-31027.inp -scrdir=/panfs/panfs.cluster/home/shuo/
 Default is to use a total of  12 processors:
                               12 via shared-memory
                                1 via Linda
 Entering Link 1 = /opt/gaussian/g09/l1.exe PID=     31028.
  
 Copyright (c) 1988,1990,1992,1993,1995,1998,2003,2009,2011,
            Gaussian, Inc.  All Rights Reserved.
  
 This is part of the Gaussian(R) 09 program.  It is based on
 the Gaussian(R) 03 system (copyright 2003, Gaussian, Inc.),
 the Gaussian(R) 98 system (copyright 1998, Gaussian, Inc.),
 the Gaussian(R) 94 system (copyright 1995, Gaussian, Inc.),
 the Gaussian 92(TM) system (copyright 1992, Gaussian, Inc.),
 the Gaussian 90(TM) system (copyright 1990, Gaussian, Inc.),
 the Gaussian 88(TM) system (copyright 1988, Gaussian, Inc.),
 the Gaussian 86(TM) system (copyright 1986, Carnegie Mellon
 University), and the Gaussian 82(TM) system (copyright 1983,
 Carnegie Mellon University). Gaussian is a federally registered
 trademark of Gaussian, Inc.
  
 This software contains proprietary and confidential information,
 including trade secrets, belonging to Gaussian, Inc.
  
 This software is provided under written license and may be
 used, copied, transmitted, or stored only in accord with that
 written license.
  
 The following legend is applicable only to US Government
 contracts under FAR:
  
                    RESTRICTED RIGHTS LEGEND
  
 Use, reproduction and disclosure by the US Government is
 subject to restrictions as set forth in subparagraphs (a)
 and (c) of the Commercial Computer Software - Restricted
 Rights clause in FAR 52.227-19.
  
 Gaussian, Inc.
 340 Quinnipiac St., Bldg. 40, Wallingford CT 06492
  
  
 ---------------------------------------------------------------
 Warning -- This program may not be used in any manner that
 competes with the business of Gaussian, Inc. or will provide
 assistance to any competitor of Gaussian, Inc.  The licensee
 of this program is prohibited from giving any competitor of
 Gaussian, Inc. access to this program.  By using this program,
 the user acknowledges that Gaussian, Inc. is engaged in the
 business of creating and licensing software in the field of
 computational chemistry and represents and warrants to the
 licensee that it is not a competitor of Gaussian, Inc. and that
 it will not use this program in any manner prohibited above.
 ---------------------------------------------------------------
  

 Cite this work as:
 Gaussian 09, Revision C.01,
 M. J. Frisch, G. W. Trucks, H. B. Schlegel, G. E. Scuseria, 
 M. A. Robb, J. R. Cheeseman, G. Scalmani, V. Barone, B. Mennucci, 
 G. A. Petersson, H. Nakatsuji, M. Caricato, X. Li, H. P. Hratchian, 
 A. F. Izmaylov, J. Bloino, G. Zheng, J. L. Sonnenberg, M. Hada, 
 M. Ehara, K. Toyota, R. Fukuda, J. Hasegawa, M. Ishida, T. Nakajima, 
 Y. Honda, O. Kitao, H. Nakai, T. Vreven, J. A. Montgomery, Jr., 
 J. E. Peralta, F. Ogliaro, M. Bearpark, J. J. Heyd, E. Brothers, 
 K. N. Kudin, V. N. Staroverov, T. Keith, R. Kobayashi, J. Normand, 
 K. Raghavachari, A. Rendell, J. C. Burant, S. S. Iyengar, J. Tomasi, 
 M. Cossi, N. Rega, J. M. Millam, M. Klene, J. E. Knox, J. B. Cross, 
 V. Bakken, C. Adamo, J. Jaramillo, R. Gomperts, R. E. Stratmann, 
 O. Yazyev, A. J. Austin, R. Cammi, C. Pomelli, J. W. Ochterski, 
 R. L. Martin, K. Morokuma, V. G. Zakrzewski, G. A. Voth, 
 P. Salvador, J. J. Dannenberg, S. Dapprich, A. D. Daniels, 
 O. Farkas, J. B. Foresman, J. V. Ortiz, J. Cioslowski, 
 and D. J. Fox, Gaussian, Inc., Wallingford CT, 2010.
 
 ******************************************
 Gaussian 09:  EM64L-G09RevC.01 23-Sep-2011
                29-Dec-2013 
 ******************************************
 %chk=78_C23H13N3S3SeSi.chk
 %NProcShared=12
 Will use up to   12 processors via shared memory.
 %Mem=8000MB
 Default route:  MaxDisk=100GB
 --------------------------------------------
 #B3LYP/6-31++G(d,p) opt scf=direct freq test
 --------------------------------------------
 1/14=-1,18=20,19=15,26=3,38=1/1,3;
 2/9=110,12=2,17=6,18=5,40=1/2;
 3/5=1,6=6,7=1111,11=2,16=1,25=1,30=1,71=1,74=-5/1,2,3;
 4//1;
 5/5=2,38=5/2;
 6/7=2,8=2,9=2,10=2,28=1/1;
 7//1,2,3,16;
 1/14=-1,18=20,19=15/3(2);
 2/9=110/2;
 99//99;
 2/9=110/2;
 3/5=1,6=6,7=1111,11=2,16=1,25=1,30=1,71=1,74=-5/1,2,3;
 4/5=5,16=3/1;
 5/5=2,38=5/2;
 7//1,2,3,16;
 1/14=-1,18=20,19=15/3(-5);
 2/9=110/2;
 6/7=2,8=2,9=2,10=2,19=2,28=1/1;
 99/9=1/99;
 ----------------------------------------------------------------------
 Geom opt of No.78 candidate from the CEPDB database with SMILE code of
  c1occ2c1ccc1[Se]c3cc([Se]c3c21)-c1cncc2nsnc12, HPC, 20131227, Shuo Da
 i, Gaussian09
 ----------------------------------------------------------------------
 Charge =  0 Multiplicity = 1
 Symbolic Z-Matrix:
 C                     2.762    -0.399     0.002 
 O                     2.923     0.959    -0.001 
 C                     1.722     1.561    -0.003 
 C                     0.711     0.502    -0.002 
 C                     1.418    -0.711     0.001 
 C                     0.71     -1.913     0.002 
 C                    -0.668    -1.902     0. 
 C                    -1.38     -0.694    -0.003 
 Se                   -2.765    -0.488    -0.005 
 C                    -3.059     0.948     0.007 
 C                    -3.83795   1.32305   1.25719 
 C                    -5.19028   0.62933   1.23872 
 Se                   -1.46298   2.75444   1.59488 
 C                    -1.685     1.637     0. 
 C                    -0.688     0.499     0.002 
 C                    -5.94976   0.99499   2.45766 
 C                    -6.00864   2.2897    2.84162 
 N                    -6.63823   2.66699   3.98544 
 C                    -7.24632   1.76663   4.78796 
 C                    -7.22313   0.40045   4.43729 
 N                    -7.70264  -0.71876   4.97777 
 S                    -7.37412  -1.73966   4.19976 
 N                    -6.68902  -1.32173   3.15496 
 C                    -6.55676   0.01174   3.24139 
 H                     3.53078  -1.08748   0.00462 
 H                     1.5454    2.57778  -0.00489 
 H                     1.21852  -2.81101   0.00424 
 H                    -1.18355  -2.796     0.00072 
 H                    -3.6595    1.2417   -0.82849 
 H                    -3.9812    2.38308   1.28358 
 H                    -3.29106   1.01536   2.12388 
 H                    -5.87087  -0.02595   0.73641 
 H                    -1.55997   2.28482  -0.84238 
 H                    -5.5642    3.01002   2.25117 
 H                    -7.72337   2.07526   5.64947 
 

 GradGradGradGradGradGradGradGradGradGradGradGradGradGradGradGradGradGrad
 Berny optimization.
 Initialization pass.
                           ----------------------------
                           !    Initial Parameters    !
                           ! (Angstroms and Degrees)  !
 --------------------------                            --------------------------
 ! Name  Definition              Value          Derivative Info.                !
 --------------------------------------------------------------------------------
 ! R1    R(1,2)                  1.3675         estimate D2E/DX2                !
 ! R2    R(1,5)                  1.3797         estimate D2E/DX2                !
 ! R3    R(1,25)                 1.032          estimate D2E/DX2                !
 ! R4    R(2,3)                  1.3434         estimate D2E/DX2                !
 ! R5    R(3,4)                  1.4641         estimate D2E/DX2                !
 ! R6    R(3,26)                 1.032          estimate D2E/DX2                !
 ! R7    R(4,5)                  1.404          estimate D2E/DX2                !
 ! R8    R(4,15)                 1.399          estimate D2E/DX2                !
 ! R9    R(5,6)                  1.395          estimate D2E/DX2                !
 ! R10   R(6,7)                  1.378          estimate D2E/DX2                !
 ! R11   R(6,27)                 1.032          estimate D2E/DX2                !
 ! R12   R(7,8)                  1.4022         estimate D2E/DX2                !
 ! R13   R(7,28)                 1.032          estimate D2E/DX2                !
 ! R14   R(8,9)                  1.4002         estimate D2E/DX2                !
 ! R15   R(8,15)                 1.3792         estimate D2E/DX2                !
 ! R16   R(9,10)                 1.4658         estimate D2E/DX2                !
 ! R17   R(9,15)                 2.2996         estimate D2E/DX2                !
 ! R18   R(10,11)                1.52           estimate D2E/DX2                !
 ! R19   R(10,14)                1.5371         estimate D2E/DX2                !
 ! R20   R(10,29)                1.07           estimate D2E/DX2                !
 ! R21   R(11,12)                1.52           estimate D2E/DX2                !
 ! R22   R(11,30)                1.07           estimate D2E/DX2                !
 ! R23   R(11,31)                1.07           estimate D2E/DX2                !
 ! R24   R(12,16)                1.482          estimate D2E/DX2                !
 ! R25   R(12,32)                1.07           estimate D2E/DX2                !
 ! R26   R(13,14)                1.96           estimate D2E/DX2                !
 ! R27   R(14,15)                1.513          estimate D2E/DX2                !
 ! R28   R(14,33)                1.07           estimate D2E/DX2                !
 ! R29   R(16,17)                1.3517         estimate D2E/DX2                !
 ! R30   R(16,24)                1.3962         estimate D2E/DX2                !
 ! R31   R(17,18)                1.3591         estimate D2E/DX2                !
 ! R32   R(17,34)                1.032          estimate D2E/DX2                !
 ! R33   R(18,19)                1.3507         estimate D2E/DX2                !
 ! R34   R(19,20)                1.4107         estimate D2E/DX2                !
 ! R35   R(19,35)                1.032          estimate D2E/DX2                !
 ! R36   R(20,21)                1.3322         estimate D2E/DX2                !
 ! R37   R(20,22)                2.1585         estimate D2E/DX2                !
 ! R38   R(20,24)                1.4231         estimate D2E/DX2                !
 ! R39   R(21,22)                1.3249         estimate D2E/DX2                !
 ! R40   R(22,23)                1.3174         estimate D2E/DX2                !
 ! R41   R(22,24)                2.1573         estimate D2E/DX2                !
 ! R42   R(23,24)                1.3428         estimate D2E/DX2                !
 ! A1    A(2,1,5)              109.8304         estimate D2E/DX2                !
 ! A2    A(2,1,25)             125.0849         estimate D2E/DX2                !
 ! A3    A(5,1,25)             125.0847         estimate D2E/DX2                !
 ! A4    A(1,2,3)              109.8612         estimate D2E/DX2                !
 ! A5    A(2,3,4)              107.0493         estimate D2E/DX2                !
 ! A6    A(2,3,26)             126.4755         estimate D2E/DX2                !
 ! A7    A(4,3,26)             126.4752         estimate D2E/DX2                !
 ! A8    A(3,4,5)              106.0925         estimate D2E/DX2                !
 ! A9    A(3,4,15)             133.7944         estimate D2E/DX2                !
 ! A10   A(5,4,15)             120.1124         estimate D2E/DX2                !
 ! A11   A(1,5,4)              107.1666         estimate D2E/DX2                !
 ! A12   A(1,5,6)              133.5681         estimate D2E/DX2                !
 ! A13   A(4,5,6)              119.2653         estimate D2E/DX2                !
 ! A14   A(5,6,7)              120.0414         estimate D2E/DX2                !
 ! A15   A(5,6,27)             119.9794         estimate D2E/DX2                !
 ! A16   A(7,6,27)             119.9792         estimate D2E/DX2                !
 ! A17   A(6,7,8)              120.9727         estimate D2E/DX2                !
 ! A18   A(6,7,28)             119.5136         estimate D2E/DX2                !
 ! A19   A(8,7,28)             119.5137         estimate D2E/DX2                !
 ! A20   A(7,8,9)              128.9753         estimate D2E/DX2                !
 ! A21   A(7,8,15)             119.368          estimate D2E/DX2                !
 ! A22   A(8,9,10)             110.0291         estimate D2E/DX2                !
 ! A23   A(10,9,15)             76.1524         estimate D2E/DX2                !
 ! A24   A(9,10,11)            110.5631         estimate D2E/DX2                !
 ! A25   A(9,10,14)            105.0583         estimate D2E/DX2                !
 ! A26   A(9,10,29)            112.0285         estimate D2E/DX2                !
 ! A27   A(11,10,14)           110.5629         estimate D2E/DX2                !
 ! A28   A(11,10,29)           106.6723         estimate D2E/DX2                !
 ! A29   A(14,10,29)           112.0289         estimate D2E/DX2                !
 ! A30   A(10,11,12)           109.4711         estimate D2E/DX2                !
 ! A31   A(10,11,30)           109.4717         estimate D2E/DX2                !
 ! A32   A(10,11,31)           109.4709         estimate D2E/DX2                !
 ! A33   A(12,11,30)           109.4713         estimate D2E/DX2                !
 ! A34   A(12,11,31)           109.4711         estimate D2E/DX2                !
 ! A35   A(30,11,31)           109.4711         estimate D2E/DX2                !
 ! A36   A(11,12,16)           109.4715         estimate D2E/DX2                !
 ! A37   A(11,12,32)           148.3322         estimate D2E/DX2                !
 ! A38   A(16,12,32)           102.196          estimate D2E/DX2                !
 ! A39   A(10,14,13)           110.6775         estimate D2E/DX2                !
 ! A40   A(10,14,15)           104.5893         estimate D2E/DX2                !
 ! A41   A(10,14,33)           112.298          estimate D2E/DX2                !
 ! A42   A(13,14,15)           110.6774         estimate D2E/DX2                !
 ! A43   A(13,14,33)           106.3917         estimate D2E/DX2                !
 ! A44   A(15,14,33)           112.2983         estimate D2E/DX2                !
 ! A45   A(4,15,8)             120.2377         estimate D2E/DX2                !
 ! A46   A(4,15,9)             154.7034         estimate D2E/DX2                !
 ! A47   A(4,15,14)            131.0982         estimate D2E/DX2                !
 ! A48   A(8,15,14)            108.6621         estimate D2E/DX2                !
 ! A49   A(9,15,14)             74.1956         estimate D2E/DX2                !
 ! A50   A(12,16,17)           119.4905         estimate D2E/DX2                !
 ! A51   A(12,16,24)           120.7117         estimate D2E/DX2                !
 ! A52   A(17,16,24)           119.7444         estimate D2E/DX2                !
 ! A53   A(16,17,18)           121.6779         estimate D2E/DX2                !
 ! A54   A(16,17,34)           119.1611         estimate D2E/DX2                !
 ! A55   A(18,17,34)           119.161          estimate D2E/DX2                !
 ! A56   A(17,18,19)           121.5705         estimate D2E/DX2                !
 ! A57   A(18,19,20)           119.371          estimate D2E/DX2                !
 ! A58   A(18,19,35)           120.3144         estimate D2E/DX2                !
 ! A59   A(20,19,35)           120.3146         estimate D2E/DX2                !
 ! A60   A(19,20,21)           134.9815         estimate D2E/DX2                !
 ! A61   A(19,20,24)           118.7582         estimate D2E/DX2                !
 ! A62   A(21,20,24)           106.2602         estimate D2E/DX2                !
 ! A63   A(20,22,23)            74.7146         estimate D2E/DX2                !
 ! A64   A(21,22,23)           110.4991         estimate D2E/DX2                !
 ! A65   A(21,22,24)            74.2915         estimate D2E/DX2                !
 ! A66   A(16,24,20)           118.8754         estimate D2E/DX2                !
 ! A67   A(16,24,23)           134.9117         estimate D2E/DX2                !
 ! A68   A(20,24,23)           106.2129         estimate D2E/DX2                !
 ! A69   L(19,20,22,1,-1)      187.6904         estimate D2E/DX2                !
 ! A70   L(16,24,22,19,-1)     189.669          estimate D2E/DX2                !
 ! A71   L(19,20,22,1,-2)      174.4504         estimate D2E/DX2                !
 ! A72   L(16,24,22,19,-2)     180.0097         estimate D2E/DX2                !
 ! D1    D(5,1,2,3)              0.0442         estimate D2E/DX2                !
 ! D2    D(25,1,2,3)          -179.9558         estimate D2E/DX2                !
 ! D3    D(2,1,5,4)             -0.0333         estimate D2E/DX2                !
 ! D4    D(2,1,5,6)            179.9476         estimate D2E/DX2                !
 ! D5    D(25,1,5,4)           179.9667         estimate D2E/DX2                !
 ! D6    D(25,1,5,6)            -0.0524         estimate D2E/DX2                !
 ! D7    D(1,2,3,4)             -0.0357         estimate D2E/DX2                !
 ! D8    D(1,2,3,26)           179.9646         estimate D2E/DX2                !
 ! D9    D(2,3,4,5)              0.0149         estimate D2E/DX2                !
 ! D10   D(2,3,4,15)           179.7094         estimate D2E/DX2                !
 ! D11   D(26,3,4,5)          -179.9854         estimate D2E/DX2                !
 ! D12   D(26,3,4,15)           -0.291          estimate D2E/DX2                !
 ! D13   D(3,4,5,1)              0.0111         estimate D2E/DX2                !
 ! D14   D(3,4,5,6)           -179.9731         estimate D2E/DX2                !
 ! D15   D(15,4,5,1)          -179.734          estimate D2E/DX2                !
 ! D16   D(15,4,5,6)             0.2819         estimate D2E/DX2                !
 ! D17   D(3,4,15,8)           179.7669         estimate D2E/DX2                !
 ! D18   D(3,4,15,9)           179.3481         estimate D2E/DX2                !
 ! D19   D(3,4,15,14)            0.3463         estimate D2E/DX2                !
 ! D20   D(5,4,15,8)            -0.5725         estimate D2E/DX2                !
 ! D21   D(5,4,15,9)            -0.9913         estimate D2E/DX2                !
 ! D22   D(5,4,15,14)         -179.9931         estimate D2E/DX2                !
 ! D23   D(1,5,6,7)           -179.9766         estimate D2E/DX2                !
 ! D24   D(1,5,6,27)             0.0235         estimate D2E/DX2                !
 ! D25   D(4,5,6,7)              0.0025         estimate D2E/DX2                !
 ! D26   D(4,5,6,27)          -179.9974         estimate D2E/DX2                !
 ! D27   D(5,6,7,8)             -0.0025         estimate D2E/DX2                !
 ! D28   D(5,6,7,28)           179.9975         estimate D2E/DX2                !
 ! D29   D(27,6,7,8)           179.9975         estimate D2E/DX2                !
 ! D30   D(27,6,7,28)           -0.0026         estimate D2E/DX2                !
 ! D31   D(6,7,8,9)           -179.9827         estimate D2E/DX2                !
 ! D32   D(6,7,8,15)            -0.2839         estimate D2E/DX2                !
 ! D33   D(28,7,8,9)             0.0174         estimate D2E/DX2                !
 ! D34   D(28,7,8,15)          179.7161         estimate D2E/DX2                !
 ! D35   D(7,8,9,10)           179.3794         estimate D2E/DX2                !
 ! D36   D(7,8,15,4)             0.5682         estimate D2E/DX2                !
 ! D37   D(7,8,15,14)         -179.8925         estimate D2E/DX2                !
 ! D38   D(8,9,10,11)         -118.6469         estimate D2E/DX2                !
 ! D39   D(8,9,10,14)            0.6545         estimate D2E/DX2                !
 ! D40   D(8,9,10,29)          122.5151         estimate D2E/DX2                !
 ! D41   D(15,9,10,11)        -118.841          estimate D2E/DX2                !
 ! D42   D(15,9,10,14)           0.4604         estimate D2E/DX2                !
 ! D43   D(15,9,10,29)         122.321          estimate D2E/DX2                !
 ! D44   D(10,9,15,4)         -179.6877         estimate D2E/DX2                !
 ! D45   D(10,9,15,14)          -0.4695         estimate D2E/DX2                !
 ! D46   D(9,10,11,12)         -64.0813         estimate D2E/DX2                !
 ! D47   D(9,10,11,30)         175.9183         estimate D2E/DX2                !
 ! D48   D(9,10,11,31)          55.9183         estimate D2E/DX2                !
 ! D49   D(14,10,11,12)       -179.9998         estimate D2E/DX2                !
 ! D50   D(14,10,11,30)         59.9998         estimate D2E/DX2                !
 ! D51   D(14,10,11,31)        -60.0002         estimate D2E/DX2                !
 ! D52   D(29,10,11,12)         57.9593         estimate D2E/DX2                !
 ! D53   D(29,10,11,30)        -62.0411         estimate D2E/DX2                !
 ! D54   D(29,10,11,31)        177.9589         estimate D2E/DX2                !
 ! D55   D(9,10,14,13)        -119.9263         estimate D2E/DX2                !
 ! D56   D(9,10,14,15)          -0.7021         estimate D2E/DX2                !
 ! D57   D(9,10,14,33)         121.3369         estimate D2E/DX2                !
 ! D58   D(11,10,14,13)         -0.6247         estimate D2E/DX2                !
 ! D59   D(11,10,14,15)        118.5994         estimate D2E/DX2                !
 ! D60   D(11,10,14,33)       -119.3615         estimate D2E/DX2                !
 ! D61   D(29,10,14,13)        118.2134         estimate D2E/DX2                !
 ! D62   D(29,10,14,15)       -122.5624         estimate D2E/DX2                !
 ! D63   D(29,10,14,33)         -0.5234         estimate D2E/DX2                !
 ! D64   D(10,11,12,16)        179.9995         estimate D2E/DX2                !
 ! D65   D(10,11,12,32)          0.2593         estimate D2E/DX2                !
 ! D66   D(30,11,12,16)        -59.9999         estimate D2E/DX2                !
 ! D67   D(30,11,12,32)        120.2599         estimate D2E/DX2                !
 ! D68   D(31,11,12,16)         60.0            estimate D2E/DX2                !
 ! D69   D(31,11,12,32)       -119.7402         estimate D2E/DX2                !
 ! D70   D(11,12,16,17)         46.4002         estimate D2E/DX2                !
 ! D71   D(11,12,16,24)       -130.9382         estimate D2E/DX2                !
 ! D72   D(32,12,16,17)       -133.7394         estimate D2E/DX2                !
 ! D73   D(32,12,16,24)         48.9222         estimate D2E/DX2                !
 ! D74   D(10,14,15,4)        -179.9941         estimate D2E/DX2                !
 ! D75   D(10,14,15,8)           0.5342         estimate D2E/DX2                !
 ! D76   D(10,14,15,9)           0.4492         estimate D2E/DX2                !
 ! D77   D(13,14,15,4)         -60.7699         estimate D2E/DX2                !
 ! D78   D(13,14,15,8)         119.7584         estimate D2E/DX2                !
 ! D79   D(13,14,15,9)         119.6734         estimate D2E/DX2                !
 ! D80   D(33,14,15,4)          57.967          estimate D2E/DX2                !
 ! D81   D(33,14,15,8)        -121.5047         estimate D2E/DX2                !
 ! D82   D(33,14,15,9)        -121.5897         estimate D2E/DX2                !
 ! D83   D(12,16,17,18)       -176.8179         estimate D2E/DX2                !
 ! D84   D(12,16,17,34)          3.1821         estimate D2E/DX2                !
 ! D85   D(24,16,17,18)          0.5465         estimate D2E/DX2                !
 ! D86   D(24,16,17,34)       -179.4534         estimate D2E/DX2                !
 ! D87   D(12,16,22,21)        177.2618         estimate D2E/DX2                !
 ! D88   D(17,16,22,21)         -0.2327         estimate D2E/DX2                !
 ! D89   D(12,16,24,20)        177.0881         estimate D2E/DX2                !
 ! D90   D(12,16,24,23)         -2.9557         estimate D2E/DX2                !
 ! D91   D(17,16,24,20)         -0.2436         estimate D2E/DX2                !
 ! D92   D(17,16,24,23)        179.7126         estimate D2E/DX2                !
 ! D93   D(16,17,18,19)         -0.608          estimate D2E/DX2                !
 ! D94   D(34,17,18,19)        179.3919         estimate D2E/DX2                !
 ! D95   D(17,18,19,20)          0.3468         estimate D2E/DX2                !
 ! D96   D(17,18,19,35)       -179.6524         estimate D2E/DX2                !
 ! D97   D(18,19,20,21)        179.9634         estimate D2E/DX2                !
 ! D98   D(18,19,20,24)         -0.0506         estimate D2E/DX2                !
 ! D99   D(35,19,20,21)         -0.0375         estimate D2E/DX2                !
 ! D100  D(35,19,20,24)        179.9485         estimate D2E/DX2                !
 ! D101  D(18,19,22,23)         -0.1037         estimate D2E/DX2                !
 ! D102  D(35,19,22,23)        179.907          estimate D2E/DX2                !
 ! D103  D(19,20,24,16)          0.0017         estimate D2E/DX2                !
 ! D104  D(19,20,24,23)       -179.966          estimate D2E/DX2                !
 ! D105  D(21,20,24,16)        179.9914         estimate D2E/DX2                !
 ! D106  D(21,20,24,23)          0.0237         estimate D2E/DX2                !
 --------------------------------------------------------------------------------
 Trust Radius=3.00D-01 FncErr=1.00D-07 GrdErr=1.00D-06
 Number of steps in this run=    210 maximum allowed number of steps=    210.
 GradGradGradGradGradGradGradGradGradGradGradGradGradGradGradGradGradGrad

                          Input orientation:                          
 ---------------------------------------------------------------------
 Center     Atomic      Atomic             Coordinates (Angstroms)
 Number     Number       Type             X           Y           Z
 ---------------------------------------------------------------------
      1          6           0        2.762000   -0.399000    0.002000
      2          8           0        2.923000    0.959000   -0.001000
      3          6           0        1.722000    1.561000   -0.003000
      4          6           0        0.711000    0.502000   -0.002000
      5          6           0        1.418000   -0.711000    0.001000
      6          6           0        0.710000   -1.913000    0.002000
      7          6           0       -0.668000   -1.902000    0.000000
      8          6           0       -1.380000   -0.694000   -0.003000
      9         34           0       -2.765000   -0.488000   -0.005000
     10          6           0       -3.059000    0.948000    0.007000
     11          6           0       -3.837950    1.323050    1.257190
     12          6           0       -5.190280    0.629330    1.238720
     13         34           0       -1.462980    2.754440    1.594880
     14          6           0       -1.685000    1.637000    0.000000
     15          6           0       -0.688000    0.499000    0.002000
     16          6           0       -5.949760    0.994990    2.457660
     17          6           0       -6.008640    2.289700    2.841620
     18          7           0       -6.638230    2.666990    3.985440
     19          6           0       -7.246320    1.766630    4.787960
     20          6           0       -7.223130    0.400450    4.437290
     21          7           0       -7.702640   -0.718760    4.977770
     22         16           0       -7.374120   -1.739660    4.199760
     23          7           0       -6.689020   -1.321730    3.154960
     24          6           0       -6.556760    0.011740    3.241390
     25          1           0        3.530780   -1.087480    0.004620
     26          1           0        1.545400    2.577780   -0.004890
     27          1           0        1.218520   -2.811010    0.004240
     28          1           0       -1.183550   -2.796000    0.000720
     29          1           0       -3.659500    1.241700   -0.828490
     30          1           0       -3.981200    2.383080    1.283580
     31          1           0       -3.291060    1.015360    2.123880
     32          1           0       -5.870870   -0.025950    0.736410
     33          1           0       -1.559970    2.284820   -0.842380
     34          1           0       -5.564200    3.010020    2.251170
     35          1           0       -7.723370    2.075260    5.649470
 ---------------------------------------------------------------------
                    Distance matrix (angstroms):
                    1          2          3          4          5
     1  C    0.000000
     2  O    1.367514   0.000000
     3  C    2.218834   1.343432   0.000000
     4  C    2.240183   2.258715   1.464105   0.000000
     5  C    1.379739   2.248095   2.292251   1.404004   0.000000
     6  C    2.550078   3.625708   3.618404   2.415004   1.395016
     7  C    3.744852   4.591362   4.207669   2.771437   2.402057
     8  C    4.152495   4.609579   3.835027   2.408879   2.798055
     9  Se   5.527721   5.869171   4.932705   3.614234   4.188944
    10  C    5.974820   5.982015   4.820148   3.796300   4.774500
    11  C    6.935438   6.886655   5.705939   4.790890   5.774113
    12  C    8.113304   8.214067   7.084454   6.031642   6.855494
    13  Se   5.507441   5.000726   3.757874   3.514214   4.780144
    14  C    4.890921   4.657612   3.407849   2.651235   3.891236
    15  C    3.564955   3.640183   2.633623   1.399009   2.428855
    16  C    9.157960   9.207181   8.076578   7.117492   7.951696
    17  C    9.602951   9.467072   8.269562   7.512364   8.498724
    18  N   10.659851  10.498860   9.328682   8.637016   9.601532
    19  C   11.303178  11.269493  10.169874   9.373470  10.204121
    20  C   10.955078  11.088478  10.053776   9.092196   9.776764
    21  N   11.591774  11.853576  10.900881   9.852802  10.390109
    22  S   11.052578  11.443768  10.549737   9.383442   9.797403
    23  N   10.005717  10.370764   9.435470   8.249405   8.720334
    24  C    9.874292  10.063610   9.025749   7.973724   8.638245
    25  H    1.032005   2.134832   3.207209   3.236920   2.146064
    26  H    3.215802   2.125617   1.032004   2.237207   3.291252
    27  H    2.863587   4.137421   4.400911   3.351664   2.109466
    28  H    4.616598   5.564511   5.236954   3.803437   3.333960
    29  H    6.679616   6.640329   5.453799   4.509048   5.502917
    30  H    7.406292   7.165621   5.904032   5.216121   6.353716
    31  H    6.568282   6.567559   5.472852   4.560635   5.446300
    32  H    8.672080   8.879530   7.792099   6.644170   7.357836
    33  H    5.157062   4.750025   3.464073   3.006990   4.307497
    34  H    9.273931   9.017290   7.763353   7.123558   8.225592
    35  H   12.163834  12.104505  11.019523  10.273892  11.101041
                    6          7          8          9         10
     6  C    0.000000
     7  C    1.378045   0.000000
     8  C    2.419522   1.402219   0.000000
     9  Se   3.755835   2.529196   1.400237   0.000000
    10  C    4.731882   3.720138   2.348469   1.465836   0.000000
    11  C    5.721134   4.693619   3.420247   2.454434   1.520000
    12  C    6.542646   5.328515   4.220344   2.945717   2.482144
    13  Se   5.389258   4.985787   3.801558   3.842953   2.886498
    14  C    4.282351   3.682229   2.350871   2.383705   1.537090
    15  C    2.787857   2.401084   1.379180   2.299597   2.413145
    16  C    7.670663   6.506123   5.458044   4.290297   3.790044
    17  C    8.418210   7.359863   6.198277   5.132257   4.305300
    18  N    9.531033   8.508998   7.406274   6.393707   5.620836
    19  C    9.987398   8.925116   7.963775   6.938159   6.407916
    20  C    9.378614   8.243819   7.419984   6.355958   6.104692
    21  N    9.846675   8.698529   8.048879   7.018656   7.003573
    22  S    9.110666   7.914315   7.395003   6.363226   6.589614
    23  N    8.064506   6.822255   6.209062   5.106700   5.313979
    24  C    8.185602   6.989027   6.150039   5.016596   4.855120
    25  H    2.939097   4.277057   4.926525   6.324264   6.896984
    26  H    4.567827   4.996758   4.388908   5.289476   4.884345
    27  H    1.031998   2.094105   3.351729   4.611387   5.694501
    28  H    2.089311   1.032002   2.111163   2.797835   4.187468
    29  H    5.452924   4.417954   3.102336   2.114268   1.070002
    30  H    6.488922   5.566577   4.229651   3.373823   2.130625
    31  H    5.393158   4.461199   3.331318   2.658752   2.130627
    32  H    6.885359   5.579581   4.600101   3.226392   3.063859
    33  H    4.846384   4.362875   3.100051   3.137170   2.180740
    34  H    8.286162   7.291672   6.025660   5.016171   3.945156
    35  H   10.905130   9.874885   8.936306   7.945361   7.407059
                   11         12         13         14         15
    11  C    0.000000
    12  C    1.519995   0.000000
    13  Se   2.793456   4.305312   0.000000
    14  C    2.512824   3.851859   1.960002   0.000000
    15  C    3.489519   4.670866   2.867903   1.512963   0.000000
    16  C    2.451223   1.482003   4.896044   4.963915   5.827726
    17  C    2.855998   2.448638   4.736388   5.214852   6.291205
    18  N    4.134137   3.713905   5.701372   6.440427   7.481525
    19  C    4.927483   4.256508   6.679712   7.339594   8.217290
    20  C    4.735364   3.796803   6.841045   7.203435   7.898698
    21  N    5.739994   4.702105   7.901925   8.157193   8.685989
    22  S    5.526609   4.375960   7.869175   7.836192   8.205912
    23  N    4.327238   3.118466   6.808855   6.614233   7.019149
    24  C    3.612272   2.501874   6.014981   6.073066   6.721117
    25  H    7.853519   8.973702   6.498224   5.884486   4.507220
    26  H    5.669890   7.121265   3.411865   3.364606   3.051139
    27  H    6.650430   7.377845   6.379249   5.311802   3.819815
    28  H    5.058768   5.414741   5.781592   4.461271   3.332056
    29  H    2.094880   2.644171   3.603582   2.177454   3.173504
    30  H    1.069991   2.130616   2.564420   2.734364   4.004669
    31  H    1.070006   2.130625   2.578006   2.734361   3.397782
    32  H    2.494750   1.070005   5.281764   4.563903   5.260900
    33  H    3.243823   4.500086   2.483986   1.070003   2.159274
    34  H    2.610326   2.613916   4.161255   4.690538   5.928011
    35  H    5.912227   5.287908   7.489557   8.280730   9.158326
                   16         17         18         19         20
    16  C    0.000000
    17  C    1.351727   0.000000
    18  N    2.367211   1.359064   0.000000
    19  C    2.776111   2.365099   1.350726   0.000000
    20  C    2.427732   2.755071   2.384005   1.410658   0.000000
    21  N    3.515748   4.060001   3.685240   2.534052   1.332171
    22  S    3.541472   4.465963   4.472810   3.557581   2.158539
    23  N    2.529807   3.688296   4.074575   3.537688   2.212588
    24  C    1.396231   2.376837   2.758732   2.438649   1.423138
    25  H   10.011729  10.509731  11.547802  12.131454  11.726427
    26  H    8.046540   8.077693   9.105081  10.046080  10.067812
    27  H    8.478747   9.289769  10.372413  10.746734  10.061156
    28  H    6.566956   7.564162   8.687680   8.971758   8.147206
    29  H    4.013096   4.481793   5.837654   6.684709   6.413704
    30  H    2.679643   2.558656   3.800061   4.829254   4.938301
    31  H    2.679647   3.086152   4.170951   4.827609   4.603385
    32  H    2.002809   3.132591   4.289168   4.638994   3.963198
    33  H    5.641293   5.776032   7.017309   8.018967   7.968510
    34  H    2.061951   1.031998   2.068551   3.287986   3.786955
    35  H    3.807929   3.297015   2.072841   1.032002   2.127113
                   21         22         23         24         25
    21  N    0.000000
    22  S    1.324938   0.000000
    23  N    2.171091   1.317435   0.000000
    24  C    2.204923   2.157302   1.342797   0.000000
    25  H   12.290561  11.702196  10.696907  10.650982   0.000000
    26  H   11.010010  10.764628   9.643469   9.097686   4.168448
    27  H   10.425958   9.622039   8.641422   8.882682   2.883939
    28  H    8.460762   7.554532   6.514054   6.874353   5.014376
    29  H    7.341869   6.926053   5.622903   5.144982   7.603899
    30  H    6.092419   6.083831   4.955802   4.011207   8.373193
    31  H    5.532983   5.345165   4.251029   3.594562   7.446523
    32  H    4.671670   4.146246   2.863180   2.597458   9.489646
    33  H    8.979311   8.684697   7.435932   6.841928   6.164864
    34  H    5.090292   5.443553   4.565755   3.309893  10.225221
    35  H    2.873701   4.096004   4.339585   3.379045  12.981647
                   26         27         28         29         30
    26  H    0.000000
    27  H    5.398703   0.000000
    28  H    6.026999   2.402119   0.000000
    29  H    5.436397   6.396325   4.808424   0.000000
    30  H    5.678149   7.460052   6.024570   2.422205   0.000000
    31  H    5.510369   6.282539   4.845191   2.983868   1.747299
    32  H    7.894935   7.651933   5.494123   2.990987   3.110253
    33  H    3.229634   5.865514   5.164033   2.344423   3.223618
    34  H    7.471482   9.216202   7.613441   4.029782   1.958360
    35  H   10.868965  11.649105   9.920020   7.692453   5.758436
                   31         32         33         34         35
    31  H    0.000000
    32  H    3.108829   0.000000
    33  H    3.661543   5.139659   0.000000
    34  H    3.026886   3.406708   5.111734   0.000000
    35  H    5.761818   5.655528   8.954079   4.133308   0.000000
 Stoichiometry    C17H11N3OSSe2
 Framework group  C1[X(C17H11N3OSSe2)]
 Deg. of freedom    99
 Full point group                 C1      NOp   1
 Largest Abelian subgroup         C1      NOp   1
 Largest concise Abelian subgroup C1      NOp   1
                         Standard orientation:                         
 ---------------------------------------------------------------------
 Center     Atomic      Atomic             Coordinates (Angstroms)
 Number     Number       Type             X           Y           Z
 ---------------------------------------------------------------------
      1          6           0       -5.747366   -0.818384   -1.366600
      2          8           0       -5.936200    0.521132   -1.166269
      3          6           0       -4.879081    1.039335   -0.519141
      4          6           0       -3.938301   -0.058030   -0.286061
      5          6           0       -4.532536   -1.203990   -0.838228
      6          6           0       -3.858960   -2.423489   -0.766216
      7          6           0       -2.624334   -2.494835   -0.158254
      8          6           0       -2.025457   -1.354071    0.395117
      9         34           0       -0.790745   -1.234774    1.044670
     10          6           0       -0.567371    0.157041    1.446704
     11          6           0        0.670900    0.717201    0.766038
     12          6           0        1.897613   -0.046238    1.237971
     13         34           0       -1.355550    2.325055   -0.288334
     14          6           0       -1.824607    0.912274    0.986673
     15          6           0       -2.681750   -0.143191    0.323079
     16          6           0        3.104933    0.499905    0.574316
     17          6           0        3.286032    1.838313    0.519230
     18          7           0        4.343349    2.389201   -0.133196
     19          6           0        5.271370    1.624332   -0.748185
     20          6           0        5.139236    0.220144   -0.720763
     21          7           0        5.843278   -0.801596   -1.205584
     22         16           0        5.237805   -1.931036   -0.869085
     23          7           0        4.149142   -1.680570   -0.170719
     24          6           0        4.026318   -0.349704   -0.041050
     25          1           0       -6.413829   -1.446838   -1.841896
     26          1           0       -4.753816    2.024717   -0.239206
     27          1           0       -4.285525   -3.272747   -1.168488
     28          1           0       -2.133261   -3.401200   -0.109509
     29          1           0       -0.406754    0.249526    2.500531
     30          1           0        0.777359    1.752341    1.015101
     31          1           0        0.572572    0.613791   -0.294411
     32          1           0        2.307188   -0.824626    1.847290
     33          1           0       -2.328964    1.393439    1.798468
     34          1           0        2.604062    2.457600    0.984437
     35          1           0        6.069507    2.063050   -1.233501
 ---------------------------------------------------------------------
 Rotational constants (GHZ):      0.3462271      0.0876271      0.0764621
 Standard basis: 6-31++G(d,p) (6D, 7F)
 There are   556 symmetry adapted basis functions of A   symmetry.
 Integral buffers will be    131072 words long.
 Raffenetti 2 integral format.
 Two-electron integral symmetry is turned on.
   556 basis functions,   990 primitive gaussians,   556 cartesian basis functions
   113 alpha electrons      113 beta electrons
       nuclear repulsion energy      3229.8837083360 Hartrees.
 NAtoms=   35 NActive=   35 NUniq=   35 SFac= 1.00D+00 NAtFMM=   60 NAOKFM=F Big=F
 One-electron integrals computed using PRISM.
 NBasis=   556 RedAO= T  NBF=   556
 NBsUse=   552 1.00D-06 NBFU=   552
 Harris functional with IExCor=  402 diagonalized for initial guess.
 ExpMin= 3.00D-02 ExpMax= 5.61D+05 ExpMxC= 5.42D+03 IAcc=3 IRadAn=         5 AccDes= 0.00D+00
 HarFok:  IExCor=  402 AccDes= 0.00D+00 IRadAn=         5 IDoV= 1
 ScaDFX=  1.000000  1.000000  1.000000  1.000000
 FoFCou: FMM=F IPFlag=           0 FMFlag=      100000 FMFlg1=           0
         NFxFlg=           0 DoJE=T BraDBF=F KetDBF=T FulRan=T
         Omega=  0.000000  0.000000  1.000000  0.000000  0.000000 ICntrl=     500 IOpCl=  0
         NMat0=    1 NMatS0=    1 NMatT0=    0 NMatD0=    1 NMtDS0=    0 NMtDT0=    0
         I1Cent=           4 NGrid=           0.
 Petite list used in FoFCou.
 Initial guess orbital symmetries:
       Occupied  (A) (A) (A) (A) (A) (A) (A) (A) (A) (A) (A) (A)
                 (A) (A) (A) (A) (A) (A) (A) (A) (A) (A) (A) (A)
                 (A) (A) (A) (A) (A) (A) (A) (A) (A) (A) (A) (A)
                 (A) (A) (A) (A) (A) (A) (A) (A) (A) (A) (A) (A)
                 (A) (A) (A) (A) (A) (A) (A) (A) (A) (A) (A) (A)
                 (A) (A) (A) (A) (A) (A) (A) (A) (A) (A) (A) (A)
                 (A) (A) (A) (A) (A) (A) (A) (A) (A) (A) (A) (A)
                 (A) (A) (A) (A) (A) (A) (A) (A) (A) (A) (A) (A)
                 (A) (A) (A) (A) (A) (A) (A) (A) (A) (A) (A) (A)
                 (A) (A) (A) (A) (A)
       Virtual   (A) (A) (A) (A) (A) (A) (A) (A) (A) (A) (A) (A)
                 (A) (A) (A) (A) (A) (A) (A) (A) (A) (A) (A) (A)
                 (A) (A) (A) (A) (A) (A) (A) (A) (A) (A) (A) (A)
                 (A) (A) (A) (A) (A) (A) (A) (A) (A) (A) (A) (A)
                 (A) (A) (A) (A) (A) (A) (A) (A) (A) (A) (A) (A)
                 (A) (A) (A) (A) (A) (A) (A) (A) (A) (A) (A) (A)
                 (A) (A) (A) (A) (A) (A) (A) (A) (A) (A) (A) (A)
                 (A) (A) (A) (A) (A) (A) (A) (A) (A) (A) (A) (A)
                 (A) (A) (A) (A) (A) (A) (A) (A) (A) (A) (A) (A)
                 (A) (A) (A) (A) (A) (A) (A) (A) (A) (A) (A) (A)
                 (A) (A) (A) (A) (A) (A) (A) (A) (A) (A) (A) (A)
                 (A) (A) (A) (A) (A) (A) (A) (A) (A) (A) (A) (A)
                 (A) (A) (A) (A) (A) (A) (A) (A) (A) (A) (A) (A)
                 (A) (A) (A) (A) (A) (A) (A) (A) (A) (A) (A) (A)
                 (A) (A) (A) (A) (A) (A) (A) (A) (A) (A) (A) (A)
                 (A) (A) (A) (A) (A) (A) (A) (A) (A) (A) (A) (A)
                 (A) (A) (A) (A) (A) (A) (A) (A) (A) (A) (A) (A)
                 (A) (A) (A) (A) (A) (A) (A) (A) (A) (A) (A) (A)
                 (A) (A) (A) (A) (A) (A) (A) (A) (A) (A) (A) (A)
                 (A) (A) (A) (A) (A) (A) (A) (A) (A) (A) (A) (A)
                 (A) (A) (A) (A) (A) (A) (A) (A) (A) (A) (A) (A)
                 (A) (A) (A) (A) (A) (A) (A) (A) (A) (A) (A) (A)
                 (A) (A) (A) (A) (A) (A) (A) (A) (A) (A) (A) (A)
                 (A) (A) (A) (A) (A) (A) (A) (A) (A) (A) (A) (A)
                 (A) (A) (A) (A) (A) (A) (A) (A) (A) (A) (A) (A)
                 (A) (A) (A) (A) (A) (A) (A) (A) (A) (A) (A) (A)
                 (A) (A) (A) (A) (A) (A) (A) (A) (A) (A) (A) (A)
                 (A) (A) (A) (A) (A) (A) (A) (A) (A) (A) (A) (A)
                 (A) (A) (A) (A) (A) (A) (A) (A) (A) (A) (A) (A)
                 (A) (A) (A) (A) (A) (A) (A) (A) (A) (A) (A) (A)
                 (A) (A) (A) (A) (A) (A) (A) (A) (A) (A) (A) (A)
                 (A) (A) (A) (A) (A) (A) (A) (A) (A) (A) (A) (A)
                 (A) (A) (A) (A) (A) (A) (A) (A) (A) (A) (A) (A)
                 (A) (A) (A) (A) (A) (A) (A) (A) (A) (A) (A) (A)
                 (A) (A) (A) (A) (A) (A) (A) (A) (A) (A) (A) (A)
                 (A) (A) (A) (A) (A) (A) (A) (A) (A) (A) (A) (A)
                 (A) (A) (A) (A) (A) (A) (A)
 The electronic state of the initial guess is 1-A.
 Requested convergence on RMS density matrix=1.00D-08 within 128 cycles.
 Requested convergence on MAX density matrix=1.00D-06.
 Requested convergence on             energy=1.00D-06.
 No special actions if energy rises.
 EnCoef did     4 forward-backward iterations
 EnCoef did     1 forward-backward iterations
 EnCoef did     2 forward-backward iterations
 EnCoef did     2 forward-backward iterations
 EnCoef did     7 forward-backward iterations
 EnCoef did     2 forward-backward iterations
 Restarting incremental Fock formation.
 SCF Done:  E(RB3LYP) =  -6090.14562023     A.U. after   28 cycles
             Convg  =    0.3171D-08             -V/T =  2.0040

 **********************************************************************

            Population analysis using the SCF density.

 **********************************************************************

 Orbital symmetries:
       Occupied  (A) (A) (A) (A) (A) (A) (A) (A) (A) (A) (A) (A)
                 (A) (A) (A) (A) (A) (A) (A) (A) (A) (A) (A) (A)
                 (A) (A) (A) (A) (A) (A) (A) (A) (A) (A) (A) (A)
                 (A) (A) (A) (A) (A) (A) (A) (A) (A) (A) (A) (A)
                 (A) (A) (A) (A) (A) (A) (A) (A) (A) (A) (A) (A)
                 (A) (A) (A) (A) (A) (A) (A) (A) (A) (A) (A) (A)
                 (A) (A) (A) (A) (A) (A) (A) (A) (A) (A) (A) (A)
                 (A) (A) (A) (A) (A) (A) (A) (A) (A) (A) (A) (A)
                 (A) (A) (A) (A) (A) (A) (A) (A) (A) (A) (A) (A)
                 (A) (A) (A) (A) (A)
       Virtual   (A) (A) (A) (A) (A) (A) (A) (A) (A) (A) (A) (A)
                 (A) (A) (A) (A) (A) (A) (A) (A) (A) (A) (A) (A)
                 (A) (A) (A) (A) (A) (A) (A) (A) (A) (A) (A) (A)
                 (A) (A) (A) (A) (A) (A) (A) (A) (A) (A) (A) (A)
                 (A) (A) (A) (A) (A) (A) (A) (A) (A) (A) (A) (A)
                 (A) (A) (A) (A) (A) (A) (A) (A) (A) (A) (A) (A)
                 (A) (A) (A) (A) (A) (A) (A) (A) (A) (A) (A) (A)
                 (A) (A) (A) (A) (A) (A) (A) (A) (A) (A) (A) (A)
                 (A) (A) (A) (A) (A) (A) (A) (A) (A) (A) (A) (A)
                 (A) (A) (A) (A) (A) (A) (A) (A) (A) (A) (A) (A)
                 (A) (A) (A) (A) (A) (A) (A) (A) (A) (A) (A) (A)
                 (A) (A) (A) (A) (A) (A) (A) (A) (A) (A) (A) (A)
                 (A) (A) (A) (A) (A) (A) (A) (A) (A) (A) (A) (A)
                 (A) (A) (A) (A) (A) (A) (A) (A) (A) (A) (A) (A)
                 (A) (A) (A) (A) (A) (A) (A) (A) (A) (A) (A) (A)
                 (A) (A) (A) (A) (A) (A) (A) (A) (A) (A) (A) (A)
                 (A) (A) (A) (A) (A) (A) (A) (A) (A) (A) (A) (A)
                 (A) (A) (A) (A) (A) (A) (A) (A) (A) (A) (A) (A)
                 (A) (A) (A) (A) (A) (A) (A) (A) (A) (A) (A) (A)
                 (A) (A) (A) (A) (A) (A) (A) (A) (A) (A) (A) (A)
                 (A) (A) (A) (A) (A) (A) (A) (A) (A) (A) (A) (A)
                 (A) (A) (A) (A) (A) (A) (A) (A) (A) (A) (A) (A)
                 (A) (A) (A) (A) (A) (A) (A) (A) (A) (A) (A) (A)
                 (A) (A) (A) (A) (A) (A) (A) (A) (A) (A) (A) (A)
                 (A) (A) (A) (A) (A) (A) (A) (A) (A) (A) (A) (A)
                 (A) (A) (A) (A) (A) (A) (A) (A) (A) (A) (A) (A)
                 (A) (A) (A) (A) (A) (A) (A) (A) (A) (A) (A) (A)
                 (A) (A) (A) (A) (A) (A) (A) (A) (A) (A) (A) (A)
                 (A) (A) (A) (A) (A) (A) (A) (A) (A) (A) (A) (A)
                 (A) (A) (A) (A) (A) (A) (A) (A) (A) (A) (A) (A)
                 (A) (A) (A) (A) (A) (A) (A) (A) (A) (A) (A) (A)
                 (A) (A) (A) (A) (A) (A) (A) (A) (A) (A) (A) (A)
                 (A) (A) (A) (A) (A) (A) (A) (A) (A) (A) (A) (A)
                 (A) (A) (A) (A) (A) (A) (A) (A) (A) (A) (A) (A)
                 (A) (A) (A) (A) (A) (A) (A) (A) (A) (A) (A) (A)
                 (A) (A) (A) (A) (A) (A) (A) (A) (A) (A) (A) (A)
                 (A) (A) (A) (A) (A) (A) (A)
 The electronic state is 1-A.
 Alpha  occ. eigenvalues -- -453.90609-453.82228 -88.98032 -57.51319 -57.42265
 Alpha  occ. eigenvalues --  -52.18283 -52.18048 -52.17925 -52.09584 -52.09342
 Alpha  occ. eigenvalues --  -52.09203 -19.25197 -14.36140 -14.36096 -14.35927
 Alpha  occ. eigenvalues --  -10.26478 -10.25951 -10.25191 -10.25169 -10.25161
 Alpha  occ. eigenvalues --  -10.24072 -10.24034 -10.23162 -10.23091 -10.22909
 Alpha  occ. eigenvalues --  -10.22547 -10.22260 -10.21555 -10.21552 -10.21100
 Alpha  occ. eigenvalues --  -10.20818 -10.20243  -8.05450  -7.77160  -7.66454
 Alpha  occ. eigenvalues --   -6.01872  -6.01237  -6.01040  -5.81535  -5.80655
 Alpha  occ. eigenvalues --   -5.80317  -5.70821  -5.70170  -5.69520  -2.17737
 Alpha  occ. eigenvalues --   -2.17344  -2.16639  -2.16052  -2.15938  -2.06373
 Alpha  occ. eigenvalues --   -2.06262  -2.05740  -2.05201  -2.05126  -1.17980
 Alpha  occ. eigenvalues --   -1.13583  -1.01723  -0.98059  -0.96300  -0.88930
 Alpha  occ. eigenvalues --   -0.85930  -0.84155  -0.82203  -0.80211  -0.77262
 Alpha  occ. eigenvalues --   -0.75690  -0.74275  -0.70657  -0.68904  -0.67590
 Alpha  occ. eigenvalues --   -0.66532  -0.64897  -0.60760  -0.60295  -0.59899
 Alpha  occ. eigenvalues --   -0.57864  -0.57032  -0.55621  -0.55318  -0.55202
 Alpha  occ. eigenvalues --   -0.53445  -0.52264  -0.50409  -0.49521  -0.49024
 Alpha  occ. eigenvalues --   -0.47290  -0.46972  -0.46207  -0.45943  -0.44669
 Alpha  occ. eigenvalues --   -0.43861  -0.42659  -0.41280  -0.41118  -0.40545
 Alpha  occ. eigenvalues --   -0.39971  -0.39386  -0.38366  -0.37725  -0.36613
 Alpha  occ. eigenvalues --   -0.33983  -0.33937  -0.33728  -0.33226  -0.31069
 Alpha  occ. eigenvalues --   -0.30515  -0.28741  -0.27940  -0.27450  -0.23485
 Alpha  occ. eigenvalues --   -0.19729  -0.19064  -0.17161
 Alpha virt. eigenvalues --   -0.14892  -0.06963  -0.06849  -0.03851  -0.01862
 Alpha virt. eigenvalues --   -0.01109  -0.00740  -0.00483  -0.00129   0.00344
 Alpha virt. eigenvalues --    0.00753   0.01077   0.01610   0.02102   0.02569
 Alpha virt. eigenvalues --    0.02810   0.02964   0.03066   0.03649   0.03988
 Alpha virt. eigenvalues --    0.04253   0.04916   0.05274   0.05580   0.05608
 Alpha virt. eigenvalues --    0.06237   0.06287   0.06863   0.07127   0.07622
 Alpha virt. eigenvalues --    0.07842   0.08263   0.08492   0.08757   0.09350
 Alpha virt. eigenvalues --    0.09741   0.09869   0.09930   0.10435   0.10536
 Alpha virt. eigenvalues --    0.10664   0.10898   0.11542   0.11799   0.11959
 Alpha virt. eigenvalues --    0.12114   0.12438   0.12475   0.12919   0.13132
 Alpha virt. eigenvalues --    0.13238   0.13519   0.13707   0.14012   0.14104
 Alpha virt. eigenvalues --    0.14321   0.14573   0.14672   0.14969   0.14999
 Alpha virt. eigenvalues --    0.15215   0.15445   0.15770   0.16126   0.16388
 Alpha virt. eigenvalues --    0.16620   0.17023   0.17260   0.17525   0.17758
 Alpha virt. eigenvalues --    0.18247   0.18392   0.18953   0.19081   0.19338
 Alpha virt. eigenvalues --    0.19474   0.19765   0.19956   0.20401   0.20769
 Alpha virt. eigenvalues --    0.20994   0.21407   0.21561   0.21933   0.22278
 Alpha virt. eigenvalues --    0.22415   0.22814   0.23010   0.23149   0.23274
 Alpha virt. eigenvalues --    0.23746   0.24263   0.24355   0.24491   0.25278
 Alpha virt. eigenvalues --    0.25337   0.25636   0.26042   0.26328   0.26420
 Alpha virt. eigenvalues --    0.26789   0.26957   0.27237   0.27765   0.27912
 Alpha virt. eigenvalues --    0.28686   0.28757   0.29009   0.29535   0.29695
 Alpha virt. eigenvalues --    0.29985   0.30297   0.30826   0.31266   0.31378
 Alpha virt. eigenvalues --    0.31783   0.31850   0.32225   0.32599   0.33024
 Alpha virt. eigenvalues --    0.33517   0.33608   0.33837   0.34090   0.34409
 Alpha virt. eigenvalues --    0.34713   0.35071   0.35633   0.36284   0.36817
 Alpha virt. eigenvalues --    0.37358   0.37630   0.38009   0.38360   0.39294
 Alpha virt. eigenvalues --    0.39805   0.40323   0.40792   0.41447   0.41769
 Alpha virt. eigenvalues --    0.42596   0.43344   0.43697   0.45383   0.46269
 Alpha virt. eigenvalues --    0.47137   0.47844   0.50041   0.51176   0.53413
 Alpha virt. eigenvalues --    0.53912   0.54567   0.55119   0.56064   0.56726
 Alpha virt. eigenvalues --    0.58105   0.58444   0.59160   0.60689   0.61360
 Alpha virt. eigenvalues --    0.62364   0.62472   0.64428   0.65558   0.66691
 Alpha virt. eigenvalues --    0.67665   0.68401   0.68663   0.68761   0.69686
 Alpha virt. eigenvalues --    0.70145   0.70414   0.70481   0.71533   0.72098
 Alpha virt. eigenvalues --    0.72579   0.72992   0.73714   0.73867   0.74584
 Alpha virt. eigenvalues --    0.75348   0.75935   0.76086   0.76953   0.77188
 Alpha virt. eigenvalues --    0.77595   0.77678   0.78743   0.79369   0.79911
 Alpha virt. eigenvalues --    0.80464   0.81336   0.81368   0.81844   0.82226
 Alpha virt. eigenvalues --    0.83561   0.84456   0.85201   0.86651   0.87870
 Alpha virt. eigenvalues --    0.88889   0.89580   0.90681   0.90946   0.91489
 Alpha virt. eigenvalues --    0.92385   0.93083   0.93763   0.94349   0.94676
 Alpha virt. eigenvalues --    0.95543   0.95852   0.96608   0.96939   0.97922
 Alpha virt. eigenvalues --    0.98695   1.00469   1.01017   1.01988   1.03010
 Alpha virt. eigenvalues --    1.03569   1.04132   1.05899   1.06230   1.06958
 Alpha virt. eigenvalues --    1.07140   1.07826   1.09422   1.10046   1.11994
 Alpha virt. eigenvalues --    1.12398   1.12671   1.12853   1.13836   1.14440
 Alpha virt. eigenvalues --    1.15433   1.15748   1.16353   1.17778   1.18449
 Alpha virt. eigenvalues --    1.19349   1.19733   1.20066   1.21783   1.22767
 Alpha virt. eigenvalues --    1.23835   1.24279   1.24702   1.27218   1.28488
 Alpha virt. eigenvalues --    1.29218   1.29496   1.30657   1.31735   1.32090
 Alpha virt. eigenvalues --    1.32686   1.33171   1.34649   1.35572   1.36239
 Alpha virt. eigenvalues --    1.36982   1.37841   1.38107   1.38311   1.39332
 Alpha virt. eigenvalues --    1.39589   1.39772   1.41558   1.43535   1.45776
 Alpha virt. eigenvalues --    1.46510   1.47199   1.47897   1.49127   1.49505
 Alpha virt. eigenvalues --    1.50518   1.54137   1.57260   1.60776   1.61217
 Alpha virt. eigenvalues --    1.62332   1.63710   1.64617   1.66796   1.69240
 Alpha virt. eigenvalues --    1.70851   1.72672   1.73779   1.74750   1.77674
 Alpha virt. eigenvalues --    1.78874   1.80064   1.80628   1.81378   1.83328
 Alpha virt. eigenvalues --    1.84739   1.85045   1.85777   1.86550   1.88220
 Alpha virt. eigenvalues --    1.88633   1.88890   1.90130   1.91914   1.92050
 Alpha virt. eigenvalues --    1.93194   1.93698   1.93941   1.95305   1.96042
 Alpha virt. eigenvalues --    1.98026   1.99415   1.99538   2.01722   2.01996
 Alpha virt. eigenvalues --    2.04502   2.05392   2.05798   2.07522   2.07836
 Alpha virt. eigenvalues --    2.09600   2.11834   2.12670   2.13369   2.14207
 Alpha virt. eigenvalues --    2.15848   2.17622   2.19050   2.20518   2.21102
 Alpha virt. eigenvalues --    2.21425   2.23683   2.24344   2.25349   2.27285
 Alpha virt. eigenvalues --    2.28429   2.31043   2.31382   2.31600   2.32763
 Alpha virt. eigenvalues --    2.34626   2.35388   2.37137   2.38410   2.39086
 Alpha virt. eigenvalues --    2.39446   2.41335   2.42836   2.44532   2.45498
 Alpha virt. eigenvalues --    2.46577   2.50196   2.50913   2.51464   2.52278
 Alpha virt. eigenvalues --    2.53741   2.54257   2.55110   2.56897   2.57348
 Alpha virt. eigenvalues --    2.59139   2.60397   2.60862   2.63782   2.64465
 Alpha virt. eigenvalues --    2.65953   2.66544   2.67324   2.67934   2.69306
 Alpha virt. eigenvalues --    2.70455   2.71739   2.71823   2.73016   2.74052
 Alpha virt. eigenvalues --    2.75904   2.77315   2.77656   2.78079   2.78728
 Alpha virt. eigenvalues --    2.81168   2.82069   2.83677   2.84198   2.85000
 Alpha virt. eigenvalues --    2.86669   2.87318   2.89359   2.90898   2.95427
 Alpha virt. eigenvalues --    2.97712   2.99406   2.99789   3.03471   3.06034
 Alpha virt. eigenvalues --    3.10490   3.15666   3.18134   3.26931   3.31853
 Alpha virt. eigenvalues --    3.34910   3.36741   3.38369   3.42731   3.45879
 Alpha virt. eigenvalues --    3.49240   3.53347   3.56449   3.58186   3.62148
 Alpha virt. eigenvalues --    3.70578   3.76766   3.83436   3.96746   4.18207
 Alpha virt. eigenvalues --    4.24669   4.31203   4.32604   4.33131   4.35138
 Alpha virt. eigenvalues --    4.36342   4.38974   4.40015   4.41721   4.43758
 Alpha virt. eigenvalues --    4.47302   4.51319   4.53507   4.57746   4.60347
 Alpha virt. eigenvalues --    4.69827   4.72980   4.79657   4.83950   4.93897
 Alpha virt. eigenvalues --    8.49710   8.62626  82.04368  86.35425
          Condensed to atoms (all electrons):
              1          2          3          4          5          6
     1  C    9.747240   0.050368  -2.405365  -1.072991  -2.039563   0.308986
     2  O    0.050368   8.103289   0.150549   0.049586  -0.086666   0.064503
     3  C   -2.405365   0.150549  10.209747  -1.355478   0.956259  -0.616698
     4  C   -1.072991   0.049586  -1.355478  10.282778  -1.345354   1.225017
     5  C   -2.039563  -0.086666   0.956259  -1.345354  13.766111  -2.804526
     6  C    0.308986   0.064503  -0.616698   1.225017  -2.804526  10.376993
     7  C   -0.873383   0.027159   1.629906   0.842615  -0.427236   3.065254
     8  C    1.539031  -0.027402  -0.861627  -2.973191   2.433548  -5.632802
     9  Se  -0.041205  -0.001029   0.267036   0.126944  -0.271940   0.303354
    10  C   -0.425911   0.017860   0.773216   0.774385  -0.505521   0.840171
    11  C    0.126245  -0.000902  -0.121567  -0.120215   0.054451  -0.333355
    12  C   -0.009693  -0.000091   0.028816   0.006820   0.129966  -0.048500
    13  Se  -0.041380   0.008394  -0.042051   0.074807  -0.166413   0.066964
    14  C    0.916215  -0.002259  -3.253156  -0.373775  -1.343169  -0.589291
    15  C   -0.107331   0.041922   0.022734   0.165942  -2.796245   0.023457
    16  C    0.007952   0.000070  -0.013954   0.060761  -0.026766  -0.026625
    17  C    0.002109  -0.000005  -0.005904  -0.004717   0.008223  -0.016617
    18  N   -0.000005  -0.000000  -0.000013  -0.000106   0.000069  -0.000028
    19  C   -0.000032   0.000000   0.000416   0.001549   0.000030   0.000248
    20  C   -0.000182   0.000000  -0.000426  -0.004307   0.000542   0.001497
    21  N   -0.000001   0.000000   0.000005   0.000033   0.000003   0.000004
    22  S    0.000032   0.000000  -0.000159  -0.001324  -0.000001  -0.000671
    23  N    0.000010   0.000000   0.000085   0.000949  -0.000434   0.001032
    24  C   -0.001115   0.000007  -0.006825  -0.069272   0.008695  -0.008413
    25  H    0.426820  -0.089143   0.010699   0.048866  -0.169662   0.029286
    26  H    0.046873  -0.101323   0.619979  -0.245952   0.083892  -0.035448
    27  H   -0.098677   0.001769  -0.049556   0.076433  -0.112463   0.493923
    28  H   -0.094008   0.000301   0.056304   0.186429  -0.064609   0.076867
    29  H    0.008203   0.000176  -0.015459   0.028493   0.081119  -0.035740
    30  H    0.003948  -0.000041  -0.011362   0.014275  -0.039374   0.010190
    31  H    0.006240   0.000214  -0.017855   0.000533   0.017616  -0.014326
    32  H    0.001773  -0.000008  -0.002416   0.000090   0.007970  -0.014932
    33  H    0.034806  -0.000550  -0.223715  -0.092025   0.067588  -0.051267
    34  H   -0.000014   0.000002  -0.000939  -0.003691   0.002785  -0.001477
    35  H   -0.000000   0.000000   0.000008   0.000045  -0.000001   0.000002
              7          8          9         10         11         12
     1  C   -0.873383   1.539031  -0.041205  -0.425911   0.126245  -0.009693
     2  O    0.027159  -0.027402  -0.001029   0.017860  -0.000902  -0.000091
     3  C    1.629906  -0.861627   0.267036   0.773216  -0.121567   0.028816
     4  C    0.842615  -2.973191   0.126944   0.774385  -0.120215   0.006820
     5  C   -0.427236   2.433548  -0.271940  -0.505521   0.054451   0.129966
     6  C    3.065254  -5.632802   0.303354   0.840171  -0.333355  -0.048500
     7  C   20.256517  -8.702763   0.339870   7.376642  -3.584912   0.726340
     8  C   -8.702763  20.443385  -0.540072  -1.641286  -0.213802   0.790562
     9  Se   0.339870  -0.540072  35.940449  -0.048261   0.592651  -0.435111
    10  C    7.376642  -1.641286  -0.048261  38.531842 -18.195570   2.687007
    11  C   -3.584912  -0.213802   0.592651 -18.195570  29.445770 -14.477213
    12  C    0.726340   0.790562  -0.435111   2.687007 -14.477213  33.312175
    13  Se   0.342491  -0.080466  -0.035339   1.490232  -0.839647   0.462968
    14  C   -9.181408  -0.161016  -1.049872 -14.047572   5.383934  -0.973014
    15  C   -5.196355   1.517160   0.134932  -7.517595   3.663601   0.215628
    16  C   -0.467732  -0.095119  -0.124187  -2.279499   8.536746 -15.493178
    17  C   -0.190789  -0.063724   0.025118  -3.537592   0.188663  -4.156406
    18  N    0.000095   0.001946   0.000680   0.050257   0.054070   0.111428
    19  C    0.009901   0.007363  -0.006359   0.168662  -0.362390   1.684214
    20  C    0.037096  -0.018672  -0.016206   0.374075  -1.218718   2.604948
    21  N    0.000239   0.000246   0.002592  -0.001645   0.037330  -0.046700
    22  S   -0.009202   0.007114  -0.007162  -0.060703   0.050676  -0.575149
    23  N   -0.002793  -0.002351   0.010190  -0.021182   0.196702   0.099137
    24  C    0.022868   0.040122  -0.225794   0.672968  -2.299359   0.250315
    25  H   -0.027284  -0.007613   0.000833  -0.001077   0.001143  -0.000311
    26  H    0.014835   0.042043   0.009501  -0.047050   0.014779   0.000839
    27  H   -0.164871  -0.008786  -0.000202  -0.005556   0.000324  -0.000529
    28  H    0.514178  -0.453344  -0.070983   0.102793  -0.062799  -0.009171
    29  H    0.113503   0.113274  -0.498404   1.201076  -0.521226   0.159745
    30  H   -0.096478  -0.145615   0.081606  -0.826426   1.465807  -1.010060
    31  H   -0.019063   0.007021  -0.105184   0.373595   0.162658  -0.338315
    32  H   -0.087776   0.060101  -0.164219  -0.384398  -0.245302   0.476369
    33  H   -0.276146   0.176263  -0.032988  -0.365721  -0.144988   0.058677
    34  H   -0.003412   0.009689   0.000204  -0.046031  -0.297044   0.125912
    35  H    0.000103   0.000125  -0.000042   0.001153  -0.003572  -0.003170
             13         14         15         16         17         18
     1  C   -0.041380   0.916215  -0.107331   0.007952   0.002109  -0.000005
     2  O    0.008394  -0.002259   0.041922   0.000070  -0.000005  -0.000000
     3  C   -0.042051  -3.253156   0.022734  -0.013954  -0.005904  -0.000013
     4  C    0.074807  -0.373775   0.165942   0.060761  -0.004717  -0.000106
     5  C   -0.166413  -1.343169  -2.796245  -0.026766   0.008223   0.000069
     6  C    0.066964  -0.589291   0.023457  -0.026625  -0.016617  -0.000028
     7  C    0.342491  -9.181408  -5.196355  -0.467732  -0.190789   0.000095
     8  C   -0.080466  -0.161016   1.517160  -0.095119  -0.063724   0.001946
     9  Se  -0.035339  -1.049872   0.134932  -0.124187   0.025118   0.000680
    10  C    1.490232 -14.047572  -7.517595  -2.279499  -3.537592   0.050257
    11  C   -0.839647   5.383934   3.663601   8.536746   0.188663   0.054070
    12  C    0.462968  -0.973014   0.215628 -15.493178  -4.156406   0.111428
    13  Se  34.374102  -0.307922  -0.462498  -0.187516  -0.152954   0.002981
    14  C   -0.307922  27.167312   2.907241  -0.394176   0.584541   0.004413
    15  C   -0.462498   2.907241  13.489480   0.114389   0.208557  -0.001171
    16  C   -0.187516  -0.394176   0.114389  54.639785  -2.613079   0.335492
    17  C   -0.152954   0.584541   0.208557  -2.613079  19.215258  -0.173798
    18  N    0.002981   0.004413  -0.001171   0.335492  -0.173798   6.787015
    19  C    0.018517  -0.039808  -0.001858   0.376668  -2.397532  -0.092864
    20  C   -0.010956  -0.013744  -0.034416 -11.585311  -1.325667   0.184647
    21  N    0.000893  -0.000811   0.000027   0.401412   0.029681   0.013495
    22  S   -0.003054   0.012884   0.002065  -1.168989   0.452197   0.012072
    23  N   -0.000997  -0.006002   0.003993  -1.910119  -0.259152  -0.010667
    24  C    0.003282   0.465386  -0.176632 -22.212101  -0.559620   0.118534
    25  H   -0.000348   0.004113   0.033041   0.000093   0.000011  -0.000000
    26  H   -0.030852  -0.182336   0.041646  -0.001897  -0.000551   0.000001
    27  H    0.001001   0.031279   0.105500  -0.000122   0.000040   0.000001
    28  H    0.007265  -0.059038   0.039183  -0.006400  -0.005435   0.000021
    29  H    0.038010  -0.298782  -0.228256  -0.044025  -0.171601   0.001225
    30  H   -0.098122   0.351197   0.050401   0.705561  -0.023700  -0.004123
    31  H   -0.041288   0.025683  -0.127639   0.354133  -0.179377   0.005346
    32  H   -0.017636   0.121594   0.038048   0.221380   0.193449  -0.010538
    33  H   -0.149585   1.093531  -0.025290  -0.052396   0.017980   0.001213
    34  H   -0.014374   0.014930   0.005632  -1.225063   0.978355  -0.154902
    35  H    0.000355  -0.000915  -0.000012   0.124990  -0.011621  -0.134709
             19         20         21         22         23         24
     1  C   -0.000032  -0.000182  -0.000001   0.000032   0.000010  -0.001115
     2  O    0.000000   0.000000   0.000000   0.000000   0.000000   0.000007
     3  C    0.000416  -0.000426   0.000005  -0.000159   0.000085  -0.006825
     4  C    0.001549  -0.004307   0.000033  -0.001324   0.000949  -0.069272
     5  C    0.000030   0.000542   0.000003  -0.000001  -0.000434   0.008695
     6  C    0.000248   0.001497   0.000004  -0.000671   0.001032  -0.008413
     7  C    0.009901   0.037096   0.000239  -0.009202  -0.002793   0.022868
     8  C    0.007363  -0.018672   0.000246   0.007114  -0.002351   0.040122
     9  Se  -0.006359  -0.016206   0.002592  -0.007162   0.010190  -0.225794
    10  C    0.168662   0.374075  -0.001645  -0.060703  -0.021182   0.672968
    11  C   -0.362390  -1.218718   0.037330   0.050676   0.196702  -2.299359
    12  C    1.684214   2.604948  -0.046700  -0.575149   0.099137   0.250315
    13  Se   0.018517  -0.010956   0.000893  -0.003054  -0.000997   0.003282
    14  C   -0.039808  -0.013744  -0.000811   0.012884  -0.006002   0.465386
    15  C   -0.001858  -0.034416   0.000027   0.002065   0.003993  -0.176632
    16  C    0.376668 -11.585311   0.401412  -1.168989  -1.910119 -22.212101
    17  C   -2.397532  -1.325667   0.029681   0.452197  -0.259152  -0.559620
    18  N   -0.092864   0.184647   0.013495   0.012072  -0.010667   0.118534
    19  C   12.759719   0.795038  -0.723812  -0.576928   0.562996  -6.601452
    20  C    0.795038  21.573867  -1.202493  -0.512400   2.513735  -5.886148
    21  N   -0.723812  -1.202493   7.867737  -0.081487  -0.568456   1.630354
    22  S   -0.576928  -0.512400  -0.081487  16.621351  -0.262201   1.139547
    23  N    0.562996   2.513735  -0.568456  -0.262201   8.331036  -1.341970
    24  C   -6.601452  -5.886148   1.630354   1.139547  -1.341970  40.913072
    25  H   -0.000000  -0.000003  -0.000000  -0.000000   0.000001  -0.000060
    26  H    0.000068  -0.000118   0.000000  -0.000020   0.000013  -0.001425
    27  H   -0.000008   0.000023   0.000001   0.000013  -0.000017   0.000412
    28  H    0.000248  -0.001407   0.000041   0.000093   0.000719  -0.005069
    29  H    0.008869   0.021949  -0.000501  -0.005135  -0.002600  -0.014506
    30  H   -0.071504  -0.041650  -0.002400   0.004863   0.013079  -0.171182
    31  H   -0.024026   0.051040  -0.003077  -0.003522  -0.002600  -0.042723
    32  H    0.010588  -0.018236  -0.010289  -0.004188   0.021484  -0.148458
    33  H   -0.001828   0.000774   0.000018   0.000470  -0.000708   0.040985
    34  H    0.079556   0.116354  -0.000263   0.008378  -0.005911   0.464266
    35  H    0.766467  -0.386994  -0.006091  -0.027849  -0.001100  -0.147321
             25         26         27         28         29         30
     1  C    0.426820   0.046873  -0.098677  -0.094008   0.008203   0.003948
     2  O   -0.089143  -0.101323   0.001769   0.000301   0.000176  -0.000041
     3  C    0.010699   0.619979  -0.049556   0.056304  -0.015459  -0.011362
     4  C    0.048866  -0.245952   0.076433   0.186429   0.028493   0.014275
     5  C   -0.169662   0.083892  -0.112463  -0.064609   0.081119  -0.039374
     6  C    0.029286  -0.035448   0.493923   0.076867  -0.035740   0.010190
     7  C   -0.027284   0.014835  -0.164871   0.514178   0.113503  -0.096478
     8  C   -0.007613   0.042043  -0.008786  -0.453344   0.113274  -0.145615
     9  Se   0.000833   0.009501  -0.000202  -0.070983  -0.498404   0.081606
    10  C   -0.001077  -0.047050  -0.005556   0.102793   1.201076  -0.826426
    11  C    0.001143   0.014779   0.000324  -0.062799  -0.521226   1.465807
    12  C   -0.000311   0.000839  -0.000529  -0.009171   0.159745  -1.010060
    13  Se  -0.000348  -0.030852   0.001001   0.007265   0.038010  -0.098122
    14  C    0.004113  -0.182336   0.031279  -0.059038  -0.298782   0.351197
    15  C    0.033041   0.041646   0.105500   0.039183  -0.228256   0.050401
    16  C    0.000093  -0.001897  -0.000122  -0.006400  -0.044025   0.705561
    17  C    0.000011  -0.000551   0.000040  -0.005435  -0.171601  -0.023700
    18  N   -0.000000   0.000001   0.000001   0.000021   0.001225  -0.004123
    19  C   -0.000000   0.000068  -0.000008   0.000248   0.008869  -0.071504
    20  C   -0.000003  -0.000118   0.000023  -0.001407   0.021949  -0.041650
    21  N   -0.000000   0.000000   0.000001   0.000041  -0.000501  -0.002400
    22  S   -0.000000  -0.000020   0.000013   0.000093  -0.005135   0.004863
    23  N    0.000001   0.000013  -0.000017   0.000719  -0.002600   0.013079
    24  C   -0.000060  -0.001425   0.000412  -0.005069  -0.014506  -0.171182
    25  H    0.583960   0.000333   0.003583   0.000071  -0.000064   0.000168
    26  H    0.000333   0.583479  -0.001419   0.000012   0.000316   0.000084
    27  H    0.003583  -0.001419   0.659648  -0.019067  -0.000228  -0.000151
    28  H    0.000071   0.000012  -0.019067   0.761957  -0.013683   0.002610
    29  H   -0.000064   0.000316  -0.000228  -0.013683   0.960134  -0.081140
    30  H    0.000168   0.000084  -0.000151   0.002610  -0.081140   0.947584
    31  H   -0.000079  -0.001354   0.000199  -0.006092   0.061852  -0.034415
    32  H    0.000017   0.000051  -0.000176  -0.003342   0.006557   0.034060
    33  H   -0.001387  -0.029762   0.001520  -0.002608  -0.041200  -0.042822
    34  H   -0.000009  -0.000450   0.000020  -0.000432  -0.013553  -0.093777
    35  H    0.000000   0.000001  -0.000000   0.000004   0.000079  -0.002950
             31         32         33         34         35
     1  C    0.006240   0.001773   0.034806  -0.000014  -0.000000
     2  O    0.000214  -0.000008  -0.000550   0.000002   0.000000
     3  C   -0.017855  -0.002416  -0.223715  -0.000939   0.000008
     4  C    0.000533   0.000090  -0.092025  -0.003691   0.000045
     5  C    0.017616   0.007970   0.067588   0.002785  -0.000001
     6  C   -0.014326  -0.014932  -0.051267  -0.001477   0.000002
     7  C   -0.019063  -0.087776  -0.276146  -0.003412   0.000103
     8  C    0.007021   0.060101   0.176263   0.009689   0.000125
     9  Se  -0.105184  -0.164219  -0.032988   0.000204  -0.000042
    10  C    0.373595  -0.384398  -0.365721  -0.046031   0.001153
    11  C    0.162658  -0.245302  -0.144988  -0.297044  -0.003572
    12  C   -0.338315   0.476369   0.058677   0.125912  -0.003170
    13  Se  -0.041288  -0.017636  -0.149585  -0.014374   0.000355
    14  C    0.025683   0.121594   1.093531   0.014930  -0.000915
    15  C   -0.127639   0.038048  -0.025290   0.005632  -0.000012
    16  C    0.354133   0.221380  -0.052396  -1.225063   0.124990
    17  C   -0.179377   0.193449   0.017980   0.978355  -0.011621
    18  N    0.005346  -0.010538   0.001213  -0.154902  -0.134709
    19  C   -0.024026   0.010588  -0.001828   0.079556   0.766467
    20  C    0.051040  -0.018236   0.000774   0.116354  -0.386994
    21  N   -0.003077  -0.010289   0.000018  -0.000263  -0.006091
    22  S   -0.003522  -0.004188   0.000470   0.008378  -0.027849
    23  N   -0.002600   0.021484  -0.000708  -0.005911  -0.001100
    24  C   -0.042723  -0.148458   0.040985   0.464266  -0.147321
    25  H   -0.000079   0.000017  -0.001387  -0.000009   0.000000
    26  H   -0.001354   0.000051  -0.029762  -0.000450   0.000001
    27  H    0.000199  -0.000176   0.001520   0.000020  -0.000000
    28  H   -0.006092  -0.003342  -0.002608  -0.000432   0.000004
    29  H    0.061852   0.006557  -0.041200  -0.013553   0.000079
    30  H   -0.034415   0.034060  -0.042822  -0.093777  -0.002950
    31  H    0.595344  -0.001384   0.002389  -0.022723  -0.000362
    32  H   -0.001384   0.678884  -0.003474   0.004718   0.000309
    33  H    0.002389  -0.003474   0.858365   0.010874  -0.000051
    34  H   -0.022723   0.004718   0.010874   0.847561   0.003864
    35  H   -0.000362   0.000309  -0.000051   0.003864   0.662939
 Mulliken atomic charges:
              1
     1  C   -0.015994
     2  O   -0.206751
     3  C    0.278768
     4  C   -0.304952
     5  C    0.581075
     6  C   -0.657034
     7  C   -0.008009
     8  C    0.440657
     9  Se  -0.161401
    10  C    0.522663
    11  C   -0.932969
    12  C   -0.355256
    13  Se  -0.208865
    14  C   -0.806187
    15  C   -0.149281
    16  C    0.048821
    17  C   -0.054340
    18  N   -0.102079
    19  C   -0.350714
    20  C    0.002468
    21  N   -0.336083
    22  S    0.988390
    23  N   -0.355903
    24  C    0.148630
    25  H    0.154002
    26  H    0.221213
    27  H    0.086143
    28  H    0.128393
    29  H    0.181521
    30  H    0.111860
    31  H    0.321542
    32  H    0.239332
    33  H    0.173060
    34  H    0.210963
    35  H    0.166316
 Sum of Mulliken atomic charges =  -0.00000
 Mulliken charges with hydrogens summed into heavy atoms:
              1
     1  C    0.138008
     2  O   -0.206751
     3  C    0.499981
     4  C   -0.304952
     5  C    0.581075
     6  C   -0.570891
     7  C    0.120384
     8  C    0.440657
     9  Se  -0.161401
    10  C    0.704184
    11  C   -0.499567
    12  C   -0.115924
    13  Se  -0.208865
    14  C   -0.633127
    15  C   -0.149281
    16  C    0.048821
    17  C    0.156623
    18  N   -0.102079
    19  C   -0.184398
    20  C    0.002468
    21  N   -0.336083
    22  S    0.988390
    23  N   -0.355903
    24  C    0.148630
 Sum of Mulliken charges with hydrogens summed into heavy atoms =  -0.00000
 Electronic spatial extent (au):  <R**2>=          12876.8694
 Charge=             -0.0000 electrons
 Dipole moment (field-independent basis, Debye):
    X=              0.2601    Y=             -4.8900    Z=              2.1856  Tot=              5.3625
 Quadrupole moment (field-independent basis, Debye-Ang):
   XX=           -164.5826   YY=           -176.9808   ZZ=           -164.7878
   XY=              5.3312   XZ=              1.6268   YZ=              6.3381
 Traceless Quadrupole moment (field-independent basis, Debye-Ang):
   XX=              4.2011   YY=             -8.1971   ZZ=              3.9960
   XY=              5.3312   XZ=              1.6268   YZ=              6.3381
 Octapole moment (field-independent basis, Debye-Ang**2):
  XXX=            -74.6926  YYY=            -38.4713  ZZZ=             28.0380  XYY=            -54.3908
  XXY=            -61.2605  XXZ=             -5.6289  XZZ=            -16.6559  YZZ=              4.4797
  YYZ=             -2.1241  XYZ=            -28.2756
 Hexadecapole moment (field-independent basis, Debye-Ang**3):
 XXXX=         -13608.3998 YYYY=          -2631.3849 ZZZZ=           -891.2958 XXXY=             62.6941
 XXXZ=            206.6474 YYYX=           -140.2792 YYYZ=            -18.3802 ZZZX=            -33.6610
 ZZZY=            -45.9987 XXYY=          -2665.1105 XXZZ=          -2407.7267 YYZZ=           -567.3152
 XXYZ=             49.5694 YYXZ=             13.1626 ZZXY=            -17.4112
 N-N= 3.229883708336D+03 E-N=-2.093918738448D+04  KE= 6.066104047024D+03
 Calling FoFJK, ICntrl=      2127 FMM=F ISym2X=0 I1Cent= 0 IOpClX= 0 NMat=1 NMatS=1 NMatT=0.
 ***** Axes restored to original set *****
 -------------------------------------------------------------------
 Center     Atomic                   Forces (Hartrees/Bohr)
 Number     Number              X              Y              Z
 -------------------------------------------------------------------
      1        6          -0.038997075    0.018025618   -0.001193823
      2        8           0.014755712   -0.007366858   -0.000728396
      3        6          -0.052475802   -0.084425454   -0.001917341
      4        6           0.023371113    0.066754530   -0.001396564
      5        6           0.020708059    0.007785253    0.003840674
      6        6          -0.037354122    0.008248240   -0.002549534
      7        6           0.050332965    0.007434323    0.001320890
      8        6           0.623919185   -0.074278215   -0.001779833
      9       34          -0.585331493   -0.475600567   -0.004147214
     10        6          -0.080602697    0.484887723    0.013031213
     11        6          -0.061905897   -0.044277100   -0.048841438
     12        6          -0.020717650    0.045876754    0.064014041
     13       34           0.015238221    0.004029164    0.005915115
     14        6           0.028970467    0.023001213   -0.000109788
     15        6           0.025635488    0.041575856    0.002096868
     16        6           0.033718011   -0.045233739   -0.052189120
     17        6          -0.031767628   -0.002823406    0.065573452
     18        7          -0.010085171    0.004344788    0.011620106
     19        6           0.029598750   -0.008530670   -0.050008048
     20        6           0.019692077    0.051697263   -0.023920167
     21        7          -0.127236682    0.312472407    0.283999145
     22       16          -0.145670067   -0.532885476    0.120229794
     23        7           0.247122552    0.124076412   -0.380963966
     24        6          -0.009568970    0.045842026    0.011414049
     25        1           0.041311175   -0.011258585    0.000146062
     26        1           0.009196692    0.039431558    0.001543541
     27        1           0.019643792   -0.038991197    0.000216684
     28        1          -0.021633132   -0.037385820   -0.000183914
     29        1          -0.010755241    0.016189404   -0.014390953
     30        1           0.003255895    0.019220867    0.002727846
     31        1           0.009783016   -0.001975265    0.022945066
     32        1           0.020406988   -0.017738872   -0.030377955
     33        1           0.001852637    0.007823219   -0.012954434
     34        1           0.013363683    0.035127692   -0.018193130
     35        1          -0.017774852    0.018926914    0.035211073
 -------------------------------------------------------------------
 Cartesian Forces:  Max     0.623919185 RMS     0.138592510

[...]
 028075,0.00010207,0.00071869,-0.00008536,0.00008991,-0.00004293,0.0000
 4618,0.00003707,-0.00003285,-0.00007145,-0.00007498,-0.00001117,0.0000
 7499,-0.00001182,0.00002202,-0.00002219,-0.00003477,-0.00018461,-0.000
 26281,0.00018843,-0.00019358,0.00035933,-0.00003374,-0.00115055,-0.000
 18736,-0.00037157,-0.00041963,-0.00021364,0.00014955,0.00041915,-0.000
 25278,-0.10225275,-0.00332062,-0.08772677,-0.00013794,0.00111326,-0.00
 076841,-0.00012197,-0.00022618,0.00169663,0.00010075,0.00015981,-0.000
 15090,-0.00010081,0.00007347,-0.00007052,0.00010273,0.00000206,-0.0000
 0643,0.00000502,-0.00006099,-0.00000502,-0.00000146,0.00000364,0.00001
 810,-0.00000927,0.00000327,0.00002831,0.00008252,0.00001015,-0.0000406
 3,0.00000018,-0.00008142,0.00004447,-0.00003257,-0.00005785,0.00004293
 ,0.00003208,-0.00002666,-0.00000029,-0.00012430,-0.00040816,-0.0001292
 6,0.00001495,0.00000652,0.00001095,0.00002316,-0.00001745,-0.00002707,
 0.00024096,0.00060956,0.00008381,0.10116313,0.00269945,0.08678000,-0.0
 0002601,-0.00011607,-0.00014374,0.00000955,0.00004339,-0.00005397,-0.0
 0011037,-0.00000665,0.00019191,0.00016543,-0.00005815,-0.00000061,-0.0
 0019808,0.00006367,0.00005142,0.00000357,-0.00002416,0.00008941,0.0000
 9665,0.00012696,0.00013405,-0.00026525,0.00031901,-0.00001902,-0.00004
 358,0.00019238,-0.00051137,0.00833791,0.00097246,0.00675917,-0.2083055
 4,-0.01315473,-0.13567829,-0.01925211,-0.00217738,-0.02238682,-0.00000
 566,-0.00020978,-0.00020094,0.00040301,-0.00034868,-0.00062868,-0.0007
 1659,0.00007346,0.00085388,0.00157105,-0.00064969,-0.00114099,-0.00126
 547,-0.00041876,0.00046987,0.00072264,0.00000033,-0.00022216,0.0000831
 5,0.00006296,-0.00010519,-0.00004779,-0.00008922,-0.00010375,0.0000104
 3,0.00007037,0.00016981,0.00031912,-0.00001287,-0.00001896,-0.00024601
 ,-0.00001189,0.00014599,-0.00040899,-0.00001326,-0.00003773,-0.0000026
 4,0.00002070,0.00001831,0.00003462,-0.00000888,-0.00001066,0.00002447,
 -0.00001056,-0.00005072,0.00001232,0.00003205,-0.00000118,-0.00017084,
 0.00045707,0.00221670,-0.00002099,0.00012850,0.00024042,0.22143239,-0.
 00002981,-0.00016817,-0.00013262,-0.00009115,-0.00004697,-0.00000853,0
 .00018572,-0.00007799,-0.00000944,0.00009714,-0.00018095,0.00011796,-0
 .00016021,0.00012214,0.00050592,0.00019000,-0.00010937,-0.00039719,0.0
 0010651,0.00018894,0.00053192,-0.00008963,-0.00039467,-0.00010218,-0.0
 0093608,0.00113836,-0.00054998,-0.00541632,-0.00005729,-0.00663266,-0.
 01243266,-0.04075329,-0.01584019,0.00412415,0.00735303,0.00376555,-0.0
 0082301,0.00089764,-0.00072268,0.00008071,0.00029891,0.00034222,0.0002
 2504,-0.00025928,-0.00062764,-0.00107333,-0.00604229,0.00075605,0.0007
 9541,-0.00015908,-0.00029935,-0.00027630,-0.00039933,0.00027357,0.0001
 2800,0.00035844,-0.00006716,-0.00010763,0.00013925,-0.00008103,0.00000
 883,-0.00004181,-0.00005072,-0.00012936,0.00007072,-0.00000577,0.00023
 561,-0.00035114,0.00009553,0.00001324,0.00003890,0.00012523,0.00000470
 ,0.00001498,0.00000080,-0.00003697,-0.00001247,0.00004493,0.00000683,0
 .00002577,-0.00000094,0.00006519,-0.00014864,-0.00009704,0.00067490,0.
 00094482,-0.00151898,0.00015465,-0.00006312,-0.00016904,0.01220548,0.0
 2787433,-0.00000153,0.00006484,0.00004853,0.00000349,-0.00011524,0.000
 04128,-0.00024522,-0.00004033,0.00017997,0.00056063,0.00018438,-0.0002
 9687,0.00004027,0.00012840,-0.00021096,-0.00010782,0.00000614,0.000134
 76,0.00029914,-0.00011900,0.00011861,-0.00002090,-0.00041042,-0.000128
 07,-0.00019011,0.00037863,0.00070796,-0.02180970,-0.00137069,-0.018448
 21,-0.13775062,-0.01907681,-0.17856078,0.00629669,0.00041893,0.0101823
 2,0.00045255,-0.00014088,0.00039752,-0.00060789,-0.00085545,0.00010702
 ,0.00022677,0.00103326,0.00085894,-0.00030144,0.00116699,-0.00076984,0
 .00145073,-0.00045242,-0.00053871,-0.00006151,0.00013067,-0.00010952,-
 0.00000102,-0.00007955,0.00002131,-0.00003070,-0.00005271,-0.00000803,
 -0.00004053,0.00001211,-0.00001836,-0.00011422,-0.00001613,0.00007942,
 -0.00004112,0.00005413,-0.00007058,-0.00011423,0.00016206,-0.00003691,
 0.00000283,-0.00000092,0.00000746,0.00001881,0.00000672,-0.00002582,0.
 00000092,-0.00001018,-0.00003896,-0.00006214,0.00007642,0.00004312,0.0
 0203055,-0.00171518,-0.00408544,-0.00011851,-0.00006688,0.00032231,0.1
 4746079,0.02414869,0.19086292,0.00000978,-0.00001110,0.00001875,0.0000
 5128,0.00001284,0.00001114,-0.00002859,-0.00000421,-0.00001269,0.00008
 670,0.00003262,0.00006655,0.00005945,0.00004123,-0.00008150,-0.0000358
 1,-0.00001251,0.00007881,0.00013807,-0.00002745,-0.00000435,-0.0001330
 1,-0.00017635,0.00000495,0.00001560,0.00009322,-0.00001153,0.00106822,
 -0.00089242,-0.00202659,-0.02118452,-0.00255268,-0.02153293,-0.1998725
 3,-0.01724501,-0.13730499,-0.00001509,-0.00000109,-0.00015487,0.000206
 18,-0.00019525,0.00028293,0.00003449,0.00027030,0.00006995,0.00962396,
 0.00121681,0.00772565,-0.00121430,0.00083558,0.00213097,0.00045467,0.0
 0020100,0.00044764,0.00007903,0.00003692,0.00005248,0.00006938,-0.0000
 1015,-0.00008123,0.00012758,-0.00012351,-0.00032709,-0.00032932,0.0000
 3268,-0.00000854,-0.00061755,0.00034085,0.00113994,-0.00002550,-0.0000
 9160,0.00029722,0.00000237,0.00000027,-0.00000121,-0.00001014,-0.00001
 598,-0.00000463,0.00001125,-0.00000118,-0.00000491,-0.00001520,0.00000
 901,0.00001212,0.00006762,0.00013242,0.00148779,-0.00002218,-0.0000069
 5,0.00017968,-0.00326547,0.00189556,0.00191056,0.21467296,0.00002593,0
 .00002062,0.00001704,0.00000647,-0.00004244,0.00004903,0.00000800,0.00
 006000,-0.00008908,-0.00005035,0.00013627,0.00009749,-0.00003676,-0.00
 000914,0.00009964,0.00010210,0.00002545,-0.00023805,-0.00010288,-0.000
 12522,0.00036209,0.00040733,0.00034714,0.00016915,0.00025219,-0.001192
 41,-0.00030394,-0.00041247,-0.00591774,0.00236721,0.00496093,0.0067233
 1,0.00195898,-0.01769521,-0.04304968,-0.02126893,-0.00005006,0.0002721
 0,-0.00027115,-0.00045342,0.00080739,0.00071677,0.00033853,-0.00050928
 ,-0.00058463,-0.00568533,0.00153334,-0.00711131,0.00134201,0.00192281,
 -0.00119564,-0.00005318,-0.00039445,-0.00052808,-0.00024688,0.00020191
 ,-0.00001406,0.00000570,0.00005743,-0.00010410,-0.00006725,0.00006956,
 0.00015964,0.00020400,-0.00010709,0.00005549,0.00003069,-0.00009787,0.
 00020529,-0.00066614,-0.00079696,0.00010534,0.00000068,-0.00000367,-0.
 00000311,-0.00000377,-0.00002878,0.00001828,-0.00000775,0.00000212,0.0
 0002043,0.00001798,0.00001041,-0.00014764,-0.00011993,0.00002822,0.000
 12672,-0.00002172,-0.00003211,0.00012798,0.00185070,0.00927815,-0.0024
 7844,0.01629855,0.03124924,-0.00001452,-0.00001721,-0.00001476,0.00000
 626,0.00002826,-0.00001650,0.00001472,0.00001134,0.00002683,-0.0000192
 1,-0.00004973,-0.00007619,0.00000620,-0.00001435,-0.00001381,-0.000034
 47,0.00000268,0.00010583,0.00001683,0.00002496,-0.00020000,-0.00007344
 ,-0.00011808,-0.00014963,0.00008139,0.00032547,0.00002251,0.00234057,0
 .00147864,0.00092538,0.00612973,-0.00021366,0.00840432,-0.13608078,-0.
 02161295,-0.18600736,0.00005310,-0.00005450,-0.00003653,0.00011969,-0.
 00017414,-0.00004363,-0.00004896,0.00006976,0.00016981,-0.02084983,-0.
 00345109,-0.01919528,0.00423369,-0.00125689,-0.00245025,-0.00096317,-0
 .00039824,-0.00129047,-0.00035070,-0.00004624,0.00002564,-0.00022942,-
 0.00021086,-0.00038689,-0.00025301,0.00024289,0.00083530,0.00107539,0.
 00001596,0.00011447,-0.00039144,0.00017568,0.00047140,-0.00181490,0.00
 017116,-0.00019504,0.00000117,0.00000204,0.00000017,-0.00000056,-0.000
 00499,-0.00000655,0.00000513,0.00000061,-0.00000239,-0.00000395,0.0000
 0582,0.00006150,-0.00043716,0.00015972,0.00026937,0.00000620,0.0000494
 1,0.00002689,0.00185753,-0.00268563,0.00073144,0.14558820,0.02740346,0
 .19788976,0.00027684,0.00017901,-0.00016171,0.00018946,-0.00067011,0.0
 0010208,-0.00043235,-0.00078323,0.00041285,0.00066156,0.00186895,-0.00
 108079,-0.00124707,0.00069897,0.00065987,0.00002451,0.00080693,-0.0001
 7844,-0.00064589,-0.00009964,0.00080636,-0.00136646,-0.00181017,-0.000
 73282,0.00075946,-0.00018585,-0.00025830,-0.00541420,0.00552957,0.0286
 3437,-0.00386417,-0.00450210,0.00082558,0.00003150,0.00002433,0.001082
 01,0.00080070,0.00212772,0.00170812,-0.04564472,0.00093924,0.01714617,
 -0.00271036,-0.00164726,-0.02801460,-0.00011805,0.00059801,0.00000661,
 0.00000151,0.00016331,0.00000274,-0.00001027,-0.00001170,0.00002743,-0
 .00003002,-0.00003417,0.00005017,-0.00003832,0.00000727,0.00003019,-0.
 00005642,0.00003850,0.00012744,-0.00000747,0.00003378,-0.00003438,-0.0
 0007657,0.00000825,-0.00003018,0.00017269,0.00001995,0.00013677,-0.000
 02930,-0.00002005,0.00008241,0.00004268,-0.00012627,-0.00006875,0.0000
 6871,-0.00007225,-0.00019036,-0.00006020,0.00004382,0.00001653,0.00054
 908,0.00068925,0.00011780,-0.00004923,0.00062726,0.00041596,0.00018062
 ,0.00039723,-0.00010521,-0.00005223,-0.00018884,0.00004115,0.05816968,
 0.00004778,-0.00012771,0.00029515,-0.00021890,0.00041811,-0.00018864,0
 .00034387,0.00039232,0.00016682,-0.00072388,-0.00080439,0.00017447,0.0
 0027312,-0.00020756,-0.00057082,0.00005559,-0.00036115,0.00036664,0.00
 039470,-0.00007467,-0.00117199,0.00047519,-0.00018116,0.00241365,0.001
 39956,0.00264574,-0.00177253,-0.00464754,0.00238652,0.01663182,-0.0020
 0698,-0.00056386,-0.00018741,-0.00006081,0.00023003,0.00080710,0.00345
 278,-0.02222126,-0.02000801,0.00432998,-0.05102430,-0.06468480,0.00151
 140,0.00253876,0.00882824,-0.00002284,0.00003084,-0.00011539,-0.000138
 21,0.00014541,0.00014917,-0.00003252,0.00001570,0.00003469,-0.00007828
 ,0.00001910,0.00005432,0.00002196,0.00003877,-0.00001667,-0.00002228,-
 0.00001716,0.00005129,-0.00003536,-0.00003557,-0.00001636,0.00000211,0
 .00006336,-0.00002138,-0.00012732,0.00009053,0.00011309,-0.00002491,-0
 .00001128,-0.00003501,0.00018700,0.00004916,-0.00010032,-0.00002678,0.
 00003061,0.00003562,0.00006650,0.00001843,0.00008728,0.00056800,0.0003
 5236,-0.00037438,-0.00037563,0.00183749,0.00060376,0.00007983,0.000161
 92,-0.00003038,-0.00003093,-0.00011128,-0.00003858,-0.00468117,0.06437
 477,-0.00012858,0.00004345,-0.00020960,0.00043530,-0.00013225,-0.00003
 042,-0.00053833,-0.00103903,0.00003643,0.00146100,0.00186498,-0.000538
 82,-0.00061512,0.00076852,0.00086494,0.00010929,-0.00010974,-0.0005447
 1,-0.00074945,0.00032693,0.00125803,-0.00229704,-0.00330352,-0.0001727
 4,0.00132527,0.00109954,0.00047623,0.00212251,-0.00321898,-0.01268733,
 0.00256827,0.00106846,0.00129813,-0.00027990,-0.00007789,-0.00059473,-
 0.00057105,0.00145439,0.00312595,0.02536485,-0.05839016,-0.29113748,-0
 .00701719,0.00145646,-0.01565777,0.00012876,0.00052302,-0.00014498,0.0
 0004081,-0.00021649,0.00006467,0.00004815,-0.00001838,-0.00001121,0.00
 000684,-0.00000041,-0.00003347,-0.00000440,0.00002296,-0.00001580,0.00
 000330,-0.00001111,-0.00002553,0.00002204,0.00005433,0.00000284,0.0000
 1597,-0.00000033,0.00001270,0.00000910,-0.00041994,0.00001781,-0.00000
 604,-0.00000056,0.00005556,-0.00008178,-0.00001172,0.00009055,0.000033
 39,-0.00004380,-0.00012990,-0.00003791,0.00000799,-0.00007023,-0.00001
 106,-0.00038554,0.00103757,0.00042090,0.00007820,0.00032596,-0.0003020
 2,0.00004161,0.00011229,0.00000717,0.00011096,-0.00000267,-0.02144236,
 0.05846995,0.31327095,-0.00000280,0.00004175,0.00006033,-0.00001476,-0
 .00001684,0.00002209,0.00006483,-0.00002828,-0.00013937,-0.00007346,0.
 00006039,0.00014214,0.00005402,-0.00003070,-0.00007137,-0.00001494,0.0
 0000918,-0.00003541,-0.00003532,-0.00004471,0.00007013,0.00008548,0.00
 005758,0.00000931,0.00002428,-0.00013069,-0.00003114,0.00041284,-0.000
 04121,0.00008132,-0.00040125,0.00047494,0.00026574,-0.00043438,0.00035
 979,0.00111939,-0.00000356,0.00019568,0.00016070,0.00008146,-0.0002291
 6,0.00007133,0.00011610,0.00000186,-0.00014699,-0.01546978,0.00071294,
 0.00271638,-0.33617435,0.01075680,0.02000173,-0.00745537,0.00261940,0.
 00909050,0.00221315,0.00014499,0.00064121,0.00023463,-0.00008679,-0.00
 030321,0.00004666,0.00002099,0.00016305,-0.00030626,-0.00008949,-0.000
 25004,-0.00077014,0.00011913,0.00020219,-0.00002872,-0.00057414,-0.002
 82348,-0.00000171,-0.00000498,-0.00000117,-0.00000222,0.00000482,0.000
 00488,-0.00001168,0.00000613,0.00001658,0.00000495,-0.00000753,-0.0000
 1133,-0.00005649,0.00004191,0.00016635,0.00000580,-0.00000701,-0.00004
 579,0.00088968,0.00002559,0.00099095,0.00007059,-0.00002224,-0.0001260
 0,-0.00006656,0.00004194,-0.00004144,0.35731602,0.00005190,0.00005139,
 0.00001203,-0.00005617,-0.00005305,0.00001102,-0.00004058,0.00004299,-
 0.00004924,-0.00005473,-0.00000007,0.00008237,0.00010501,-0.00004286,0
 .00001085,-0.00001215,0.00001490,-0.00005256,-0.00008739,-0.00002901,0
 .00008449,-0.00000047,-0.00000691,-0.00005278,0.00017178,0.00008437,-0
 .00001141,-0.00005548,-0.00013492,-0.00001611,-0.00077396,-0.00020425,
 -0.00079627,0.00062870,-0.00298035,0.00051123,-0.00024673,-0.00033282,
 0.00055323,0.00002195,0.00003635,0.00042411,0.00010129,0.00001521,-0.0
 0026327,-0.00621447,0.00615797,0.00132862,0.00956178,-0.04167060,-0.00
 422815,0.01013092,-0.00197996,-0.00321139,0.00078320,0.00521164,-0.002
 75062,0.00007785,-0.00034239,-0.00012275,0.00001849,-0.00019402,0.0001
 6756,-0.00011162,-0.00131895,0.00030926,-0.00031491,0.00088602,-0.0000
 9274,-0.00021983,0.00755204,-0.00333978,-0.00000284,-0.00000391,0.0000
 0362,-0.00000566,0.00000560,0.00000051,-0.00000093,-0.00000208,0.00000
 812,-0.00000836,0.00001549,0.00001436,0.00002577,0.00025634,0.00007333
 ,0.00003054,0.00002126,-0.00004344,0.00061314,0.00040877,-0.00095535,-
 0.00002226,-0.00031421,0.00013850,0.00001767,-0.00009954,-0.00000683,-
 0.01438507,0.02844656,-0.00002333,0.00003257,0.00007871,-0.00002357,-0
 .00002766,0.00000863,0.00006400,-0.00004904,-0.00009279,0.00002824,0.0
 0004829,0.00001084,0.00003221,-0.00002923,-0.00016481,-0.00003006,0.00
 004919,0.00013664,0.00012061,-0.00010501,-0.00031896,-0.00010460,0.000
 09755,0.00038841,-0.00016283,0.00007921,0.00005006,0.00054546,0.000089
 98,0.00002323,-0.00083970,-0.00018442,-0.00097568,0.00063716,0.0007734
 2,0.00040828,0.00012663,0.00015768,-0.00032547,0.00012514,-0.00017090,
 -0.00005047,0.00000857,0.00004375,0.00007482,-0.02370031,0.00063119,0.
 00753136,0.01819100,-0.00341819,-0.05371070,0.03591284,-0.00397800,-0.
 01226606,0.00271870,-0.00263644,-0.00370842,-0.00016279,-0.00020035,-0
 .00085482,0.00023604,0.00017328,0.00036284,-0.00039907,0.00038709,-0.0
 0016389,-0.00126845,-0.00006735,0.00053605,-0.00180471,-0.00330429,-0.
 00339852,-0.00000591,-0.00000399,0.00000145,-0.00000642,0.00000316,0.0
 0002451,-0.00001621,0.00000344,0.00000455,-0.00001862,-0.00001717,0.00
 002597,-0.00001998,-0.00004172,0.00011133,-0.00002064,-0.00001285,-0.0
 0001916,0.00096480,-0.00076737,-0.00162185,0.00005604,0.00017215,0.000
 01491,-0.00013048,0.00004845,-0.00004247,-0.03195976,0.01241814,0.0679
 6113,0.00000048,0.00000752,-0.00000384,-0.00001608,-0.00001870,-0.0000
 0129,0.00000475,0.00000637,0.00000697,0.00001299,0.00000182,-0.0000156
 7,-0.00000477,-0.00000436,-0.00000438,-0.00000032,0.00001151,0.0000067
 4,-0.00000195,-0.00002040,-0.00001589,0.00002176,0.00001844,0.00001180
 ,-0.00003980,0.00002113,0.00001738,0.00006727,-0.00002804,-0.00004423,
 -0.00000196,-0.00001423,0.00000376,0.00025771,-0.00001877,0.00016835,0
 .00000637,-0.00000139,0.00000130,-0.00000253,0.00000385,-0.00000685,-0
 .00001805,0.00000889,0.00003939,-0.00081078,0.00014238,0.00035127,-0.0
 0322912,0.00072449,0.00123143,-0.01753719,0.00963359,0.03437667,-0.069
 59554,0.01686652,0.05950709,0.00941616,-0.00566845,-0.02066043,0.00203
 364,0.00024267,0.00132393,0.00037727,-0.00008653,-0.00019006,-0.000357
 56,-0.00047867,-0.00179676,-0.00382623,-0.00006320,-0.00110216,-0.0000
 0050,0.,0.00000082,0.00000240,0.00000166,-0.00000026,-0.00000226,-0.00
 000009,-0.00000119,0.00000054,0.00000166,0.00000334,-0.00000360,0.0000
 0328,0.00001293,-0.00000172,0.00000009,0.00000043,0.00005476,-0.000018
 04,-0.00002126,-0.00002774,0.00003238,0.00011457,-0.00000912,0.0000030
 4,0.00000076,-0.00029676,0.00027362,0.00092997,0.08352748,-0.00000010,
 -0.00000025,-0.00000193,-0.00000390,-0.00000207,-0.00000435,0.00000350
 ,-0.00000177,-0.00000432,-0.00000535,0.00000198,0.00002526,0.00000329,
 0.00000132,0.00000816,0.00000459,-0.00000337,-0.00001887,-0.00001421,0
 .00000347,0.00003398,0.00001557,-0.00000349,-0.00002032,-0.00000765,0.
 00002620,0.00001461,0.00002084,0.00017393,-0.00000923,0.00001157,0.000
 02295,-0.00007167,0.00000732,-0.00173110,0.00051318,-0.00001545,-0.000
 01903,0.00001906,0.00002178,-0.00001356,-0.00005315,-0.00000687,0.0000
 0111,-0.00002181,-0.00017064,-0.00068382,0.00009310,0.00022579,0.01153
 904,-0.00228265,0.00283818,-0.00637631,0.00056893,0.01735492,-0.057688
 95,-0.07309442,0.00195686,0.00521470,-0.00533204,0.00007841,-0.0012941
 7,0.00074093,-0.00016353,-0.00073390,-0.00009711,-0.00007360,0.0001662
 2,-0.00020918,-0.00047372,0.00426140,-0.00111628,-0.00000004,0.0000004
 2,0.00000051,-0.00000052,0.00000086,0.00000159,0.00000091,-0.00000016,
 0.00000025,0.00000101,-0.00000078,-0.00000386,-0.00001101,0.00000377,0
 .00000313,0.00000019,0.00000213,0.00000366,-0.00000171,-0.00004924,0.0
 0001460,-0.00002925,-0.00001314,0.00004077,0.00001379,0.00000099,-0.00
 000508,0.00000301,0.00050299,-0.00019456,-0.02158401,0.04669163,-0.000
 00321,-0.00000165,0.00000248,-0.00000231,0.00000156,-0.00000085,0.0000
 0474,-0.00000130,-0.00000448,-0.00000284,-0.00000007,0.00000384,0.0000
 0156,-0.00000321,-0.00000732,0.00000200,0.00000293,-0.00000278,-0.0000
 0341,-0.00000820,-0.00000126,0.00001373,0.00000794,-0.00000424,-0.0000
 1522,0.00000739,0.00001933,-0.00000469,-0.00003139,-0.00003007,0.00014
 176,-0.00002247,0.00002183,-0.00016372,0.00050996,-0.00003781,-0.00000
 096,0.00000390,0.00000042,-0.00000925,-0.00000259,0.00001309,0.0000046
 4,-0.00000308,0.00001344,-0.00040037,0.00008390,-0.00048337,-0.0007777
 1,-0.00225688,0.00375429,0.01038216,0.00125592,-0.00071164,0.06050168,
 -0.07307399,-0.30159784,0.00774556,-0.00619282,-0.01512183,0.00057113,
 0.00076150,0.00137173,-0.00033694,-0.00009931,-0.00109781,-0.00043254,
 -0.00028286,-0.00086619,-0.00293646,-0.00096702,0.00060727,-0.00000050
 ,0.00000009,0.00000089,-0.00000084,-0.00000057,0.00000110,-0.00000084,
 0.00000047,0.00000053,-0.00000032,0.00000084,0.00000058,0.00000099,-0.
 00000071,0.00000301,-0.00000041,-0.00000104,-0.00000044,-0.00000726,0.
 00001615,0.00001175,-0.00001149,-0.00000499,-0.00000756,-0.00000425,0.
 00000118,-0.00000076,-0.00000980,-0.00015864,-0.00003966,-0.07424463,0
 .08045910,0.31419033\\0.00000485,-0.00000304,-0.00000157,-0.00000664,-
 0.00000946,0.00000200,0.00001131,-0.00000041,0.00001414,-0.00000316,-0
 .00000956,-0.00000860,-0.00000188,-0.00001151,0.00000186,-0.00000067,-
 0.00000031,0.00000851,-0.00001087,-0.00000589,-0.00000329,-0.00003683,
 -0.00002102,-0.00001217,0.00005249,-0.00000489,0.00001373,0.00000263,0
 .00004030,-0.00000711,0.00001589,-0.00000833,-0.00001790,-0.00001617,0
 .00000350,0.00000437,0.00000844,-0.00000586,-0.00000045,-0.00000713,0.
 00000298,0.00001592,0.00000044,-0.00000287,-0.00000457,0.00001252,0.00
 000713,-0.00000022,0.00000069,-0.00000335,-0.00001648,-0.00001074,0.00
 000719,0.00001099,0.00001675,0.00000391,0.00000396,-0.00001796,-0.0000
 0280,-0.00000488,0.00002445,0.00001567,0.00001585,-0.00007297,0.000018
 63,0.00001563,0.00007629,-0.00000922,-0.00002791,-0.00002201,0.0000126
 0,-0.00000837,-0.00000069,-0.00001081,0.00000219,-0.00000064,-0.000004
 87,-0.00000466,-0.00000390,-0.00000762,-0.00000140,-0.00000514,-0.0000
 0284,0.00000036,-0.00000489,0.00000381,0.00000392,0.00000365,0.0000003
 6,-0.00000187,-0.00000353,0.00000228,0.00000674,-0.00000284,0.00000300
 ,0.00000190,0.00000347,-0.00000354,-0.00000279,-0.00000280,0.00000128,
 0.00000340,-0.00000238,0.00000556,-0.00000125\\\@


 IF GOD HAD MEANT MAN TO SEE THE SUN RISE, HE
 WOULD HAVE SCHEDULED IT FOR A LATER HOUR.
 Job cpu time:  0 days 11 hours 54 minutes 12.1 seconds.
 File lengths (MBytes):  RWF=   1272 Int=      0 D2E=      0 Chk=     23 Scr=      1
 Normal termination of Gaussian 09 at Mon Dec 30 04:06:17 2013.
