 Entering Gaussian System, Link 0=g09
 Initial command:
 /opt/gaussian/g09/l1.exe /panfs/panfs.cluster/home/shuo/Gau-7876.inp -scrdir=/panfs/panfs.cluster/home/shuo/
 Default is to use a total of  12 processors:
                               12 via shared-memory
                                1 via Linda
 Entering Link 1 = /opt/gaussian/g09/l1.exe PID=      7877.
  
 Copyright (c) 1988,1990,1992,1993,1995,1998,2003,2009,2011,
            Gaussian, Inc.  All Rights Reserved.
  
 This is part of the Gaussian(R) 09 program.  It is based on
 the Gaussian(R) 03 system (copyright 2003, Gaussian, Inc.),
 the Gaussian(R) 98 system (copyright 1998, Gaussian, Inc.),
 the Gaussian(R) 94 system (copyright 1995, Gaussian, Inc.),
 the Gaussian 92(TM) system (copyright 1992, Gaussian, Inc.),
 the Gaussian 90(TM) system (copyright 1990, Gaussian, Inc.),
 the Gaussian 88(TM) system (copyright 1988, Gaussian, Inc.),
 the Gaussian 86(TM) system (copyright 1986, Carnegie Mellon
 University), and the Gaussian 82(TM) system (copyright 1983,
 Carnegie Mellon University). Gaussian is a federally registered
 trademark of Gaussian, Inc.
  
 This software contains proprietary and confidential information,
 including trade secrets, belonging to Gaussian, Inc.
  
 This software is provided under written license and may be
 used, copied, transmitted, or stored only in accord with that
 written license.
  
 The following legend is applicable only to US Government
 contracts under FAR:
  
                    RESTRICTED RIGHTS LEGEND
  
 Use, reproduction and disclosure by the US Government is
 subject to restrictions as set forth in subparagraphs (a)
 and (c) of the Commercial Computer Software - Restricted
 Rights clause in FAR 52.227-19.
  
 Gaussian, Inc.
 340 Quinnipiac St., Bldg. 40, Wallingford CT 06492
  
  
 ---------------------------------------------------------------
 Warning -- This program may not be used in any manner that
 competes with the business of Gaussian, Inc. or will provide
 assistance to any competitor of Gaussian, Inc.  The licensee
 of this program is prohibited from giving any competitor of
 Gaussian, Inc. access to this program.  By using this program,
 the user acknowledges that Gaussian, Inc. is engaged in the
 business of creating and licensing software in the field of
 computational chemistry and represents and warrants to the
 licensee that it is not a competitor of Gaussian, Inc. and that
 it will not use this program in any manner prohibited above.
 ---------------------------------------------------------------
  

 Cite this work as:
 Gaussian 09, Revision C.01,
 M. J. Frisch, G. W. Trucks, H. B. Schlegel, G. E. Scuseria, 
 M. A. Robb, J. R. Cheeseman, G. Scalmani, V. Barone, B. Mennucci, 
 G. A. Petersson, H. Nakatsuji, M. Caricato, X. Li, H. P. Hratchian, 
 A. F. Izmaylov, J. Bloino, G. Zheng, J. L. Sonnenberg, M. Hada, 
 M. Ehara, K. Toyota, R. Fukuda, J. Hasegawa, M. Ishida, T. Nakajima, 
 Y. Honda, O. Kitao, H. Nakai, T. Vreven, J. A. Montgomery, Jr., 
 J. E. Peralta, F. Ogliaro, M. Bearpark, J. J. Heyd, E. Brothers, 
 K. N. Kudin, V. N. Staroverov, T. Keith, R. Kobayashi, J. Normand, 
 K. Raghavachari, A. Rendell, J. C. Burant, S. S. Iyengar, J. Tomasi, 
 M. Cossi, N. Rega, J. M. Millam, M. Klene, J. E. Knox, J. B. Cross, 
 V. Bakken, C. Adamo, J. Jaramillo, R. Gomperts, R. E. Stratmann, 
 O. Yazyev, A. J. Austin, R. Cammi, C. Pomelli, J. W. Ochterski, 
 R. L. Martin, K. Morokuma, V. G. Zakrzewski, G. A. Voth, 
 P. Salvador, J. J. Dannenberg, S. Dapprich, A. D. Daniels, 
 O. Farkas, J. B. Foresman, J. V. Ortiz, J. Cioslowski, 
 and D. J. Fox, Gaussian, Inc., Wallingford CT, 2010.
 
 ******************************************
 Gaussian 09:  EM64L-G09RevC.01 23-Sep-2011
                28-Dec-2013 
 ******************************************
 %chk=23_C20H10N4S5Si.chk
 %NProcShared=12
 Will use up to   12 processors via shared memory.
 %Mem=8000MB
 Default route:  MaxDisk=100GB
 --------------------------------------------
 #B3LYP/6-31++G(d,p) opt scf=direct freq test
 --------------------------------------------
 1/14=-1,18=20,19=15,26=3,38=1/1,3;
 2/9=110,12=2,17=6,18=5,40=1/2;
 3/5=1,6=6,7=1111,11=2,16=1,25=1,30=1,71=1,74=-5/1,2,3;
 4//1;
 5/5=2,38=5/2;
 6/7=2,8=2,9=2,10=2,28=1/1;
 7//1,2,3,16;
 1/14=-1,18=20,19=15/3(2);
 2/9=110/2;
 99//99;
 2/9=110/2;
 3/5=1,6=6,7=1111,11=2,16=1,25=1,30=1,71=1,74=-5/1,2,3;
 4/5=5,16=3/1;
 5/5=2,38=5/2;
 7//1,2,3,16;
 1/14=-1,18=20,19=15/3(-5);
 2/9=110/2;
 6/7=2,8=2,9=2,10=2,19=2,28=1/1;
 99/9=1/99;
 ----------------------------------------------------------------------
 Geom opt of No.23 candidate from the CEPDB database with SMILE code of
  [SiH2]1C=c2ccc3c4nsnc4c4c5sc(cc5c5nsnc5c4c3c2=C1)-c1ccc[Se]1, HPC, 20
 131227, Shuo Dai, Gaussian09
 ----------------------------------------------------------------------
 Charge =  0 Multiplicity = 1
 Symbolic Z-Matrix:
 Si                    1.00604   0.0127   -0.09901 
 H                     0.5327    1.24788  -0.61543 
 H                     0.5327   -1.05212  -0.91049 
 C                     2.83804   0.0127   -0.09901 
 C                     3.49506   0.1575   -1.22775 
 C                     4.83798   0.1575   -1.22775 
 C                     5.50944   0.30549  -2.3813 
 C                     6.95344   0.30549  -2.3813 
 C                     7.64      1.49782  -2.21988 
 N                     6.98155   2.60863  -2.08103 
 S                     5.37788   2.59755  -2.09671 
 N                     9.65874   2.62973  -2.0422 
 C                     9.01875   1.51153  -2.20585 
 C                     9.72163   0.31987  -2.36811 
 C                     11.1945   0.29035  -2.36468 
 S                     12.12046   1.21795  -2.23266 
 C                     13.32647   0.66185  -2.30505 
 C                     13.20151  -0.62956  -2.48472 
 C                     11.82728  -0.90691  -2.52802 
 C                     11.10386  -2.07122  -2.6928 
 N                     11.49752  -3.38803  -2.87268 
 S                     10.37125  -4.13471  -2.97962 
 N                     9.32911  -3.36154  -2.87758 
 C                     9.73775  -2.07319  -2.69809 
 C                     9.02471  -0.88664  -2.53658 
 C                     7.6379   -0.88319  -2.54222 
 C                     2.8236    0.30549  -2.3813 
 C                     0.39538  -0.20708   1.61418 
 C                     14.61256   1.39056  -2.19886 
 C                     14.50326   2.86748  -1.74669 
 C                     15.90796   3.144    -1.14766 
 C                     16.2782   1.83043  -0.4275 
 Se                    15.45431   0.71584  -1.0961 
 H                     3.35404  -0.10102   0.78747 
 H                     5.35398   0.04378  -0.34127 
 H                     4.99344   0.41921  -3.26777 
 H                     13.96884  -1.31346  -2.57695 
 H                    -0.04527  -0.32582   2.53979 
 H                     15.02675   1.36447  -3.18509 
 H                     13.738    2.98977  -1.0089 
 H                     14.23975   3.5364   -2.53916 
 H                     15.87144   3.95899  -0.45529 
 H                     16.62455   3.41837  -1.89339 
 H                     16.03358   1.89756   0.61199 
 H                     17.32712   1.63223  -0.50098 
 

 GradGradGradGradGradGradGradGradGradGradGradGradGradGradGradGradGradGrad
 Berny optimization.
 Initialization pass.
                           ----------------------------
                           !    Initial Parameters    !
                           ! (Angstroms and Degrees)  !
 --------------------------                            --------------------------
 ! Name  Definition              Value          Derivative Info.                !
 --------------------------------------------------------------------------------
 ! R1    R(1,2)                  1.42           estimate D2E/DX2                !
 ! R2    R(1,3)                  1.42           estimate D2E/DX2                !
 ! R3    R(1,4)                  1.832          estimate D2E/DX2                !
 ! R4    R(1,28)                 1.832          estimate D2E/DX2                !
 ! R5    R(4,5)                  1.314          estimate D2E/DX2                !
 ! R6    R(4,34)                 1.032          estimate D2E/DX2                !
 ! R7    R(5,6)                  1.3429         estimate D2E/DX2                !
 ! R8    R(5,27)                 1.3429         estimate D2E/DX2                !
 ! R9    R(6,7)                  1.3429         estimate D2E/DX2                !
 ! R10   R(6,35)                 1.032          estimate D2E/DX2                !
 ! R11   R(7,8)                  1.444          estimate D2E/DX2                !
 ! R12   R(7,36)                 1.032          estimate D2E/DX2                !
 ! R13   R(8,9)                  1.3853         estimate D2E/DX2                !
 ! R14   R(8,26)                 1.3811         estimate D2E/DX2                !
 ! R15   R(9,10)                 1.2987         estimate D2E/DX2                !
 ! R16   R(9,13)                 1.3789         estimate D2E/DX2                !
 ! R17   R(10,11)                1.6038         estimate D2E/DX2                !
 ! R18   R(12,13)                1.2987         estimate D2E/DX2                !
 ! R19   R(13,14)                1.393          estimate D2E/DX2                !
 ! R20   R(14,15)                1.4732         estimate D2E/DX2                !
 ! R21   R(14,25)                1.4035         estimate D2E/DX2                !
 ! R22   R(15,16)                1.3173         estimate D2E/DX2                !
 ! R23   R(15,19)                1.364          estimate D2E/DX2                !
 ! R24   R(16,17)                1.33           estimate D2E/DX2                !
 ! R25   R(16,18)                2.1553         estimate D2E/DX2                !
 ! R26   R(16,19)                2.1652         estimate D2E/DX2                !
 ! R27   R(17,18)                1.3098         estimate D2E/DX2                !
 ! R28   R(17,29)                1.482          estimate D2E/DX2                !
 ! R29   R(18,19)                1.4026         estimate D2E/DX2                !
 ! R30   R(18,37)                1.032          estimate D2E/DX2                !
 ! R31   R(19,20)                1.3806         estimate D2E/DX2                !
 ! R32   R(20,21)                1.3861         estimate D2E/DX2                !
 ! R33   R(20,24)                1.3661         estimate D2E/DX2                !
 ! R34   R(21,22)                1.3555         estimate D2E/DX2                !
 ! R35   R(22,23)                1.3016         estimate D2E/DX2                !
 ! R36   R(22,24)                2.175          estimate D2E/DX2                !
 ! R37   R(23,24)                1.3635         estimate D2E/DX2                !
 ! R38   R(24,25)                1.3937         estimate D2E/DX2                !
 ! R39   R(25,26)                1.3868         estimate D2E/DX2                !
 ! R40   R(28,38)                1.032          estimate D2E/DX2                !
 ! R41   R(29,30)                1.5484         estimate D2E/DX2                !
 ! R42   R(29,33)                1.5427         estimate D2E/DX2                !
 ! R43   R(29,39)                1.07           estimate D2E/DX2                !
 ! R44   R(30,31)                1.5519         estimate D2E/DX2                !
 ! R45   R(30,40)                1.07           estimate D2E/DX2                !
 ! R46   R(30,41)                1.07           estimate D2E/DX2                !
 ! R47   R(31,32)                1.5431         estimate D2E/DX2                !
 ! R48   R(31,42)                1.07           estimate D2E/DX2                !
 ! R49   R(31,43)                1.07           estimate D2E/DX2                !
 ! R50   R(32,33)                1.5389         estimate D2E/DX2                !
 ! R51   R(32,44)                1.07           estimate D2E/DX2                !
 ! R52   R(32,45)                1.07           estimate D2E/DX2                !
 ! A1    A(2,1,3)              109.4711         estimate D2E/DX2                !
 ! A2    A(2,1,4)              109.4715         estimate D2E/DX2                !
 ! A3    A(2,1,28)             109.4711         estimate D2E/DX2                !
 ! A4    A(3,1,4)              109.4715         estimate D2E/DX2                !
 ! A5    A(3,1,28)             109.4712         estimate D2E/DX2                !
 ! A6    A(4,1,28)             109.471          estimate D2E/DX2                !
 ! A7    A(1,4,5)              120.0            estimate D2E/DX2                !
 ! A8    A(1,4,34)             119.9998         estimate D2E/DX2                !
 ! A9    A(5,4,34)             120.0001         estimate D2E/DX2                !
 ! A10   A(4,5,6)              120.0            estimate D2E/DX2                !
 ! A11   A(4,5,27)             120.0            estimate D2E/DX2                !
 ! A12   A(6,5,27)             120.0            estimate D2E/DX2                !
 ! A13   A(5,6,7)              120.0            estimate D2E/DX2                !
 ! A14   A(5,6,35)             119.9998         estimate D2E/DX2                !
 ! A15   A(7,6,35)             120.0002         estimate D2E/DX2                !
 ! A16   A(6,7,8)              120.0            estimate D2E/DX2                !
 ! A17   A(6,7,36)             119.9999         estimate D2E/DX2                !
 ! A18   A(8,7,36)             120.0001         estimate D2E/DX2                !
 ! A19   A(7,8,9)              119.7094         estimate D2E/DX2                !
 ! A20   A(7,8,26)             119.7095         estimate D2E/DX2                !
 ! A21   A(9,8,26)             120.581          estimate D2E/DX2                !
 ! A22   A(8,9,10)             119.8244         estimate D2E/DX2                !
 ! A23   A(8,9,13)             120.3509         estimate D2E/DX2                !
 ! A24   A(10,9,13)            119.8246         estimate D2E/DX2                !
 ! A25   A(9,10,11)            120.0            estimate D2E/DX2                !
 ! A26   A(9,13,12)            120.1701         estimate D2E/DX2                !
 ! A27   A(9,13,14)            119.6593         estimate D2E/DX2                !
 ! A28   A(12,13,14)           120.1706         estimate D2E/DX2                !
 ! A29   A(13,14,15)           121.423          estimate D2E/DX2                !
 ! A30   A(13,14,25)           119.9229         estimate D2E/DX2                !
 ! A31   A(15,14,25)           118.654          estimate D2E/DX2                !
 ! A32   A(14,15,16)           133.5434         estimate D2E/DX2                !
 ! A33   A(14,15,19)           118.759          estimate D2E/DX2                !
 ! A34   A(15,16,17)           109.725          estimate D2E/DX2                !
 ! A35   A(15,16,18)            74.7665         estimate D2E/DX2                !
 ! A36   A(17,16,19)            72.8446         estimate D2E/DX2                !
 ! A37   A(16,17,29)           125.2682         estimate D2E/DX2                !
 ! A38   A(18,17,29)           125.2689         estimate D2E/DX2                !
 ! A39   A(16,18,37)           162.07           estimate D2E/DX2                !
 ! A40   A(17,18,19)           107.0176         estimate D2E/DX2                !
 ! A41   A(17,18,37)           126.4914         estimate D2E/DX2                !
 ! A42   A(19,18,37)           126.4909         estimate D2E/DX2                !
 ! A43   A(15,19,18)           106.097          estimate D2E/DX2                !
 ! A44   A(15,19,20)           120.7598         estimate D2E/DX2                !
 ! A45   A(16,19,20)           156.1818         estimate D2E/DX2                !
 ! A46   A(18,19,20)           133.1432         estimate D2E/DX2                !
 ! A47   A(19,20,21)           131.9003         estimate D2E/DX2                !
 ! A48   A(19,20,24)           121.7124         estimate D2E/DX2                !
 ! A49   A(21,20,24)           106.3872         estimate D2E/DX2                !
 ! A50   A(20,21,22)           107.3116         estimate D2E/DX2                !
 ! A51   A(21,22,23)           109.3808         estimate D2E/DX2                !
 ! A52   A(21,22,24)            73.1232         estimate D2E/DX2                !
 ! A53   A(20,24,22)            73.178          estimate D2E/DX2                !
 ! A54   A(20,24,23)           107.5523         estimate D2E/DX2                !
 ! A55   A(20,24,25)           120.6594         estimate D2E/DX2                !
 ! A56   A(23,24,25)           131.7883         estimate D2E/DX2                !
 ! A57   A(14,25,24)           119.4551         estimate D2E/DX2                !
 ! A58   A(14,25,26)           119.6639         estimate D2E/DX2                !
 ! A59   A(24,25,26)           120.8809         estimate D2E/DX2                !
 ! A60   A(8,26,25)            119.8192         estimate D2E/DX2                !
 ! A61   A(17,29,30)           115.3826         estimate D2E/DX2                !
 ! A62   A(17,29,33)           108.0396         estimate D2E/DX2                !
 ! A63   A(17,29,39)           104.945          estimate D2E/DX2                !
 ! A64   A(30,29,33)           104.2964         estimate D2E/DX2                !
 ! A65   A(30,29,39)           108.6469         estimate D2E/DX2                !
 ! A66   A(33,29,39)           115.9122         estimate D2E/DX2                !
 ! A67   A(29,30,31)           102.6369         estimate D2E/DX2                !
 ! A68   A(29,30,40)           111.152          estimate D2E/DX2                !
 ! A69   A(29,30,41)           113.4151         estimate D2E/DX2                !
 ! A70   A(31,30,40)           111.1513         estimate D2E/DX2                !
 ! A71   A(31,30,41)           113.4153         estimate D2E/DX2                !
 ! A72   A(40,30,41)           105.2539         estimate D2E/DX2                !
 ! A73   A(30,31,32)           104.2194         estimate D2E/DX2                !
 ! A74   A(30,31,42)           110.7679         estimate D2E/DX2                !
 ! A75   A(30,31,43)           112.5104         estimate D2E/DX2                !
 ! A76   A(32,31,42)           110.7674         estimate D2E/DX2                !
 ! A77   A(32,31,43)           112.5106         estimate D2E/DX2                !
 ! A78   A(42,31,43)           106.172          estimate D2E/DX2                !
 ! A79   A(31,32,33)           106.5785         estimate D2E/DX2                !
 ! A80   A(31,32,44)           110.1898         estimate D2E/DX2                !
 ! A81   A(31,32,45)           111.1514         estimate D2E/DX2                !
 ! A82   A(33,32,44)           110.1897         estimate D2E/DX2                !
 ! A83   A(33,32,45)           111.1515         estimate D2E/DX2                !
 ! A84   A(44,32,45)           107.6047         estimate D2E/DX2                !
 ! A85   A(29,33,32)           106.614          estimate D2E/DX2                !
 ! A86   L(22,24,25,20,-1)     193.8374         estimate D2E/DX2                !
 ! A87   L(1,28,38,44,-1)      185.7491         estimate D2E/DX2                !
 ! A88   L(22,24,25,20,-2)     180.0355         estimate D2E/DX2                !
 ! A89   L(1,28,38,44,-2)      179.0957         estimate D2E/DX2                !
 ! D1    D(2,1,4,5)            -60.0003         estimate D2E/DX2                !
 ! D2    D(2,1,4,34)           119.9996         estimate D2E/DX2                !
 ! D3    D(3,1,4,5)             59.9999         estimate D2E/DX2                !
 ! D4    D(3,1,4,34)          -120.0002         estimate D2E/DX2                !
 ! D5    D(28,1,4,5)           179.9999         estimate D2E/DX2                !
 ! D6    D(28,1,4,34)           -0.0002         estimate D2E/DX2                !
 ! D7    D(1,4,5,6)            180.0            estimate D2E/DX2                !
 ! D8    D(1,4,5,27)             0.0004         estimate D2E/DX2                !
 ! D9    D(34,4,5,6)             0.0001         estimate D2E/DX2                !
 ! D10   D(34,4,5,27)         -179.9995         estimate D2E/DX2                !
 ! D11   D(4,5,6,7)           -179.9996         estimate D2E/DX2                !
 ! D12   D(4,5,6,35)            -0.0001         estimate D2E/DX2                !
 ! D13   D(27,5,6,7)             0.0            estimate D2E/DX2                !
 ! D14   D(27,5,6,35)          179.9995         estimate D2E/DX2                !
 ! D15   D(5,6,7,8)            180.0            estimate D2E/DX2                !
 ! D16   D(5,6,7,36)            -0.0004         estimate D2E/DX2                !
 ! D17   D(35,6,7,8)             0.0005         estimate D2E/DX2                !
 ! D18   D(35,6,7,36)         -179.9999         estimate D2E/DX2                !
 ! D19   D(6,7,8,9)            -89.6007         estimate D2E/DX2                !
 ! D20   D(6,7,8,26)            90.3991         estimate D2E/DX2                !
 ! D21   D(36,7,8,9)            90.3997         estimate D2E/DX2                !
 ! D22   D(36,7,8,26)          -89.6005         estimate D2E/DX2                !
 ! D23   D(7,8,9,10)            -0.5812         estimate D2E/DX2                !
 ! D24   D(7,8,9,13)           179.4191         estimate D2E/DX2                !
 ! D25   D(26,8,9,10)          179.4191         estimate D2E/DX2                !
 ! D26   D(26,8,9,13)           -0.5806         estimate D2E/DX2                !
 ! D27   D(7,8,26,25)         -179.7118         estimate D2E/DX2                !
 ! D28   D(9,8,26,25)            0.2879         estimate D2E/DX2                !
 ! D29   D(8,9,10,11)            0.0005         estimate D2E/DX2                !
 ! D30   D(13,9,10,11)        -179.9998         estimate D2E/DX2                !
 ! D31   D(8,9,13,12)         -179.3776         estimate D2E/DX2                !
 ! D32   D(8,9,13,14)            0.6227         estimate D2E/DX2                !
 ! D33   D(10,9,13,12)           0.6227         estimate D2E/DX2                !
 ! D34   D(10,9,13,14)        -179.377          estimate D2E/DX2                !
 ! D35   D(9,13,14,15)         179.7601         estimate D2E/DX2                !
 ! D36   D(9,13,14,25)          -0.3808         estimate D2E/DX2                !
 ! D37   D(12,13,14,15)         -0.2396         estimate D2E/DX2                !
 ! D38   D(12,13,14,25)        179.6194         estimate D2E/DX2                !
 ! D39   D(13,14,15,16)         -0.1084         estimate D2E/DX2                !
 ! D40   D(13,14,15,19)        179.9972         estimate D2E/DX2                !
 ! D41   D(25,14,15,16)       -179.9692         estimate D2E/DX2                !
 ! D42   D(25,14,15,19)          0.1365         estimate D2E/DX2                !
 ! D43   D(13,14,25,24)       -179.9993         estimate D2E/DX2                !
 ! D44   D(13,14,25,26)          0.0938         estimate D2E/DX2                !
 ! D45   D(15,14,25,24)         -0.1364         estimate D2E/DX2                !
 ! D46   D(15,14,25,26)        179.9568         estimate D2E/DX2                !
 ! D47   D(14,15,16,17)       -179.9007         estimate D2E/DX2                !
 ! D48   D(14,15,16,18)       -179.8915         estimate D2E/DX2                !
 ! D49   D(14,15,19,18)        179.9023         estimate D2E/DX2                !
 ! D50   D(14,15,19,20)         -0.0438         estimate D2E/DX2                !
 ! D51   D(15,16,17,29)       -179.9844         estimate D2E/DX2                !
 ! D52   D(19,16,17,29)       -179.9831         estimate D2E/DX2                !
 ! D53   D(15,16,18,37)        179.9482         estimate D2E/DX2                !
 ! D54   D(17,16,19,20)       -179.9201         estimate D2E/DX2                !
 ! D55   D(29,17,18,19)        179.974          estimate D2E/DX2                !
 ! D56   D(29,17,18,37)         -0.0258         estimate D2E/DX2                !
 ! D57   D(16,17,29,30)         10.1            estimate D2E/DX2                !
 ! D58   D(16,17,29,33)        126.3301         estimate D2E/DX2                !
 ! D59   D(16,17,29,39)       -109.4336         estimate D2E/DX2                !
 ! D60   D(18,17,29,30)       -169.8999         estimate D2E/DX2                !
 ! D61   D(18,17,29,33)        -53.6697         estimate D2E/DX2                !
 ! D62   D(18,17,29,39)         70.5666         estimate D2E/DX2                !
 ! D63   D(17,18,19,15)          0.0265         estimate D2E/DX2                !
 ! D64   D(17,18,19,20)        179.963          estimate D2E/DX2                !
 ! D65   D(37,18,19,15)       -179.9737         estimate D2E/DX2                !
 ! D66   D(37,18,19,20)         -0.0372         estimate D2E/DX2                !
 ! D67   D(15,19,20,21)       -179.9389         estimate D2E/DX2                !
 ! D68   D(15,19,20,24)         -0.0508         estimate D2E/DX2                !
 ! D69   D(16,19,20,21)       -179.9915         estimate D2E/DX2                !
 ! D70   D(16,19,20,24)         -0.1033         estimate D2E/DX2                !
 ! D71   D(18,19,20,21)          0.1321         estimate D2E/DX2                !
 ! D72   D(18,19,20,24)       -179.9798         estimate D2E/DX2                !
 ! D73   D(19,20,21,22)        179.9001         estimate D2E/DX2                !
 ! D74   D(24,20,21,22)         -0.0007         estimate D2E/DX2                !
 ! D75   D(19,20,24,22)       -179.9128         estimate D2E/DX2                !
 ! D76   D(19,20,24,23)       -179.9386         estimate D2E/DX2                !
 ! D77   D(19,20,24,25)          0.0517         estimate D2E/DX2                !
 ! D78   D(21,20,24,22)          0.0004         estimate D2E/DX2                !
 ! D79   D(21,20,24,23)         -0.0254         estimate D2E/DX2                !
 ! D80   D(21,20,24,25)        179.965          estimate D2E/DX2                !
 ! D81   D(20,21,22,23)          0.0281         estimate D2E/DX2                !
 ! D82   D(20,21,22,24)          0.0004         estimate D2E/DX2                !
 ! D83   D(21,22,24,20)         -0.0005         estimate D2E/DX2                !
 ! D84   D(21,22,25,14)          0.0177         estimate D2E/DX2                !
 ! D85   D(21,22,25,26)        179.947          estimate D2E/DX2                !
 ! D86   D(20,24,25,14)          0.0455         estimate D2E/DX2                !
 ! D87   D(20,24,25,26)        179.9512         estimate D2E/DX2                !
 ! D88   D(23,24,25,14)       -179.9669         estimate D2E/DX2                !
 ! D89   D(23,24,25,26)         -0.0612         estimate D2E/DX2                !
 ! D90   D(14,25,26,8)          -0.0466         estimate D2E/DX2                !
 ! D91   D(24,25,26,8)        -179.9521         estimate D2E/DX2                !
 ! D92   D(17,29,30,31)        156.2581         estimate D2E/DX2                !
 ! D93   D(17,29,30,40)         37.3602         estimate D2E/DX2                !
 ! D94   D(17,29,30,41)        -80.9972         estimate D2E/DX2                !
 ! D95   D(33,29,30,31)         37.9232         estimate D2E/DX2                !
 ! D96   D(33,29,30,40)        -80.9746         estimate D2E/DX2                !
 ! D97   D(33,29,30,41)        160.668          estimate D2E/DX2                !
 ! D98   D(39,29,30,31)        -86.2665         estimate D2E/DX2                !
 ! D99   D(39,29,30,40)        154.8357         estimate D2E/DX2                !
 ! D100  D(39,29,30,41)         36.4783         estimate D2E/DX2                !
 ! D101  D(17,29,33,32)       -146.9061         estimate D2E/DX2                !
 ! D102  D(30,29,33,32)        -23.6609         estimate D2E/DX2                !
 ! D103  D(39,29,33,32)         95.7217         estimate D2E/DX2                !
 ! D104  D(29,30,31,32)        -37.9058         estimate D2E/DX2                !
 ! D105  D(29,30,31,42)       -157.0687         estimate D2E/DX2                !
 ! D106  D(29,30,31,43)         84.2717         estimate D2E/DX2                !
 ! D107  D(40,30,31,32)         80.9925         estimate D2E/DX2                !
 ! D108  D(40,30,31,42)        -38.1704         estimate D2E/DX2                !
 ! D109  D(40,30,31,43)       -156.8299         estimate D2E/DX2                !
 ! D110  D(41,30,31,32)       -160.6504         estimate D2E/DX2                !
 ! D111  D(41,30,31,42)         80.1867         estimate D2E/DX2                !
 ! D112  D(41,30,31,43)        -38.4729         estimate D2E/DX2                !
 ! D113  D(30,31,32,33)         23.5883         estimate D2E/DX2                !
 ! D114  D(30,31,32,44)        -95.9594         estimate D2E/DX2                !
 ! D115  D(30,31,32,45)        144.8444         estimate D2E/DX2                !
 ! D116  D(42,31,32,33)        142.7515         estimate D2E/DX2                !
 ! D117  D(42,31,32,44)         23.2038         estimate D2E/DX2                !
 ! D118  D(42,31,32,45)        -95.9924         estimate D2E/DX2                !
 ! D119  D(43,31,32,33)        -98.5891         estimate D2E/DX2                !
 ! D120  D(43,31,32,44)        141.8631         estimate D2E/DX2                !
 ! D121  D(43,31,32,45)         22.667          estimate D2E/DX2                !
 ! D122  D(31,32,33,29)          0.0048         estimate D2E/DX2                !
 ! D123  D(44,32,33,29)        119.5526         estimate D2E/DX2                !
 ! D124  D(45,32,33,29)       -121.2512         estimate D2E/DX2                !
 --------------------------------------------------------------------------------
 Trust Radius=3.00D-01 FncErr=1.00D-07 GrdErr=1.00D-06
 Number of steps in this run=    270 maximum allowed number of steps=    270.
 GradGradGradGradGradGradGradGradGradGradGradGradGradGradGradGradGradGrad

                          Input orientation:                          
 ---------------------------------------------------------------------
 Center     Atomic      Atomic             Coordinates (Angstroms)
 Number     Number       Type             X           Y           Z
 ---------------------------------------------------------------------
      1         14           0        1.006040    0.012700   -0.099010
      2          1           0        0.532700    1.247880   -0.615430
      3          1           0        0.532700   -1.052120   -0.910490
      4          6           0        2.838040    0.012700   -0.099010
      5          6           0        3.495060    0.157500   -1.227750
      6          6           0        4.837980    0.157500   -1.227750
      7          6           0        5.509440    0.305490   -2.381300
      8          6           0        6.953440    0.305490   -2.381300
      9          6           0        7.640000    1.497820   -2.219880
     10          7           0        6.981550    2.608630   -2.081030
     11         16           0        5.377880    2.597550   -2.096710
     12          7           0        9.658740    2.629730   -2.042200
     13          6           0        9.018750    1.511530   -2.205850
     14          6           0        9.721630    0.319870   -2.368110
     15          6           0       11.194500    0.290350   -2.364680
     16         16           0       12.120460    1.217950   -2.232660
     17          6           0       13.326470    0.661850   -2.305050
     18          6           0       13.201510   -0.629560   -2.484720
     19          6           0       11.827280   -0.906910   -2.528020
     20          6           0       11.103860   -2.071220   -2.692800
     21          7           0       11.497520   -3.388030   -2.872680
     22         16           0       10.371250   -4.134710   -2.979620
     23          7           0        9.329110   -3.361540   -2.877580
     24          6           0        9.737750   -2.073190   -2.698090
     25          6           0        9.024710   -0.886640   -2.536580
     26          6           0        7.637900   -0.883190   -2.542220
     27          6           0        2.823600    0.305490   -2.381300
     28          6           0        0.395380   -0.207080    1.614180
     29          6           0       14.612560    1.390560   -2.198860
     30          6           0       14.503260    2.867480   -1.746690
     31          6           0       15.907960    3.144000   -1.147660
     32          6           0       16.278200    1.830430   -0.427500
     33         34           0       15.454310    0.715840   -1.096100
     34          1           0        3.354040   -0.101020    0.787470
     35          1           0        5.353980    0.043780   -0.341270
     36          1           0        4.993440    0.419210   -3.267770
     37          1           0       13.968840   -1.313460   -2.576950
     38          1           0       -0.045270   -0.325820    2.539790
     39          1           0       15.026750    1.364470   -3.185090
     40          1           0       13.738000    2.989770   -1.008900
     41          1           0       14.239750    3.536400   -2.539160
     42          1           0       15.871440    3.958990   -0.455290
     43          1           0       16.624550    3.418370   -1.893390
     44          1           0       16.033580    1.897560    0.611990
     45          1           0       17.327120    1.632230   -0.500980
 ---------------------------------------------------------------------
                    Distance matrix (angstroms):
                    1          2          3          4          5
     1  Si   0.000000
     2  H    1.420004   0.000000
     3  H    1.419997   2.318849   0.000000
     4  C    1.832000   2.665887   2.665883   0.000000
     5  C    2.736831   3.215500   3.215495   1.314038   0.000000
     6  C    3.997347   4.483224   4.483221   2.301039   1.342920
     7  C    5.057191   5.364172   5.364171   3.525755   2.326006
     8  C    6.377001   6.725496   6.725495   4.714986   3.648694
     9  C    7.121313   7.290435   7.663577   5.455501   4.467808
    10  N    6.809844   6.751836   7.507258   5.275977   4.346463
    11  S    5.457586   5.243240   6.180856   4.138000   3.202178
    12  N    9.246299   9.339689   9.905624   7.559549   6.690755
    13  C    8.419548   8.637823   8.958979   6.699734   5.770722
    14  C    9.011364   9.400507   9.404438   7.254445   6.332216
    15  C   10.441028  10.846692  10.843933   8.662608   7.784063
    16  S   11.381363  11.700107  11.881815   9.600438   8.748253
    17  C   12.533196  12.918158  12.983183  10.737559   9.903109
    18  C   12.443215  12.942866  12.773234  10.653902   9.819094
    19  C   11.128567  11.656271  11.410742   9.356934   8.499974
    20  C   10.631860  11.273035  10.768687   8.910345   8.062717
    21  N   11.372307  12.116688  11.381298   9.707976   8.905950
    22  S   10.639835  11.461184  10.515737   9.069078   8.293015
    23  N    9.401034  10.185328   9.304821   7.825595   7.010116
    24  C    9.346064  10.004995   9.432446   7.662386   6.790365
    25  C    8.429094   8.964442   8.647878   6.710100   5.777568
    26  C    7.124146   7.664062   7.292115   5.459904   4.469227
    27  C    2.932251   3.042140   3.042139   2.301039   1.342921
    28  C    1.832001   2.665882   2.665878   2.991640   4.221078
    29  C   13.836374  14.169335  14.348137  12.039402  11.227747
    30  C   13.893868  14.109550  14.534065  12.121963  11.348734
    31  C   15.263418  15.500876  15.939332  13.480635  12.767368
    32  C   15.383463  15.757394  16.014467  13.566501  12.916956
    33  Se  14.499693  14.938827  15.027128  12.675128  11.973000
    34  H    2.512346   3.427480   3.427480   1.032005   2.036622
    35  H    4.354795   4.976923   4.976922   2.527768   2.062611
    36  H    5.109369   5.255455   5.255453   3.853834   2.544664
    37  H   13.263976  13.818027  13.541612  11.480139  10.662276
    38  H    2.860614   3.572953   3.572953   3.923180   5.192484
    39  H   14.419829  14.720538  14.869136  12.645783  11.758734
    40  H   13.107008  13.325500  13.810377  11.335783  10.629556
    41  H   13.910495  14.029301  14.546144  12.180714  11.339538
    42  H   15.384416  15.577314  16.142967  13.622395  12.970073
    43  H   16.085902  16.287782  16.730183  14.313848  13.544735
    44  H   15.161965  15.562966  15.852313  13.348427  12.791674
    45  H   16.406161  16.799207  17.012524  14.584852  13.929426
                    6          7          8          9         10
     6  C    0.000000
     7  C    1.342921   0.000000
     8  C    2.414073   1.444000   0.000000
     9  C    3.260689   2.446833   1.385306   0.000000
    10  N    3.366158   2.749859   2.322801   1.298743   0.000000
    11  S    2.645832   2.313404   2.795876   2.518286   1.603785
    12  N    5.478593   4.767994   3.582698   2.321228   2.677555
    13  C    4.502101   3.714912   2.398087   1.378890   2.317195
    14  C    5.017651   4.212235   2.768259   2.396398   3.581742
    15  C    6.458762   5.685104   4.241120   3.756783   4.817035
    16  S    7.427578   6.675347   5.249074   4.489211   5.325916
    17  C    8.571430   7.825520   6.383441   5.748221   6.640644
    18  C    8.494002   7.749384   6.318496   5.960393   7.024012
    19  C    7.188462   6.434792   5.024516   4.838491   6.003326
    20  C    6.809906   6.086322   4.792887   4.996001   6.266474
    21  N    7.721791   7.052705   5.876411   6.259244   7.548551
    22  S    7.218670   6.611396   5.635139   6.305738   7.600669
    23  N    5.939346   5.318203   4.397410   5.186429   6.464399
    24  C    5.580826   4.861798   3.675712   4.169095   5.467800
    25  C    4.509099   3.715159   2.394879   2.775495   4.074180
    26  C    3.263498   2.443194   1.381065   2.402731   3.582778
    27  C    2.326006   2.685840   4.129840   4.964415   4.762685
    28  C    5.286415   6.510008   7.696411   8.372050   8.059804
    29  C    9.899793   9.169376   7.737750   6.973417   7.728512
    30  C   10.051414   9.373117   7.997894   7.014572   7.533585
    31  C   11.466039  10.849342   9.474304   8.498160   8.991029
    32  C   11.589553  11.050293   9.648519   8.828463   9.474569
    33  Se  10.631817  10.035964   8.607260   7.933336   8.737300
    34  H    2.515954   3.853843   4.812695   5.474477   5.359974
    35  H    1.032005   2.062615   2.605472   3.296861   3.500601
    36  H    2.062606   1.031997   2.154150   3.043970   3.186612
    37  H    9.346479   8.615145   7.202438   6.934336   8.028135
    38  H    6.186605   7.447851   8.578906   9.221903   8.907254
    39  H   10.445046   9.609719   8.182044   7.450737   8.215359
    40  H    9.342377   8.763449   7.424224   6.393590   6.851594
    41  H   10.076212   9.310317   7.972077   6.914799   7.331583
    42  H   11.695523  11.154758   9.827935   8.770846   9.137650
    43  H   12.247432  11.553084  10.171453   9.193326   9.678757
    44  H   11.478411  11.056762   9.692441   8.867438   9.470862
    45  H   12.596890  12.039660  10.625868   9.839359  10.510982
                   11         12         13         14         15
    11  S    0.000000
    12  N    4.281328   0.000000
    13  C    3.800958   1.298745   0.000000
    14  C    4.912194   2.333586   1.392990   0.000000
    15  C    6.263230   2.816958   2.500079   1.473170   0.000000
    16  S    6.883616   2.844198   3.115688   2.565011   1.317298
    17  C    8.183546   4.170598   4.391839   3.621574   2.164917
    18  C    8.471952   4.834254   4.707177   3.608958   2.211048
    19  C    7.352689   4.176890   3.720280   2.442196   1.364010
    20  C    7.412124   4.960905   4.173835   2.780880   2.385978
    21  N    8.595306   6.346987   5.531243   4.142089   3.725636
    22  S    8.428321   6.866154   5.857303   4.543042   4.542802
    23  N    7.192547   6.058204   4.928930   3.737166   4.132680
    24  C    6.417627   4.749094   3.689103   2.415757   2.796356
    25  C    5.062848   3.607113   2.420875   1.403476   2.474438
    26  C    4.173933   4.083433   2.784704   2.412384   3.749416
    27  C    3.443672   7.227463   6.313889   6.898058   8.370930
    28  C    6.816301  10.355020   9.586906  10.154568  11.519538
    29  C    9.313784   5.108857   5.595122   5.009613   3.594592
    30  C    9.136079   4.859344   5.668269   5.453482   4.239269
    31  C   10.586873   6.333832   7.158627   6.909116   5.642797
    32  C   11.054036   6.860276   7.480898   7.002597   5.654071
    33  Se  10.299344   6.176302   6.578837   5.885442   4.465010
    34  H    4.438097   7.430563   6.606756   7.119061   8.459435
    35  H    3.099013   5.302005   4.365946   4.822932   6.186005
    36  H    2.502867   5.305982   4.303947   4.814046   6.267800
    37  H    9.451520   5.866146   5.711539   4.555236   3.211577
    38  H    7.710628  11.130935  10.394874  10.949737  12.278677
    39  H    9.788041   5.632283   6.089056   5.468358   4.063612
    40  H    8.439714   4.223470   5.088143   5.010693   3.948975
    41  H    8.922440   4.696240   5.609816   5.548759   4.454305
    42  H   10.708061   6.548500   7.484242   7.397448   6.243273
    43  H   11.278416   7.011890   7.847411   7.581317   6.284271
    44  H   11.016850   6.944018   7.569484   7.156173   5.904268
    45  H   12.093905   7.885076   8.482344   7.940525   6.548515
                   16         17         18         19         20
    16  S    0.000000
    17  C    1.330018   0.000000
    18  C    2.155341   1.309823   0.000000
    19  C    2.165230   2.181351   1.402607   0.000000
    20  C    3.473304   3.544011   2.553785   1.380618   0.000000
    21  N    4.691773   4.479820   3.265463   2.526557   1.386115
    22  S    5.680550   5.674095   4.532259   3.569686   2.208387
    23  N    5.401785   5.700381   4.755369   3.519695   2.202001
    24  C    4.089686   4.529220   3.758620   2.399014   1.366122
    25  C    3.755707   4.577834   4.185025   2.802656   2.398020
    26  C    4.960238   5.899426   5.569685   4.189471   3.667011
    27  C    9.342713  10.509190  10.420462   9.086126   8.620237
    28  C   12.422012  13.539885  13.452748  12.179323  11.691734
    29  C    2.498299   1.481999   2.480658   3.625534   4.953673
    30  C    2.938512   2.561524   3.803752   4.692267   6.069745
    31  C    4.385436   3.763603   4.832428   5.913308   7.257090
    32  C    4.573897   3.688290   4.444066   5.631687   6.865002
    33  Se   3.557870   2.447893   2.968750   4.223631   5.407732
    34  H    9.365414  10.468764  10.390344   9.134425   8.720876
    35  H    7.123292   8.234017   8.162812   6.898500   6.562320
    36  H    7.245954   8.391966   8.311769   7.000514   6.623448
    37  H    3.153265   2.094855   1.031999   2.180357   2.965760
    38  H   13.159198  14.256626  14.170926  12.921989  12.439032
    39  H    3.061881   2.039387   2.792521   3.978381   5.237879
    40  H    2.693208   2.696029   3.945303   4.598118   5.948767
    41  H    3.156033   3.025215   4.293731   5.056000   6.426726
    42  H    4.974153   4.557369   5.683476   6.657959   8.006229
    43  H    5.024319   4.318009   5.334099   6.490347   7.826409
    44  H    4.885326   4.167079   4.898629   5.951275   7.139677
    45  H    5.502695   4.494609   5.106033   6.387829   7.566279
                   21         22         23         24         25
    21  N    0.000000
    22  S    1.355526   0.000000
    23  N    2.168577   1.301637   0.000000
    24  C    2.203651   2.174959   1.363469   0.000000
    25  C    3.533370   3.543926   2.516758   1.393705   0.000000
    26  C    4.613035   4.270235   3.019085   2.418629   1.386826
    27  C    9.440362   8.777265   7.484321   7.318739   6.316570
    28  C   12.389829  11.663930  10.485135  10.457434   9.599789
    29  C    5.743904   7.009059   7.138484   6.000881   6.043489
    30  C    7.030913   8.223399   8.176272   6.930041   6.688188
    31  C    8.068153   9.326889   9.412542   8.227660   8.096560
    32  C    7.487732   8.774296   9.013839   7.948038   8.027690
    33  Se   5.971112   7.274131   7.570784   6.559277   6.781053
    34  H    9.514063   8.927646   7.730785   7.535936   6.619895
    35  H    7.478532   7.042277   5.816419   5.408660   4.377137
    36  H    7.546803   7.052805   5.765792   5.389348   4.300119
    37  H    3.240173   4.589580   5.080561   4.300464   4.962683
    38  H   13.111368  12.388520  11.244665  11.233707  10.409063
    39  H    5.927843   7.208112   7.408970   6.326784   6.443023
    40  H    7.012115   8.122620   7.954207   6.670002   6.290903
    41  H    7.455118   8.602629   8.474107   7.194495   6.838123
    42  H    8.885587  10.106053  10.112355   8.890416   8.642315
    43  H    8.577443   9.865732  10.007960   8.844930   8.758103
    44  H    7.788211   9.019419   9.207885   8.146224   8.172486
    45  H    8.050603   9.369385   9.723895   8.726739   8.911699
                   26         27         28         29         30
    26  C    0.000000
    27  C    4.961486   0.000000
    28  C    8.377761   4.703492   0.000000
    29  C    7.343958  11.840196  14.806078   0.000000
    30  C    7.863432  11.974180  14.825001   1.548450   0.000000
    31  C    9.303599  13.445426  16.108930   2.420255   1.551929
    32  C    9.300030  13.680974  16.142611   2.470943   2.442570
    33  Se   8.108294  12.702557  15.328691   1.542683   2.440762
    34  H    5.481796   3.238475   3.073820  11.742966  11.812665
    35  H    3.304504   3.260834   5.336144   9.538646   9.677697
    36  H    3.035760   2.346693   6.735565   9.726950   9.937021
    37  H    6.345639  11.263909  14.248806   2.805183   4.295951
    38  H    9.228683   5.731151   1.032001  15.500089  15.499381
    39  H    7.749862  12.275357  15.478364   1.069992   2.145245
    40  H    7.386617  11.323117  13.968748   2.176771   1.070006
    41  H    7.944634  11.865588  14.930856   2.204409   1.070000
    42  H    9.777176  13.685894  16.160052   3.349873   2.175092
    43  H    9.984201  14.156069  16.995084   2.872878   2.196559
    44  H    9.389838  13.638110  15.810983   3.190176   2.974222
    45  H   10.216408  14.684956  17.162190   3.210925   3.324428
                   31         32         33         34         35
    31  C    0.000000
    32  C    1.543105   0.000000
    33  Se   2.470712   1.538873   0.000000
    34  H   13.110141  13.124045  12.273208   0.000000
    35  H   11.029421  11.069695  10.150768   2.301039   0.000000
    36  H   11.447537  11.721966  10.688028   4.404911   2.972430
    37  H    5.066755   4.453911   2.918492  11.201041   9.003120
    38  H   16.737458  16.730508  15.954364   3.830988   6.130988
    39  H    2.845062   3.063911   2.228768  12.416966  10.168285
    40  H    2.179855   2.852142   2.850277  10.982101   8.911587
    41  H    2.207527   3.394808   3.393101  11.949727   9.797246
    42  H    1.070009   2.167255   3.332065  13.217921  11.223138
    43  H    1.069997   2.188686   3.051033  13.988551  11.866873
    44  H    2.160037   1.069993   2.156290  12.837284  10.881133
    45  H    2.172017   1.070007   2.168261  14.138997  12.079104
                   36         37         38         39         40
    36  H    0.000000
    37  H    9.167180   0.000000
    38  H    7.724728  14.951647   0.000000
    39  H   10.078078   2.942842  16.211018   0.000000
    40  H    9.390293   4.585832  14.613859   3.006373   0.000000
    41  H    9.784784   4.857568  15.645264   2.398724   1.700663
    42  H   11.780109   5.993334  16.753261   3.859643   2.407787
    43  H   12.089938   5.469028  17.650919   2.905161   3.049294
    44  H   11.795031   4.974248  16.345925   3.964304   3.014945
    45  H   12.698276   4.925930  17.744863   3.545116   3.870747
                   41         42         43         44         45
    41  H    0.000000
    42  H    2.680207   0.000000
    43  H    2.473504   1.711016   0.000000
    44  H    3.979117   2.326987   2.989822   0.000000
    45  H    4.160756   2.744978   2.371225   1.726948   0.000000
 Stoichiometry    C22H14N4S3SeSi
 Framework group  C1[X(C22H14N4S3SeSi)]
 Deg. of freedom   129
 Full point group                 C1      NOp   1
 Largest Abelian subgroup         C1      NOp   1
 Largest concise Abelian subgroup C1      NOp   1
                         Standard orientation:                         
 ---------------------------------------------------------------------
 Center     Atomic      Atomic             Coordinates (Angstroms)
 Number     Number       Type             X           Y           Z
 ---------------------------------------------------------------------
      1         14           0        8.692168   -0.429041    1.091453
      2          1           0        9.076714   -1.515111    0.261401
      3          1           0        9.163943    0.786568    0.529214
      4          6           0        6.865398   -0.374608    1.218630
      5          6           0        6.135746   -0.221057    0.136629
      6          6           0        4.796660   -0.181156    0.229853
      7          6           0        4.050970   -0.024237   -0.875932
      8          6           0        2.611093    0.018668   -0.775691
      9          6           0        1.881782   -1.156190   -0.858675
     10          7           0        2.496005   -2.286487   -1.037263
     11         16           0        4.094659   -2.319581   -1.161103
     12          7           0       -0.172169   -2.236839   -0.818900
     13          6           0        0.507187   -1.131928   -0.752680
     14          6           0       -0.149057    0.083768   -0.574216
     15          6           0       -1.616168    0.155318   -0.461546
     16         16           0       -2.573881   -0.748613   -0.492670
     17          6           0       -3.755420   -0.156018   -0.345214
     18          6           0       -3.582682    1.136025   -0.217069
     19          6           0       -2.202321    1.374623   -0.287646
     20          6           0       -1.437737    2.522036   -0.217216
     21          7           0       -1.780991    3.854166   -0.047160
     22         16           0       -0.630289    4.570639   -0.049197
     23          7           0        0.379724    3.765246   -0.208808
     24          6           0       -0.075755    2.484642   -0.316698
     25          6           0        0.590807    1.273781   -0.495363
     26          6           0        1.973161    1.230602   -0.597925
     27          6           0        6.729142   -0.104039   -1.062381
     28          6           0        9.414172   -0.650610    2.760539
     29          6           0       -5.064711   -0.850137   -0.328485
     30          6           0       -4.995933   -2.395251   -0.253717
     31          6           0       -6.373209   -2.767247    0.357193
     32          6           0       -6.639116   -1.657772    1.396198
     33         34           0       -5.806925   -0.439061    0.959927
     34          1           0        6.409388   -0.464542    2.140042
     35          1           0        4.340649   -0.271089    1.151266
     36          1           0        4.506981    0.065694   -1.797335
     37          1           0       -4.322154    1.844316   -0.088520
     38          1           0        9.914664   -0.773614    3.654633
     39          1           0       -5.535854   -0.572763   -1.248252
     40          1           0       -4.194058   -2.715925    0.378007
     41          1           0       -4.811378   -2.858960   -1.200191
     42          1           0       -6.332342   -3.726828    0.828843
     43          1           0       -7.145136   -2.830667   -0.381049
     44          1           0       -6.335728   -1.982846    2.369424
     45          1           0       -7.680416   -1.416579    1.445570
 ---------------------------------------------------------------------
 Rotational constants (GHZ):      0.2136157      0.0418308      0.0371296
 Standard basis: 6-31++G(d,p) (6D, 7F)
 There are   704 symmetry adapted basis functions of A   symmetry.
 Integral buffers will be    131072 words long.
 Raffenetti 2 integral format.
 Two-electron integral symmetry is turned on.
   704 basis functions,  1255 primitive gaussians,   704 cartesian basis functions
   135 alpha electrons      135 beta electrons
       nuclear repulsion energy      4081.2295280241 Hartrees.
 NAtoms=   45 NActive=   45 NUniq=   45 SFac= 1.00D+00 NAtFMM=   60 NAOKFM=F Big=F
 One-electron integrals computed using PRISM.
 NBasis=   704 RedAO= T  NBF=   704
 NBsUse=   691 1.00D-06 NBFU=   691
 Harris functional with IExCor=  402 diagonalized for initial guess.
 ExpMin= 3.00D-02 ExpMax= 5.61D+05 ExpMxC= 5.42D+03 IAcc=3 IRadAn=         5 AccDes= 0.00D+00
 HarFok:  IExCor=  402 AccDes= 0.00D+00 IRadAn=         5 IDoV= 1
 ScaDFX=  1.000000  1.000000  1.000000  1.000000
 FoFCou: FMM=F IPFlag=           0 FMFlag=      100000 FMFlg1=           0
         NFxFlg=           0 DoJE=T BraDBF=F KetDBF=T FulRan=T
         Omega=  0.000000  0.000000  1.000000  0.000000  0.000000 ICntrl=     500 IOpCl=  0
         NMat0=    1 NMatS0=    1 NMatT0=    0 NMatD0=    1 NMtDS0=    0 NMtDT0=    0
         I1Cent=           4 NGrid=           0.
 Petite list used in FoFCou.
 Initial guess orbital symmetries:
       Occupied  (A) (A) (A) (A) (A) (A) (A) (A) (A) (A) (A) (A)
                 (A) (A) (A) (A) (A) (A) (A) (A) (A) (A) (A) (A)
                 (A) (A) (A) (A) (A) (A) (A) (A) (A) (A) (A) (A)
                 (A) (A) (A) (A) (A) (A) (A) (A) (A) (A) (A) (A)
                 (A) (A) (A) (A) (A) (A) (A) (A) (A) (A) (A) (A)
                 (A) (A) (A) (A) (A) (A) (A) (A) (A) (A) (A) (A)
                 (A) (A) (A) (A) (A) (A) (A) (A) (A) (A) (A) (A)
                 (A) (A) (A) (A) (A) (A) (A) (A) (A) (A) (A) (A)
                 (A) (A) (A) (A) (A) (A) (A) (A) (A) (A) (A) (A)
                 (A) (A) (A) (A) (A) (A) (A) (A) (A) (A) (A) (A)
                 (A) (A) (A) (A) (A) (A) (A) (A) (A) (A) (A) (A)
                 (A) (A) (A)
       Virtual   (A) (A) (A) (A) (A) (A) (A) (A) (A) (A) (A) (A)
                 (A) (A) (A) (A) (A) (A) (A) (A) (A) (A) (A) (A)
                 (A) (A) (A) (A) (A) (A) (A) (A) (A) (A) (A) (A)
                 (A) (A) (A) (A) (A) (A) (A) (A) (A) (A) (A) (A)
                 (A) (A) (A) (A) (A) (A) (A) (A) (A) (A) (A) (A)
                 (A) (A) (A) (A) (A) (A) (A) (A) (A) (A) (A) (A)
                 (A) (A) (A) (A) (A) (A) (A) (A) (A) (A) (A) (A)
                 (A) (A) (A) (A) (A) (A) (A) (A) (A) (A) (A) (A)
                 (A) (A) (A) (A) (A) (A) (A) (A) (A) (A) (A) (A)
                 (A) (A) (A) (A) (A) (A) (A) (A) (A) (A) (A) (A)
                 (A) (A) (A) (A) (A) (A) (A) (A) (A) (A) (A) (A)
                 (A) (A) (A) (A) (A) (A) (A) (A) (A) (A) (A) (A)
                 (A) (A) (A) (A) (A) (A) (A) (A) (A) (A) (A) (A)
                 (A) (A) (A) (A) (A) (A) (A) (A) (A) (A) (A) (A)
                 (A) (A) (A) (A) (A) (A) (A) (A) (A) (A) (A) (A)
                 (A) (A) (A) (A) (A) (A) (A) (A) (A) (A) (A) (A)
                 (A) (A) (A) (A) (A) (A) (A) (A) (A) (A) (A) (A)
                 (A) (A) (A) (A) (A) (A) (A) (A) (A) (A) (A) (A)
                 (A) (A) (A) (A) (A) (A) (A) (A) (A) (A) (A) (A)
                 (A) (A) (A) (A) (A) (A) (A) (A) (A) (A) (A) (A)
                 (A) (A) (A) (A) (A) (A) (A) (A) (A) (A) (A) (A)
                 (A) (A) (A) (A) (A) (A) (A) (A) (A) (A) (A) (A)
                 (A) (A) (A) (A) (A) (A) (A) (A) (A) (A) (A) (A)
                 (A) (A) (A) (A) (A) (A) (A) (A) (A) (A) (A) (A)
                 (A) (A) (A) (A) (A) (A) (A) (A) (A) (A) (A) (A)
                 (A) (A) (A) (A) (A) (A) (A) (A) (A) (A) (A) (A)
                 (A) (A) (A) (A) (A) (A) (A) (A) (A) (A) (A) (A)
                 (A) (A) (A) (A) (A) (A) (A) (A) (A) (A) (A) (A)
                 (A) (A) (A) (A) (A) (A) (A) (A) (A) (A) (A) (A)
                 (A) (A) (A) (A) (A) (A) (A) (A) (A) (A) (A) (A)
                 (A) (A) (A) (A) (A) (A) (A) (A) (A) (A) (A) (A)
                 (A) (A) (A) (A) (A) (A) (A) (A) (A) (A) (A) (A)
                 (A) (A) (A) (A) (A) (A) (A) (A) (A) (A) (A) (A)
                 (A) (A) (A) (A) (A) (A) (A) (A) (A) (A) (A) (A)
                 (A) (A) (A) (A) (A) (A) (A) (A) (A) (A) (A) (A)
                 (A) (A) (A) (A) (A) (A) (A) (A) (A) (A) (A) (A)
                 (A) (A) (A) (A) (A) (A) (A) (A) (A) (A) (A) (A)
                 (A) (A) (A) (A) (A) (A) (A) (A) (A) (A) (A) (A)
                 (A) (A) (A) (A) (A) (A) (A) (A) (A) (A) (A) (A)
                 (A) (A) (A) (A) (A) (A) (A) (A) (A) (A) (A) (A)
                 (A) (A) (A) (A) (A) (A) (A) (A) (A) (A) (A) (A)
                 (A) (A) (A) (A) (A) (A) (A) (A) (A) (A) (A) (A)
                 (A) (A) (A) (A) (A) (A) (A) (A) (A) (A) (A) (A)
                 (A) (A) (A) (A) (A) (A) (A) (A) (A) (A) (A) (A)
                 (A) (A) (A) (A) (A) (A) (A) (A) (A) (A) (A) (A)
                 (A) (A) (A) (A) (A) (A) (A) (A) (A) (A) (A) (A)
                 (A) (A) (A) (A)
 The electronic state of the initial guess is 1-A.
 Requested convergence on RMS density matrix=1.00D-08 within 128 cycles.
 Requested convergence on MAX density matrix=1.00D-06.
 Requested convergence on             energy=1.00D-06.
 No special actions if energy rises.
 EnCoef did     4 forward-backward iterations
 EnCoef did   100 forward-backward iterations
 EnCoef did   100 forward-backward iterations
 EnCoef did     2 forward-backward iterations
 EnCoef did     5 forward-backward iterations
 EnCoef did     3 forward-backward iterations
 EnCoef did    10 forward-backward iterations
 EnCoef did    12 forward-backward iterations
 EnCoef did   100 forward-backward iterations
 EnCoef did   100 forward-backward iterations
 EnCoef did   100 forward-backward iterations
 EnCoef did   100 forward-backward iterations
 EnCoef did   100 forward-backward iterations
 EnCoef did   100 forward-backward iterations
 EnCoef did   100 forward-backward iterations
 EnCoef did   100 forward-backward iterations
 EnCoef did   100 forward-backward iterations
 Restarting incremental Fock formation.
 EnCoef did   100 forward-backward iterations
 Matrix for removal  4 Erem= -4936.12253722500     Crem= 0.000D+00
 EnCoef did   100 forward-backward iterations
 Rare condition: small coef for last iteration:  0.276D-15
 Matrix for removal  3 Erem= -4938.70671915424     Crem= 0.000D+00
 EnCoef did   100 forward-backward iterations
 Rare condition: small coef for last iteration:  0.000D+00
 Matrix for removal  4 Erem= -4943.03155866866     Crem= 0.000D+00
 EnCoef did   100 forward-backward iterations
 Matrix for removal  2 Erem= -4943.40485386080     Crem= 0.000D+00
 EnCoef did   100 forward-backward iterations
 Rare condition: small coef for last iteration: -0.250D-15
 Matrix for removal  2 Erem= -4944.07711372771     Crem= 0.000D+00
 EnCoef did   100 forward-backward iterations
 Matrix for removal  1 Erem= -4945.35170982101     Crem= 0.000D+00
 EnCoef did   100 forward-backward iterations
 Matrix for removal  1 Erem= -4945.38450636775     Crem= 0.000D+00
 EnCoef did   100 forward-backward iterations
 Matrix for removal  5 Erem= -4945.47058927945     Crem= 0.000D+00
 EnCoef did   100 forward-backward iterations
 Rare condition: small coef for last iteration: -0.535D-15
 Matrix for removal  2 Erem= -4945.57219754696     Crem= 0.000D+00
 EnCoef did   100 forward-backward iterations
 Rare condition: small coef for last iteration:  0.000D+00
 Matrix for removal  5 Erem= -4946.36173804448     Crem= 0.000D+00
 EnCoef did   100 forward-backward iterations
 Matrix for removal  4 Erem= -4946.36173804448     Crem= 0.000D+00
 EnCoef did     2 forward-backward iterations
 Matrix for removal  1 Erem= -4946.48240477578     Crem= 0.000D+00
 EnCoef did     3 forward-backward iterations
 Matrix for removal  1 Erem= -4946.66577044341     Crem= 0.000D+00
 EnCoef did    71 forward-backward iterations
 Matrix for removal  2 Erem= -4946.89346093482     Crem= 0.000D+00
 EnCoef did   100 forward-backward iterations
 Matrix for removal  1 Erem= -4947.04676988237     Crem= 0.000D+00
 EnCoef did   100 forward-backward iterations
 Matrix for removal  1 Erem= -4947.33857111714     Crem= 0.000D+00
 Matrix for removal  1 Erem= -4947.40080563757     Crem= 0.000D+00
 EnCoef did   100 forward-backward iterations
 Matrix for removal  2 Erem= -4947.57389594435     Crem= 0.000D+00
 Matrix for removal  4 Erem= -4947.58717759298     Crem= 0.000D+00
 Matrix for removal  5 Erem= -4947.60391962972     Crem= 0.000D+00
 Restarting incremental Fock formation.
 Matrix for removal  4 Erem= -4947.61165523210     Crem= 0.000D+00
 Restarting incremental Fock formation.
 Restarting incremental Fock formation.
 Restarting incremental Fock formation.
 Restarting incremental Fock formation.
 >>>>>>>>>> Convergence criterion not met.
 SCF Done:  E(RB3LYP) =  -4947.73719252     A.U. after  129 cycles
             Convg  =    0.4670D-04             -V/T =  2.0030
 Convergence failure -- run terminated.
 Error termination via Lnk1e in /opt/gaussian/g09/l502.exe at Sun Dec 29 00:40:17 2013.
 Job cpu time:  0 days 18 hours 17 minutes 21.1 seconds.
 File lengths (MBytes):  RWF=    258 Int=      0 D2E=      0 Chk=      8 Scr=      1
