 Entering Gaussian System, Link 0=g09
 Initial command:
 /opt/gaussian/g09/l1.exe /panfs/panfs.cluster/home/shuo/Gau-11771.inp -scrdir=/panfs/panfs.cluster/home/shuo/
 Default is to use a total of  12 processors:
                               12 via shared-memory
                                1 via Linda
 Entering Link 1 = /opt/gaussian/g09/l1.exe PID=     11772.
  
 Copyright (c) 1988,1990,1992,1993,1995,1998,2003,2009,2011,
            Gaussian, Inc.  All Rights Reserved.
  
 This is part of the Gaussian(R) 09 program.  It is based on
 the Gaussian(R) 03 system (copyright 2003, Gaussian, Inc.),
 the Gaussian(R) 98 system (copyright 1998, Gaussian, Inc.),
 the Gaussian(R) 94 system (copyright 1995, Gaussian, Inc.),
 the Gaussian 92(TM) system (copyright 1992, Gaussian, Inc.),
 the Gaussian 90(TM) system (copyright 1990, Gaussian, Inc.),
 the Gaussian 88(TM) system (copyright 1988, Gaussian, Inc.),
 the Gaussian 86(TM) system (copyright 1986, Carnegie Mellon
 University), and the Gaussian 82(TM) system (copyright 1983,
 Carnegie Mellon University). Gaussian is a federally registered
 trademark of Gaussian, Inc.
  
 This software contains proprietary and confidential information,
 including trade secrets, belonging to Gaussian, Inc.
  
 This software is provided under written license and may be
 used, copied, transmitted, or stored only in accord with that
 written license.
  
 The following legend is applicable only to US Government
 contracts under FAR:
  
                    RESTRICTED RIGHTS LEGEND
  
 Use, reproduction and disclosure by the US Government is
 subject to restrictions as set forth in subparagraphs (a)
 and (c) of the Commercial Computer Software - Restricted
 Rights clause in FAR 52.227-19.
  
 Gaussian, Inc.
 340 Quinnipiac St., Bldg. 40, Wallingford CT 06492
  
  
 ---------------------------------------------------------------
 Warning -- This program may not be used in any manner that
 competes with the business of Gaussian, Inc. or will provide
 assistance to any competitor of Gaussian, Inc.  The licensee
 of this program is prohibited from giving any competitor of
 Gaussian, Inc. access to this program.  By using this program,
 the user acknowledges that Gaussian, Inc. is engaged in the
 business of creating and licensing software in the field of
 computational chemistry and represents and warrants to the
 licensee that it is not a competitor of Gaussian, Inc. and that
 it will not use this program in any manner prohibited above.
 ---------------------------------------------------------------
  

 Cite this work as:
 Gaussian 09, Revision C.01,
 M. J. Frisch, G. W. Trucks, H. B. Schlegel, G. E. Scuseria, 
 M. A. Robb, J. R. Cheeseman, G. Scalmani, V. Barone, B. Mennucci, 
 G. A. Petersson, H. Nakatsuji, M. Caricato, X. Li, H. P. Hratchian, 
 A. F. Izmaylov, J. Bloino, G. Zheng, J. L. Sonnenberg, M. Hada, 
 M. Ehara, K. Toyota, R. Fukuda, J. Hasegawa, M. Ishida, T. Nakajima, 
 Y. Honda, O. Kitao, H. Nakai, T. Vreven, J. A. Montgomery, Jr., 
 J. E. Peralta, F. Ogliaro, M. Bearpark, J. J. Heyd, E. Brothers, 
 K. N. Kudin, V. N. Staroverov, T. Keith, R. Kobayashi, J. Normand, 
 K. Raghavachari, A. Rendell, J. C. Burant, S. S. Iyengar, J. Tomasi, 
 M. Cossi, N. Rega, J. M. Millam, M. Klene, J. E. Knox, J. B. Cross, 
 V. Bakken, C. Adamo, J. Jaramillo, R. Gomperts, R. E. Stratmann, 
 O. Yazyev, A. J. Austin, R. Cammi, C. Pomelli, J. W. Ochterski, 
 R. L. Martin, K. Morokuma, V. G. Zakrzewski, G. A. Voth, 
 P. Salvador, J. J. Dannenberg, S. Dapprich, A. D. Daniels, 
 O. Farkas, J. B. Foresman, J. V. Ortiz, J. Cioslowski, 
 and D. J. Fox, Gaussian, Inc., Wallingford CT, 2010.
 
 ******************************************
 Gaussian 09:  EM64L-G09RevC.01 23-Sep-2011
                29-Dec-2013 
 ******************************************
 %chk=50_C20H10N4SSe2Si.chk
 %NProcShared=12
 Will use up to   12 processors via shared memory.
 %Mem=8000MB
 Default route:  MaxDisk=100GB
 --------------------------------------------
 #B3LYP/6-31++G(d,p) opt scf=direct freq test
 --------------------------------------------
 1/14=-1,18=20,19=15,26=3,38=1/1,3;
 2/9=110,12=2,17=6,18=5,40=1/2;
 3/5=1,6=6,7=1111,11=2,16=1,25=1,30=1,71=1,74=-5/1,2,3;
 4//1;
 5/5=2,38=5/2;
 6/7=2,8=2,9=2,10=2,28=1/1;
 7//1,2,3,16;
 1/14=-1,18=20,19=15/3(2);
 2/9=110/2;
 99//99;
 2/9=110/2;
 3/5=1,6=6,7=1111,11=2,16=1,25=1,30=1,71=1,74=-5/1,2,3;
 4/5=5,16=3/1;
 5/5=2,38=5/2;
 7//1,2,3,16;
 1/14=-1,18=20,19=15/3(-5);
 2/9=110/2;
 6/7=2,8=2,9=2,10=2,19=2,28=1/1;
 99/9=1/99;
 ----------------------------------------------------------------------
 Geom opt of No.50 candidate from the CEPDB database with SMILE code of
  c1cc2c(scc2o1)-c1cc2c3nsnc3c3c4[Se]ccc4[Se]c3c2c2nsnc12, HPC, 2013122
 7, Shuo Dai, Gaussian09
 ----------------------------------------------------------------------
 Charge =  0 Multiplicity = 1
 Symbolic Z-Matrix:
 C                    -2.081     0.046    -0.001 
 C                    -1.331    -1.086    -0.001 
 C                    -0.004    -0.694     0.005 
 C                     1.336    -1.106    -0.001 
 S                     2.1      -0.047    -0.001 
 C                     1.295     1.1       0. 
 C                    -0.013     0.696     0. 
 O                    -1.299     1.089     0. 
 C                     1.79539  -2.47497  -0.0063 
 C                     3.11141  -2.70857  -0.02473 
 C                     3.61148  -4.08709  -0.03231 
 C                     4.97448  -4.37514  -0.04641 
 N                     5.84608  -3.41231  -0.04881 
 S                     7.41385  -3.74991  -0.06507 
 N                     6.66205  -5.95949  -0.08038 
 C                     5.39195  -5.68915  -0.05781 
 C                     4.46923  -6.72637  -0.04543 
 C                     4.94363  -8.13037  -0.05266 
 Se                    5.17036  -9.35657   0.86261 
 C                     5.06205  -10.54869  -0.05844 
 C                     5.16743  -10.18912  -1.3085 
 C                     5.36363  -8.69519  -1.43008 
 Se                    1.85068  -7.90984  -0.0095 
 C                     3.11626  -6.46344  -0.02648 
 C                     2.6714   -5.143    -0.01969 
 C                     1.24428  -4.80558   0.00133 
 N                     0.10558  -5.59838   0.01783 
 S                    -1.03091  -4.6718    0.03406 
 N                    -0.50747  -3.41362   0.02634 
 C                     0.85763  -3.48655   0.0073 
 H                    -3.11256   0.07603  -0.00169 
 H                    -1.6841   -2.05571  -0.00476 
 H                     1.62906   2.07644   0.00063 
 H                     3.77557  -1.91873  -0.03362 
 H                     4.6637   -7.52902   0.78693 
 H                     4.92289  -11.52065   0.25928 
 H                     5.12271  -10.83918  -2.10878 
 H                     6.09376  -8.46083  -2.17633 
 

 GradGradGradGradGradGradGradGradGradGradGradGradGradGradGradGradGradGrad
 Berny optimization.
 Initialization pass.
                           ----------------------------
                           !    Initial Parameters    !
                           ! (Angstroms and Degrees)  !
 --------------------------                            --------------------------
 ! Name  Definition              Value          Derivative Info.                !
 --------------------------------------------------------------------------------
 ! R1    R(1,2)                  1.3579         estimate D2E/DX2                !
 ! R2    R(1,8)                  1.3036         estimate D2E/DX2                !
 ! R3    R(1,31)                 1.032          estimate D2E/DX2                !
 ! R4    R(2,3)                  1.3837         estimate D2E/DX2                !
 ! R5    R(2,32)                 1.032          estimate D2E/DX2                !
 ! R6    R(3,4)                  1.4019         estimate D2E/DX2                !
 ! R7    R(3,7)                  1.39           estimate D2E/DX2                !
 ! R8    R(4,5)                  1.3058         estimate D2E/DX2                !
 ! R9    R(4,9)                  1.444          estimate D2E/DX2                !
 ! R10   R(5,6)                  1.4013         estimate D2E/DX2                !
 ! R11   R(6,7)                  1.369          estimate D2E/DX2                !
 ! R12   R(6,33)                 1.032          estimate D2E/DX2                !
 ! R13   R(7,8)                  1.3447         estimate D2E/DX2                !
 ! R14   R(9,10)                 1.3367         estimate D2E/DX2                !
 ! R15   R(9,30)                 1.3794         estimate D2E/DX2                !
 ! R16   R(10,11)                1.4664         estimate D2E/DX2                !
 ! R17   R(10,34)                1.032          estimate D2E/DX2                !
 ! R18   R(11,12)                1.3932         estimate D2E/DX2                !
 ! R19   R(11,25)                1.4138         estimate D2E/DX2                !
 ! R20   R(12,13)                1.2987         estimate D2E/DX2                !
 ! R21   R(12,16)                1.3788         estimate D2E/DX2                !
 ! R22   R(13,14)                1.6038         estimate D2E/DX2                !
 ! R23   R(15,16)                1.2987         estimate D2E/DX2                !
 ! R24   R(16,17)                1.3883         estimate D2E/DX2                !
 ! R25   R(17,18)                1.482          estimate D2E/DX2                !
 ! R26   R(17,24)                1.3784         estimate D2E/DX2                !
 ! R27   R(17,35)                1.1726         estimate D2E/DX2                !
 ! R28   R(18,19)                1.5468         estimate D2E/DX2                !
 ! R29   R(18,22)                1.5468         estimate D2E/DX2                !
 ! R30   R(18,35)                1.07           estimate D2E/DX2                !
 ! R31   R(19,20)                1.5104         estimate D2E/DX2                !
 ! R32   R(19,35)                1.898          estimate D2E/DX2                !
 ! R33   R(20,21)                1.305          estimate D2E/DX2                !
 ! R34   R(20,36)                1.032          estimate D2E/DX2                !
 ! R35   R(21,22)                1.5117         estimate D2E/DX2                !
 ! R36   R(21,37)                1.032          estimate D2E/DX2                !
 ! R37   R(22,38)                1.07           estimate D2E/DX2                !
 ! R38   R(23,24)                1.922          estimate D2E/DX2                !
 ! R39   R(24,25)                1.3934         estimate D2E/DX2                !
 ! R40   R(25,26)                1.4666         estimate D2E/DX2                !
 ! R41   R(26,27)                1.3876         estimate D2E/DX2                !
 ! R42   R(26,30)                1.3745         estimate D2E/DX2                !
 ! R43   R(27,28)                1.4664         estimate D2E/DX2                !
 ! R44   R(28,29)                1.3627         estimate D2E/DX2                !
 ! R45   R(29,30)                1.3672         estimate D2E/DX2                !
 ! A1    A(2,1,8)              109.6127         estimate D2E/DX2                !
 ! A2    A(2,1,31)             125.1937         estimate D2E/DX2                !
 ! A3    A(8,1,31)             125.1936         estimate D2E/DX2                !
 ! A4    A(1,2,3)              107.0688         estimate D2E/DX2                !
 ! A5    A(1,2,32)             126.4654         estimate D2E/DX2                !
 ! A6    A(3,2,32)             126.4658         estimate D2E/DX2                !
 ! A7    A(2,3,4)              146.4485         estimate D2E/DX2                !
 ! A8    A(2,3,7)              106.0851         estimate D2E/DX2                !
 ! A9    A(4,3,7)              107.4605         estimate D2E/DX2                !
 ! A10   A(3,4,5)              108.7171         estimate D2E/DX2                !
 ! A11   A(3,4,9)              125.6416         estimate D2E/DX2                !
 ! A12   A(5,4,9)              125.6413         estimate D2E/DX2                !
 ! A13   A(4,5,6)              109.1296         estimate D2E/DX2                !
 ! A14   A(5,6,7)              107.8981         estimate D2E/DX2                !
 ! A15   A(5,6,33)             126.0508         estimate D2E/DX2                !
 ! A16   A(7,6,33)             126.0511         estimate D2E/DX2                !
 ! A17   A(3,7,6)              106.7932         estimate D2E/DX2                !
 ! A18   A(3,7,8)              107.3639         estimate D2E/DX2                !
 ! A19   A(6,7,8)              145.8426         estimate D2E/DX2                !
 ! A20   A(1,8,7)              109.868          estimate D2E/DX2                !
 ! A21   A(4,9,10)             118.6159         estimate D2E/DX2                !
 ! A22   A(4,9,30)             118.6142         estimate D2E/DX2                !
 ! A23   A(10,9,30)            122.7698         estimate D2E/DX2                !
 ! A24   A(9,10,11)            120.0052         estimate D2E/DX2                !
 ! A25   A(9,10,34)            119.9978         estimate D2E/DX2                !
 ! A26   A(11,10,34)           119.9969         estimate D2E/DX2                !
 ! A27   A(10,11,12)           121.8729         estimate D2E/DX2                !
 ! A28   A(10,11,25)           118.3779         estimate D2E/DX2                !
 ! A29   A(12,11,25)           119.7487         estimate D2E/DX2                !
 ! A30   A(11,12,13)           120.2193         estimate D2E/DX2                !
 ! A31   A(11,12,16)           119.5612         estimate D2E/DX2                !
 ! A32   A(13,12,16)           120.2195         estimate D2E/DX2                !
 ! A33   A(12,13,14)           120.0            estimate D2E/DX2                !
 ! A34   A(12,16,15)           119.6449         estimate D2E/DX2                !
 ! A35   A(12,16,17)           120.7106         estimate D2E/DX2                !
 ! A36   A(15,16,17)           119.6445         estimate D2E/DX2                !
 ! A37   A(16,17,18)           119.6692         estimate D2E/DX2                !
 ! A38   A(16,17,24)           120.6627         estimate D2E/DX2                !
 ! A39   A(16,17,35)           114.0491         estimate D2E/DX2                !
 ! A40   A(18,17,24)           119.6682         estimate D2E/DX2                !
 ! A41   A(24,17,35)           106.4754         estimate D2E/DX2                !
 ! A42   A(17,18,19)           142.6579         estimate D2E/DX2                !
 ! A43   A(17,18,22)           115.9246         estimate D2E/DX2                !
 ! A44   A(19,18,22)           101.3992         estimate D2E/DX2                !
 ! A45   A(18,19,20)           104.7345         estimate D2E/DX2                !
 ! A46   A(20,19,35)           135.7694         estimate D2E/DX2                !
 ! A47   A(19,20,21)           111.154          estimate D2E/DX2                !
 ! A48   A(19,20,36)           124.4231         estimate D2E/DX2                !
 ! A49   A(21,20,36)           124.4229         estimate D2E/DX2                !
 ! A50   A(20,21,22)           111.0893         estimate D2E/DX2                !
 ! A51   A(20,21,37)           124.4548         estimate D2E/DX2                !
 ! A52   A(22,21,37)           124.4559         estimate D2E/DX2                !
 ! A53   A(18,22,21)           104.7145         estimate D2E/DX2                !
 ! A54   A(18,22,38)           136.5806         estimate D2E/DX2                !
 ! A55   A(21,22,38)           111.1688         estimate D2E/DX2                !
 ! A56   A(17,24,23)           120.1916         estimate D2E/DX2                !
 ! A57   A(17,24,25)           119.6173         estimate D2E/DX2                !
 ! A58   A(23,24,25)           120.1912         estimate D2E/DX2                !
 ! A59   A(11,25,24)           119.6978         estimate D2E/DX2                !
 ! A60   A(11,25,26)           118.3803         estimate D2E/DX2                !
 ! A61   A(24,25,26)           121.9218         estimate D2E/DX2                !
 ! A62   A(25,26,27)           131.8549         estimate D2E/DX2                !
 ! A63   A(25,26,30)           119.6404         estimate D2E/DX2                !
 ! A64   A(27,26,30)           108.5047         estimate D2E/DX2                !
 ! A65   A(26,27,28)           105.9684         estimate D2E/DX2                !
 ! A66   A(27,28,29)           106.5965         estimate D2E/DX2                !
 ! A67   A(28,29,30)           109.5332         estimate D2E/DX2                !
 ! A68   A(9,30,26)            120.8263         estimate D2E/DX2                !
 ! A69   A(9,30,29)            129.7765         estimate D2E/DX2                !
 ! A70   A(26,30,29)           109.3972         estimate D2E/DX2                !
 ! A71   A(17,35,19)           137.0293         estimate D2E/DX2                !
 ! A72   L(22,18,35,14,-1)     169.4702         estimate D2E/DX2                !
 ! A73   L(22,18,35,14,-2)     172.3417         estimate D2E/DX2                !
 ! D1    D(8,1,2,3)              0.2132         estimate D2E/DX2                !
 ! D2    D(8,1,2,32)          -179.7871         estimate D2E/DX2                !
 ! D3    D(31,1,2,3)          -179.787          estimate D2E/DX2                !
 ! D4    D(31,1,2,32)            0.2127         estimate D2E/DX2                !
 ! D5    D(2,1,8,7)              0.0315         estimate D2E/DX2                !
 ! D6    D(31,1,8,7)          -179.9682         estimate D2E/DX2                !
 ! D7    D(1,2,3,4)           -179.2579         estimate D2E/DX2                !
 ! D8    D(1,2,3,7)             -0.3624         estimate D2E/DX2                !
 ! D9    D(32,2,3,4)             0.7424         estimate D2E/DX2                !
 ! D10   D(32,2,3,7)           179.6379         estimate D2E/DX2                !
 ! D11   D(2,3,4,5)            179.2638         estimate D2E/DX2                !
 ! D12   D(2,3,4,9)             -0.7364         estimate D2E/DX2                !
 ! D13   D(7,3,4,5)              0.3763         estimate D2E/DX2                !
 ! D14   D(7,3,4,9)           -179.6239         estimate D2E/DX2                !
 ! D15   D(2,3,7,6)           -179.7442         estimate D2E/DX2                !
 ! D16   D(2,3,7,8)              0.3824         estimate D2E/DX2                !
 ! D17   D(4,3,7,6)             -0.3841         estimate D2E/DX2                !
 ! D18   D(4,3,7,8)            179.7426         estimate D2E/DX2                !
 ! D19   D(3,4,5,6)             -0.2156         estimate D2E/DX2                !
 ! D20   D(9,4,5,6)            179.7845         estimate D2E/DX2                !
 ! D21   D(3,4,9,10)           179.3658         estimate D2E/DX2                !
 ! D22   D(3,4,9,30)            -0.6073         estimate D2E/DX2                !
 ! D23   D(5,4,9,10)            -0.6344         estimate D2E/DX2                !
 ! D24   D(5,4,9,30)           179.3926         estimate D2E/DX2                !
 ! D25   D(4,5,6,7)             -0.0274         estimate D2E/DX2                !
 ! D26   D(4,5,6,33)           179.9723         estimate D2E/DX2                !
 ! D27   D(5,6,7,3)              0.2582         estimate D2E/DX2                !
 ! D28   D(5,6,7,8)           -179.957          estimate D2E/DX2                !
 ! D29   D(33,6,7,3)          -179.7415         estimate D2E/DX2                !
 ! D30   D(33,6,7,8)             0.0433         estimate D2E/DX2                !
 ! D31   D(3,7,8,1)             -0.2627         estimate D2E/DX2                !
 ! D32   D(6,7,8,1)            179.9533         estimate D2E/DX2                !
 ! D33   D(4,9,10,11)         -179.9227         estimate D2E/DX2                !
 ! D34   D(4,9,10,34)            0.0776         estimate D2E/DX2                !
 ! D35   D(30,9,10,11)           0.0491         estimate D2E/DX2                !
 ! D36   D(30,9,10,34)        -179.9506         estimate D2E/DX2                !
 ! D37   D(4,9,30,26)          179.9208         estimate D2E/DX2                !
 ! D38   D(4,9,30,29)           -0.0203         estimate D2E/DX2                !
 ! D39   D(10,9,30,26)          -0.051          estimate D2E/DX2                !
 ! D40   D(10,9,30,29)        -179.9921         estimate D2E/DX2                !
 ! D41   D(9,10,11,12)        -179.7575         estimate D2E/DX2                !
 ! D42   D(9,10,11,25)          -0.0001         estimate D2E/DX2                !
 ! D43   D(34,10,11,12)          0.2422         estimate D2E/DX2                !
 ! D44   D(34,10,11,25)        179.9996         estimate D2E/DX2                !
 ! D45   D(10,11,12,13)          0.2271         estimate D2E/DX2                !
 ! D46   D(10,11,12,16)       -179.7724         estimate D2E/DX2                !
 ! D47   D(25,11,12,13)       -179.5271         estimate D2E/DX2                !
 ! D48   D(25,11,12,16)          0.4734         estimate D2E/DX2                !
 ! D49   D(10,11,25,24)        179.9998         estimate D2E/DX2                !
 ! D50   D(10,11,25,26)         -0.0442         estimate D2E/DX2                !
 ! D51   D(12,11,25,24)         -0.2375         estimate D2E/DX2                !
 ! D52   D(12,11,25,26)        179.7185         estimate D2E/DX2                !
 ! D53   D(11,12,13,14)       -179.9998         estimate D2E/DX2                !
 ! D54   D(16,12,13,14)         -0.0003         estimate D2E/DX2                !
 ! D55   D(11,12,16,15)        179.5219         estimate D2E/DX2                !
 ! D56   D(11,12,16,17)         -0.4778         estimate D2E/DX2                !
 ! D57   D(13,12,16,15)         -0.4776         estimate D2E/DX2                !
 ! D58   D(13,12,16,17)        179.5227         estimate D2E/DX2                !
 ! D59   D(12,16,17,18)       -179.7582         estimate D2E/DX2                !
 ! D60   D(12,16,17,24)          0.2417         estimate D2E/DX2                !
 ! D61   D(12,16,17,35)       -128.4857         estimate D2E/DX2                !
 ! D62   D(15,16,17,18)          0.2422         estimate D2E/DX2                !
 ! D63   D(15,16,17,24)       -179.7579         estimate D2E/DX2                !
 ! D64   D(15,16,17,35)         51.5147         estimate D2E/DX2                !
 ! D65   D(16,17,18,19)        101.6659         estimate D2E/DX2                !
 ! D66   D(16,17,18,22)        -80.275          estimate D2E/DX2                !
 ! D67   D(24,17,18,19)        -78.334          estimate D2E/DX2                !
 ! D68   D(24,17,18,22)         99.725          estimate D2E/DX2                !
 ! D69   D(16,17,24,23)       -179.9996         estimate D2E/DX2                !
 ! D70   D(16,17,24,25)         -0.0004         estimate D2E/DX2                !
 ! D71   D(18,17,24,23)          0.0003         estimate D2E/DX2                !
 ! D72   D(18,17,24,25)        179.9996         estimate D2E/DX2                !
 ! D73   D(35,17,24,23)        -47.9801         estimate D2E/DX2                !
 ! D74   D(35,17,24,25)        132.0192         estimate D2E/DX2                !
 ! D75   D(16,17,35,19)       -113.0922         estimate D2E/DX2                !
 ! D76   D(24,17,35,19)        111.318          estimate D2E/DX2                !
 ! D77   D(17,18,19,20)        153.6252         estimate D2E/DX2                !
 ! D78   D(22,18,19,20)        -24.5941         estimate D2E/DX2                !
 ! D79   D(17,18,22,21)       -154.2165         estimate D2E/DX2                !
 ! D80   D(17,18,22,38)         60.6261         estimate D2E/DX2                !
 ! D81   D(19,18,22,21)         24.5826         estimate D2E/DX2                !
 ! D82   D(19,18,22,38)       -120.5748         estimate D2E/DX2                !
 ! D83   D(18,19,20,21)         16.4201         estimate D2E/DX2                !
 ! D84   D(18,19,20,36)       -163.5803         estimate D2E/DX2                !
 ! D85   D(35,19,20,21)         33.8102         estimate D2E/DX2                !
 ! D86   D(35,19,20,36)       -146.1901         estimate D2E/DX2                !
 ! D87   D(20,19,35,17)        -25.6017         estimate D2E/DX2                !
 ! D88   D(19,20,21,22)         -0.0099         estimate D2E/DX2                !
 ! D89   D(19,20,21,37)        179.9895         estimate D2E/DX2                !
 ! D90   D(36,20,21,22)        179.9904         estimate D2E/DX2                !
 ! D91   D(36,20,21,37)         -0.0102         estimate D2E/DX2                !
 ! D92   D(20,21,22,18)        -16.4026         estimate D2E/DX2                !
 ! D93   D(20,21,22,38)        138.693          estimate D2E/DX2                !
 ! D94   D(37,21,22,18)        163.598          estimate D2E/DX2                !
 ! D95   D(37,21,22,38)        -41.3064         estimate D2E/DX2                !
 ! D96   D(17,24,25,11)          0.0007         estimate D2E/DX2                !
 ! D97   D(17,24,25,26)       -179.9538         estimate D2E/DX2                !
 ! D98   D(23,24,25,11)        179.9999         estimate D2E/DX2                !
 ! D99   D(23,24,25,26)          0.0455         estimate D2E/DX2                !
 ! D100  D(11,25,26,27)       -179.9586         estimate D2E/DX2                !
 ! D101  D(11,25,26,30)          0.0433         estimate D2E/DX2                !
 ! D102  D(24,25,26,27)         -0.0036         estimate D2E/DX2                !
 ! D103  D(24,25,26,30)        179.9983         estimate D2E/DX2                !
 ! D104  D(25,26,27,28)       -179.9725         estimate D2E/DX2                !
 ! D105  D(30,26,27,28)          0.0258         estimate D2E/DX2                !
 ! D106  D(25,26,30,9)           0.0031         estimate D2E/DX2                !
 ! D107  D(25,26,30,29)        179.9551         estimate D2E/DX2                !
 ! D108  D(27,26,30,9)        -179.9954         estimate D2E/DX2                !
 ! D109  D(27,26,30,29)         -0.0434         estimate D2E/DX2                !
 ! D110  D(26,27,28,29)          0.0005         estimate D2E/DX2                !
 ! D111  D(27,28,29,30)         -0.0269         estimate D2E/DX2                !
 ! D112  D(28,29,30,9)         179.9906         estimate D2E/DX2                !
 ! D113  D(28,29,30,26)          0.0442         estimate D2E/DX2                !
 --------------------------------------------------------------------------------
 Trust Radius=3.00D-01 FncErr=1.00D-07 GrdErr=1.00D-06
 Number of steps in this run=    228 maximum allowed number of steps=    228.
 GradGradGradGradGradGradGradGradGradGradGradGradGradGradGradGradGradGrad

                          Input orientation:                          
 ---------------------------------------------------------------------
 Center     Atomic      Atomic             Coordinates (Angstroms)
 Number     Number       Type             X           Y           Z
 ---------------------------------------------------------------------
      1          6           0       -2.081000    0.046000   -0.001000
      2          6           0       -1.331000   -1.086000   -0.001000
      3          6           0       -0.004000   -0.694000    0.005000
      4          6           0        1.336000   -1.106000   -0.001000
      5         16           0        2.100000   -0.047000   -0.001000
      6          6           0        1.295000    1.100000    0.000000
      7          6           0       -0.013000    0.696000    0.000000
      8          8           0       -1.299000    1.089000    0.000000
      9          6           0        1.795390   -2.474970   -0.006300
     10          6           0        3.111410   -2.708570   -0.024730
     11          6           0        3.611480   -4.087090   -0.032310
     12          6           0        4.974480   -4.375140   -0.046410
     13          7           0        5.846080   -3.412310   -0.048810
     14         16           0        7.413850   -3.749910   -0.065070
     15          7           0        6.662050   -5.959490   -0.080380
     16          6           0        5.391950   -5.689150   -0.057810
     17          6           0        4.469230   -6.726370   -0.045430
     18          6           0        4.943630   -8.130370   -0.052660
     19         34           0        5.170360   -9.356570    0.862610
     20          6           0        5.062050  -10.548690   -0.058440
     21          6           0        5.167430  -10.189120   -1.308500
     22          6           0        5.363630   -8.695190   -1.430080
     23         34           0        1.850680   -7.909840   -0.009500
     24          6           0        3.116260   -6.463440   -0.026480
     25          6           0        2.671400   -5.143000   -0.019690
     26          6           0        1.244280   -4.805580    0.001330
     27          7           0        0.105580   -5.598380    0.017830
     28         16           0       -1.030910   -4.671800    0.034060
     29          7           0       -0.507470   -3.413620    0.026340
     30          6           0        0.857630   -3.486550    0.007300
     31          1           0       -3.112560    0.076030   -0.001690
     32          1           0       -1.684100   -2.055710   -0.004760
     33          1           0        1.629060    2.076440    0.000630
     34          1           0        3.775570   -1.918730   -0.033620
     35          1           0        4.663700   -7.529020    0.786930
     36          1           0        4.922890  -11.520650    0.259280
     37          1           0        5.122710  -10.839180   -2.108780
     38          1           0        6.093760   -8.460830   -2.176330
 ---------------------------------------------------------------------
                    Distance matrix (angstroms):
                    1          2          3          4          5
     1  C    0.000000
     2  C    1.357912   0.000000
     3  C    2.204896   1.383701   0.000000
     4  C    3.605966   2.667075   1.401920   0.000000
     5  S    4.182034   3.584868   2.201241   1.305824   0.000000
     6  C    3.536707   3.416793   2.214918   2.206381   1.401298
     7  C    2.167747   2.216450   1.390038   2.251001   2.239826
     8  O    1.303600   2.175236   2.203665   3.429468   3.583811
     9  C    4.624037   3.421050   2.531756   1.444004   2.447009
    10  C    5.877869   4.729514   3.710142   2.391835   2.847362
    11  C    7.034752   5.782355   4.958442   3.750425   4.313685
    12  C    8.326364   7.111932   6.191825   4.891613   5.195911
    13  N    8.648745   7.544831   6.451011   5.065785   5.035942
    14  S   10.225713   9.141823   8.022967   6.628320   6.477086
    15  N   10.607221   9.361947   8.495228   7.206211   7.468342
    16  C    9.420199   8.148023   7.353349   6.120394   6.532535
    17  C    9.421915   8.090638   7.510114   6.434879   7.087257
    18  C   10.779662   9.433811   8.932075   7.896799   8.569117
    19  Se  11.905308  10.555370  10.126678   9.138930   9.840784
    20  C   12.777868  11.420021  11.080785  10.151411  10.911578
    21  C   12.609797  11.260814  10.891569   9.944470  10.676202
    22  C   11.570358  10.235239   9.741147   8.709758   9.353328
    23  Se   8.874321   7.529140   7.450396   6.823284   7.866796
    24  C    8.329764   6.978226   6.559226   5.645541   6.496471
    25  C    7.036432   5.699018   5.191529   4.252177   5.127969
    26  C    5.881779   4.524085   4.296895   3.700718   4.834909
    27  N    6.053141   4.735577   4.905621   4.657871   5.898804
    28  S    4.833379   3.598506   4.108319   4.280003   5.585034
    29  N    3.800752   2.469163   2.765912   2.953682   4.258377
    30  C    4.595054   3.248509   2.922456   2.428153   3.657056
    31  H    1.031997   2.127033   3.202520   4.602921   5.214012
    32  H    2.138862   1.032004   2.162657   3.165907   4.284197
    33  H    4.229330   4.331626   3.215936   3.195905   2.175037
    34  H    6.177430   5.174124   3.973236   2.571594   2.512364
    35  H   10.173138   8.835710   8.313624   7.276648   7.948208
    36  H   13.524408  12.168024  11.897700  11.018097  11.818676
    37  H   13.222077  11.883502  11.561829  10.654422  11.403976
    38  H   11.996871  10.688650  10.112592   9.025623   9.564241
                    6          7          8          9         10
     6  C    0.000000
     7  C    1.368970   0.000000
     8  O    2.594023   1.344710   0.000000
     9  C    3.609826   3.650392   4.719870   0.000000
    10  C    4.219616   4.621001   5.820126   1.336719   0.000000
    11  C    5.680935   6.001321   7.134828   2.428537   1.466440
    12  C    6.596809   7.112916   8.319587   3.703899   2.499791
    13  N    6.409029   7.156075   8.444900   4.157945   2.823871
    14  S    7.808085   8.656122   9.966596   5.761599   4.426851
    15  N    8.868376   9.426468  10.633249   5.985962   4.814418
    16  C    7.929748   8.365821   9.524467   4.823780   3.753107
    17  C    8.445701   8.670872   9.713627   5.022485   4.241087
    18  C    9.925472  10.123031  11.134181   6.472798   5.723087
    19  Se  11.184917  11.343081  12.316925   7.713744   7.015879
    20  C   12.242796  12.337042  13.262813   8.709692   8.079209
    21  C   12.006337  12.125793  13.066097   8.519066   7.863454
    22  C   10.702552  10.915481  11.923344   7.310993   6.548826
    23  Se   9.026964   8.805332   9.534133   5.435152   5.351904
    24  C    7.779673   7.813485   8.748404   4.201547   3.754874
    25  C    6.392958   6.426532   7.389336   2.808195   2.473880
    26  C    5.905798   5.643415   6.419840   2.394895   2.807900
    27  N    6.803185   6.295522   6.833316   3.551300   4.169871
    28  S    6.222917   5.463568   5.767135   3.579897   4.584380
    29  N    4.860284   4.139344   4.571739   2.487025   3.687275
    30  C    4.607362   4.272210   5.058336   1.379447   2.384492
    31  H    4.524942   3.160955   2.077285   5.531329   6.818528
    32  H    4.339766   3.219395   3.168205   3.504659   4.839787
    33  H    1.032004   2.145222   3.090077   4.554453   5.009424
    34  H    3.907312   4.603391   5.899053   2.057003   1.032005
    35  H    9.296633   9.494300  10.509202   5.865137   5.128853
    36  H   13.134292  13.178648  14.063514   9.574765   9.000826
    37  H   12.713864  12.801674  13.710098   9.243997   8.631072
    38  H   10.916684  11.219468  12.271453   7.682157   6.827319
                   11         12         13         14         15
    11  C    0.000000
    12  C    1.393176   0.000000
    13  N    2.334317   1.298743   0.000000
    14  S    3.817431   2.518290   1.603790   0.000000
    15  N    3.579689   2.314997   2.674870   2.334027   0.000000
    16  C    2.395270   1.378780   2.321705   2.801568   1.298748
    17  C    2.775195   2.404904   3.588693   4.186942   2.323314
    18  C    4.257129   3.755362   4.803595   5.028973   2.768837
    19  Se   5.567621   5.067478   6.051571   6.109703   3.828122
    20  C    6.622470   6.174183   7.179326   7.194054   4.860169
    21  C    6.425295   5.952517   6.926221   6.932240   4.651015
    22  C    5.124293   4.552891   5.481741   5.524713   3.315364
    23  Se   4.208842   4.717371   6.016024   6.946723   5.192126
    24  C    2.427409   2.795420   4.094119   5.082717   3.581829
    25  C    1.413809   2.427859   3.615899   4.943035   4.073773
    26  C    2.474065   3.755256   4.808355   6.259588   5.539893
    27  N    3.818095   5.020620   6.143019   7.538868   6.567141
    28  S    4.679538   6.013251   6.991865   8.495509   7.800825
    29  N    4.174057   5.566111   6.353995   7.928982   7.608867
    30  C    2.818849   4.211998   4.989318   6.561906   6.309866
    31  H    7.908554   9.231204   9.613946  11.200319  11.488111
    32  H    5.671898   7.051112   7.651530   9.254547   9.214306
    33  H    6.474579   7.267526   6.921855   8.210631   9.482285
    34  H    2.174560   2.733404   2.553042   4.073241   4.966054
    35  H    3.691233   3.276889   4.363919   4.750884   2.684968
    36  H    7.553981   7.152232   8.166540   8.166669   5.836655
    37  H    7.224006   6.786690   7.741133   7.725531   5.504121
    38  H    5.467004   4.741541   5.484090   5.328492   3.312501
                   16         17         18         19         20
    16  C    0.000000
    17  C    1.388305   0.000000
    18  C    2.482050   1.482000   0.000000
    19  Se   3.787644   2.869507   1.546833   0.000000
    20  C    4.870725   3.868040   2.421225   1.510369   0.000000
    21  C    4.675935   3.751462   2.421915   2.325267   1.305008
    22  C    3.304573   2.567773   1.546838   2.393993   2.325470
    23  Se   4.180238   2.873795   3.101102   3.724766   4.156780
    24  C    2.404012   1.378412   2.473585   3.657869   4.525084
    25  C    2.775090   2.395812   3.753464   4.977693   5.910854
    26  C    4.241151   3.753921   4.974167   6.071855   6.896539
    27  N    5.287690   4.507528   5.461014   6.363147   7.005568
    28  S    6.503581   5.871892   6.903938   7.815965   8.465846
    29  N    6.323628   5.978880   7.208916   8.261704   9.051849
    30  C    5.041403   4.852099   6.185795   7.334053   8.219203
    31  H   10.274587  10.186172  11.499991  12.582834  13.405676
    32  H    7.954570   7.725295   8.990584  10.051791  10.846388
    33  H    8.629435   9.249765  10.731644  11.999897  13.083685
    34  H    4.102357   4.857438   6.320538   7.620376   8.725357
    35  H    2.151524   1.172557   1.069997   1.897991   3.160971
    36  H    5.858921   4.825327   3.404664   2.260197   1.031997
    37  H    5.549935   4.647543   3.405488   3.321078   2.071704
    38  H    3.558493   3.191893   2.437617   3.300026   3.147863
                   21         22         23         24         25
    21  C    0.000000
    22  C    1.511656   0.000000
    23  Se   4.228871   3.869837   0.000000
    24  C    4.442023   3.464314   1.921992   0.000000
    25  C    5.775338   4.674971   2.886016   1.393380   0.000000
    26  C    6.788907   5.843547   3.162952   2.500716   1.466617
    27  N    6.961061   6.271664   2.896372   3.132808   2.606187
    28  S    8.406111   7.695552   4.334785   4.518037   3.732562
    29  N    8.938327   8.030315   5.077219   4.736624   3.619128
    30  C    8.076518   7.035626   4.533423   3.736900   2.456485
    31  H   13.252897  12.280896   9.402549   9.031250   7.790558
    32  H   10.714269   9.786967   6.838533   6.517055   5.338723
    33  H   12.832687  11.490081   9.988744   8.668451   7.294327
    34  H    8.483039   7.098764   6.292788   4.592290   3.408123
    35  H    3.423551   2.600959   2.948289   2.047356   3.211384
    36  H    2.071402   3.321357   4.748544   5.377820   6.769154
    37  H    1.032001   2.261718   4.867668   5.244894   6.543675
    38  H    2.144342   1.070002   4.796089   4.180542   5.231791
                   26         27         28         29         30
    26  C    0.000000
    27  N    1.387603   0.000000
    28  S    2.279355   1.466432   0.000000
    29  N    2.237589   2.269158   1.362742   0.000000
    30  C    1.374545   2.241766   2.229824   1.367179   0.000000
    31  H    6.543102   6.523476   5.184249   4.354875   5.334273
    32  H    4.017117   3.969128   2.696681   1.797038   2.916820
    33  H    6.892768   7.824586   7.253641   5.891195   5.616227
    34  H    3.839603   5.197239   5.539515   4.536819   3.312719
    35  H    4.441478   5.009525   6.415536   6.652519   5.606742
    36  H    7.660997   7.637935   9.077731   9.760482   9.007585
    37  H    7.476571   7.560426   8.971922   9.560157   8.759559
    38  H    6.451396   6.990440   8.366809   8.596646   7.545115
                   31         32         33         34         35
    31  H    0.000000
    32  H    2.566091   0.000000
    33  H    5.146320   5.296388   0.000000
    34  H    7.171222   5.461464   4.535423   0.000000
    35  H   10.905454   8.418935  10.104067   5.739114   0.000000
    36  H   14.110973  11.545870  13.992751   9.674658   4.034688
    37  H   13.834786  11.309682  13.545052   9.257187   4.421876
    38  H   12.742188  10.307104  11.649324   7.263903   3.419686
                   36         37         38
    36  H    0.000000
    37  H    2.472254   0.000000
    38  H    4.082356   2.569835   0.000000
 Stoichiometry    C20H8N4OS3Se2
 Framework group  C1[X(C20H8N4OS3Se2)]
 Deg. of freedom   108
 Full point group                 C1      NOp   1
 Largest Abelian subgroup         C1      NOp   1
 Largest concise Abelian subgroup C1      NOp   1
                         Standard orientation:                         
 ---------------------------------------------------------------------
 Center     Atomic      Atomic             Coordinates (Angstroms)
 Number     Number       Type             X           Y           Z
 ---------------------------------------------------------------------
      1          6           0        6.799400   -1.557182   -0.011150
      2          6           0        5.442665   -1.501590   -0.000898
      3          6           0        5.090833   -0.163542   -0.022553
      4          6           0        4.044576    0.769584   -0.020963
      5         16           0        4.554908    1.971377   -0.041737
      6          6           0        5.952945    1.876485   -0.052781
      7          6           0        6.284625    0.548396   -0.037101
      8          8           0        7.286716   -0.348287   -0.032835
      9          6           0        2.635644    0.453969    0.000150
     10          6           0        1.754519    1.459105    0.011834
     11          6           0        0.316372    1.173378    0.035051
     12          6           0       -0.635694    2.190457    0.042815
     13          7           0       -0.263328    3.434547    0.024977
     14         16           0       -1.363796    4.601179    0.034038
     15          7           0       -2.864597    2.814408    0.086264
     16          6           0       -1.975854    1.867517    0.069572
     17          6           0       -2.385469    0.541048    0.078870
     18          6           0       -3.832123    0.220166    0.102293
     19         34           0       -5.005926   -0.233308   -0.797285
     20          6           0       -5.962174   -0.930352    0.141296
     21          6           0       -5.698988   -0.636769    1.385317
     22          6           0       -4.521594    0.306124    1.484302
     23         34           0       -2.042280   -2.312181    0.079625
     24          6           0       -1.460124   -0.480522    0.066535
     25          6           0       -0.100244   -0.177620    0.044506
     26          6           0        0.927202   -1.224090    0.029615
     27          7           0        0.838480   -2.608849    0.032993
     28         16           0        2.219480   -3.101635    0.012360
     29          7           0        3.024828   -2.002416   -0.001670
     30          6           0        2.255741   -0.872110    0.007982
     31          1           0        7.359240   -2.424091   -0.003014
     32          1           0        4.795983   -2.305597    0.019240
     33          1           0        6.615269    2.667732   -0.069740
     34          1           0        2.086365    2.436274    0.004509
     35          1           0       -3.179563    0.280384   -0.743539
     36          1           0       -6.724171   -1.556952   -0.161605
     37          1           0       -6.225432   -1.000474    2.195009
     38          1           0       -4.693110    1.062371    2.221579
 ---------------------------------------------------------------------
 Rotational constants (GHZ):      0.2095023      0.0590670      0.0470314
 Standard basis: 6-31++G(d,p) (6D, 7F)
 There are   660 symmetry adapted basis functions of A   symmetry.
 Integral buffers will be    131072 words long.
 Raffenetti 2 integral format.
 Two-electron integral symmetry is turned on.
   660 basis functions,  1206 primitive gaussians,   660 cartesian basis functions
   140 alpha electrons      140 beta electrons
       nuclear repulsion energy      4571.5890709616 Hartrees.
 NAtoms=   38 NActive=   38 NUniq=   38 SFac= 1.00D+00 NAtFMM=   60 NAOKFM=F Big=F
 One-electron integrals computed using PRISM.
 NBasis=   660 RedAO= T  NBF=   660
 NBsUse=   646 1.00D-06 NBFU=   646
 Harris functional with IExCor=  402 diagonalized for initial guess.
 ExpMin= 3.00D-02 ExpMax= 5.61D+05 ExpMxC= 5.42D+03 IAcc=3 IRadAn=         5 AccDes= 0.00D+00
 HarFok:  IExCor=  402 AccDes= 0.00D+00 IRadAn=         5 IDoV= 1
 ScaDFX=  1.000000  1.000000  1.000000  1.000000
 FoFCou: FMM=F IPFlag=           0 FMFlag=      100000 FMFlg1=           0
         NFxFlg=           0 DoJE=T BraDBF=F KetDBF=T FulRan=T
         Omega=  0.000000  0.000000  1.000000  0.000000  0.000000 ICntrl=     500 IOpCl=  0
         NMat0=    1 NMatS0=    1 NMatT0=    0 NMatD0=    1 NMtDS0=    0 NMtDT0=    0
         I1Cent=           4 NGrid=           0.
 Petite list used in FoFCou.
 Initial guess orbital symmetries:
       Occupied  (A) (A) (A) (A) (A) (A) (A) (A) (A) (A) (A) (A)
                 (A) (A) (A) (A) (A) (A) (A) (A) (A) (A) (A) (A)
                 (A) (A) (A) (A) (A) (A) (A) (A) (A) (A) (A) (A)
                 (A) (A) (A) (A) (A) (A) (A) (A) (A) (A) (A) (A)
                 (A) (A) (A) (A) (A) (A) (A) (A) (A) (A) (A) (A)
                 (A) (A) (A) (A) (A) (A) (A) (A) (A) (A) (A) (A)
                 (A) (A) (A) (A) (A) (A) (A) (A) (A) (A) (A) (A)
                 (A) (A) (A) (A) (A) (A) (A) (A) (A) (A) (A) (A)
                 (A) (A) (A) (A) (A) (A) (A) (A) (A) (A) (A) (A)
                 (A) (A) (A) (A) (A) (A) (A) (A) (A) (A) (A) (A)
                 (A) (A) (A) (A) (A) (A) (A) (A) (A) (A) (A) (A)
                 (A) (A) (A) (A) (A) (A) (A) (A)
       Virtual   (A) (A) (A) (A) (A) (A) (A) (A) (A) (A) (A) (A)
                 (A) (A) (A) (A) (A) (A) (A) (A) (A) (A) (A) (A)
                 (A) (A) (A) (A) (A) (A) (A) (A) (A) (A) (A) (A)
                 (A) (A) (A) (A) (A) (A) (A) (A) (A) (A) (A) (A)
                 (A) (A) (A) (A) (A) (A) (A) (A) (A) (A) (A) (A)
                 (A) (A) (A) (A) (A) (A) (A) (A) (A) (A) (A) (A)
                 (A) (A) (A) (A) (A) (A) (A) (A) (A) (A) (A) (A)
                 (A) (A) (A) (A) (A) (A) (A) (A) (A) (A) (A) (A)
                 (A) (A) (A) (A) (A) (A) (A) (A) (A) (A) (A) (A)
                 (A) (A) (A) (A) (A) (A) (A) (A) (A) (A) (A) (A)
                 (A) (A) (A) (A) (A) (A) (A) (A) (A) (A) (A) (A)
                 (A) (A) (A) (A) (A) (A) (A) (A) (A) (A) (A) (A)
                 (A) (A) (A) (A) (A) (A) (A) (A) (A) (A) (A) (A)
                 (A) (A) (A) (A) (A) (A) (A) (A) (A) (A) (A) (A)
                 (A) (A) (A) (A) (A) (A) (A) (A) (A) (A) (A) (A)
                 (A) (A) (A) (A) (A) (A) (A) (A) (A) (A) (A) (A)
                 (A) (A) (A) (A) (A) (A) (A) (A) (A) (A) (A) (A)
                 (A) (A) (A) (A) (A) (A) (A) (A) (A) (A) (A) (A)
                 (A) (A) (A) (A) (A) (A) (A) (A) (A) (A) (A) (A)
                 (A) (A) (A) (A) (A) (A) (A) (A) (A) (A) (A) (A)
                 (A) (A) (A) (A) (A) (A) (A) (A) (A) (A) (A) (A)
                 (A) (A) (A) (A) (A) (A) (A) (A) (A) (A) (A) (A)
                 (A) (A) (A) (A) (A) (A) (A) (A) (A) (A) (A) (A)
                 (A) (A) (A) (A) (A) (A) (A) (A) (A) (A) (A) (A)
                 (A) (A) (A) (A) (A) (A) (A) (A) (A) (A) (A) (A)
                 (A) (A) (A) (A) (A) (A) (A) (A) (A) (A) (A) (A)
                 (A) (A) (A) (A) (A) (A) (A) (A) (A) (A) (A) (A)
                 (A) (A) (A) (A) (A) (A) (A) (A) (A) (A) (A) (A)
                 (A) (A) (A) (A) (A) (A) (A) (A) (A) (A) (A) (A)
                 (A) (A) (A) (A) (A) (A) (A) (A) (A) (A) (A) (A)
                 (A) (A) (A) (A) (A) (A) (A) (A) (A) (A) (A) (A)
                 (A) (A) (A) (A) (A) (A) (A) (A) (A) (A) (A) (A)
                 (A) (A) (A) (A) (A) (A) (A) (A) (A) (A) (A) (A)
                 (A) (A) (A) (A) (A) (A) (A) (A) (A) (A) (A) (A)
                 (A) (A) (A) (A) (A) (A) (A) (A) (A) (A) (A) (A)
                 (A) (A) (A) (A) (A) (A) (A) (A) (A) (A) (A) (A)
                 (A) (A) (A) (A) (A) (A) (A) (A) (A) (A) (A) (A)
                 (A) (A) (A) (A) (A) (A) (A) (A) (A) (A) (A) (A)
                 (A) (A) (A) (A) (A) (A) (A) (A) (A) (A) (A) (A)
                 (A) (A) (A) (A) (A) (A) (A) (A) (A) (A) (A) (A)
                 (A) (A) (A) (A) (A) (A) (A) (A) (A) (A) (A) (A)
                 (A) (A) (A) (A) (A) (A) (A) (A) (A) (A) (A) (A)
                 (A) (A)
 The electronic state of the initial guess is 1-A.
 Requested convergence on RMS density matrix=1.00D-08 within 128 cycles.
 Requested convergence on MAX density matrix=1.00D-06.
 Requested convergence on             energy=1.00D-06.
 No special actions if energy rises.
 EnCoef did     3 forward-backward iterations
 EnCoef did     4 forward-backward iterations
 EnCoef did     4 forward-backward iterations
 Restarting incremental Fock formation.
 SCF Done:  E(RB3LYP) =  -7053.61091490     A.U. after   25 cycles
             Convg  =    0.6924D-08             -V/T =  2.0038

 **********************************************************************

            Population analysis using the SCF density.

 **********************************************************************

 Orbital symmetries:
       Occupied  (A) (A) (A) (A) (A) (A) (A) (A) (A) (A) (A) (A)
                 (A) (A) (A) (A) (A) (A) (A) (A) (A) (A) (A) (A)
                 (A) (A) (A) (A) (A) (A) (A) (A) (A) (A) (A) (A)
                 (A) (A) (A) (A) (A) (A) (A) (A) (A) (A) (A) (A)
                 (A) (A) (A) (A) (A) (A) (A) (A) (A) (A) (A) (A)
                 (A) (A) (A) (A) (A) (A) (A) (A) (A) (A) (A) (A)
                 (A) (A) (A) (A) (A) (A) (A) (A) (A) (A) (A) (A)
                 (A) (A) (A) (A) (A) (A) (A) (A) (A) (A) (A) (A)
                 (A) (A) (A) (A) (A) (A) (A) (A) (A) (A) (A) (A)
                 (A) (A) (A) (A) (A) (A) (A) (A) (A) (A) (A) (A)
                 (A) (A) (A) (A) (A) (A) (A) (A) (A) (A) (A) (A)
                 (A) (A) (A) (A) (A) (A) (A) (A)
       Virtual   (A) (A) (A) (A) (A) (A) (A) (A) (A) (A) (A) (A)
                 (A) (A) (A) (A) (A) (A) (A) (A) (A) (A) (A) (A)
                 (A) (A) (A) (A) (A) (A) (A) (A) (A) (A) (A) (A)
                 (A) (A) (A) (A) (A) (A) (A) (A) (A) (A) (A) (A)
                 (A) (A) (A) (A) (A) (A) (A) (A) (A) (A) (A) (A)
                 (A) (A) (A) (A) (A) (A) (A) (A) (A) (A) (A) (A)
                 (A) (A) (A) (A) (A) (A) (A) (A) (A) (A) (A) (A)
                 (A) (A) (A) (A) (A) (A) (A) (A) (A) (A) (A) (A)
                 (A) (A) (A) (A) (A) (A) (A) (A) (A) (A) (A) (A)
                 (A) (A) (A) (A) (A) (A) (A) (A) (A) (A) (A) (A)
                 (A) (A) (A) (A) (A) (A) (A) (A) (A) (A) (A) (A)
                 (A) (A) (A) (A) (A) (A) (A) (A) (A) (A) (A) (A)
                 (A) (A) (A) (A) (A) (A) (A) (A) (A) (A) (A) (A)
                 (A) (A) (A) (A) (A) (A) (A) (A) (A) (A) (A) (A)
                 (A) (A) (A) (A) (A) (A) (A) (A) (A) (A) (A) (A)
                 (A) (A) (A) (A) (A) (A) (A) (A) (A) (A) (A) (A)
                 (A) (A) (A) (A) (A) (A) (A) (A) (A) (A) (A) (A)
                 (A) (A) (A) (A) (A) (A) (A) (A) (A) (A) (A) (A)
                 (A) (A) (A) (A) (A) (A) (A) (A) (A) (A) (A) (A)
                 (A) (A) (A) (A) (A) (A) (A) (A) (A) (A) (A) (A)
                 (A) (A) (A) (A) (A) (A) (A) (A) (A) (A) (A) (A)
                 (A) (A) (A) (A) (A) (A) (A) (A) (A) (A) (A) (A)
                 (A) (A) (A) (A) (A) (A) (A) (A) (A) (A) (A) (A)
                 (A) (A) (A) (A) (A) (A) (A) (A) (A) (A) (A) (A)
                 (A) (A) (A) (A) (A) (A) (A) (A) (A) (A) (A) (A)
                 (A) (A) (A) (A) (A) (A) (A) (A) (A) (A) (A) (A)
                 (A) (A) (A) (A) (A) (A) (A) (A) (A) (A) (A) (A)
                 (A) (A) (A) (A) (A) (A) (A) (A) (A) (A) (A) (A)
                 (A) (A) (A) (A) (A) (A) (A) (A) (A) (A) (A) (A)
                 (A) (A) (A) (A) (A) (A) (A) (A) (A) (A) (A) (A)
                 (A) (A) (A) (A) (A) (A) (A) (A) (A) (A) (A) (A)
                 (A) (A) (A) (A) (A) (A) (A) (A) (A) (A) (A) (A)
                 (A) (A) (A) (A) (A) (A) (A) (A) (A) (A) (A) (A)
                 (A) (A) (A) (A) (A) (A) (A) (A) (A) (A) (A) (A)
                 (A) (A) (A) (A) (A) (A) (A) (A) (A) (A) (A) (A)
                 (A) (A) (A) (A) (A) (A) (A) (A) (A) (A) (A) (A)
                 (A) (A) (A) (A) (A) (A) (A) (A) (A) (A) (A) (A)
                 (A) (A) (A) (A) (A) (A) (A) (A) (A) (A) (A) (A)
                 (A) (A) (A) (A) (A) (A) (A) (A) (A) (A) (A) (A)
                 (A) (A) (A) (A) (A) (A) (A) (A) (A) (A) (A) (A)
                 (A) (A) (A) (A) (A) (A) (A) (A) (A) (A) (A) (A)
                 (A) (A) (A) (A) (A) (A) (A) (A) (A) (A) (A) (A)
                 (A) (A)
 The electronic state is 1-A.
 Alpha  occ. eigenvalues -- -453.93522-453.82548 -88.98460 -88.96025 -88.89733
 Alpha  occ. eigenvalues --  -57.53700 -57.42391 -52.20890 -52.20687 -52.20572
 Alpha  occ. eigenvalues --  -52.09813 -52.09511 -52.09402 -19.22816 -14.39669
 Alpha  occ. eigenvalues --  -14.38360 -14.35682 -14.35431 -10.26834 -10.26026
 Alpha  occ. eigenvalues --  -10.25940 -10.25759 -10.25743 -10.25508 -10.25121
 Alpha  occ. eigenvalues --  -10.24631 -10.24250 -10.23636 -10.23505 -10.23450
 Alpha  occ. eigenvalues --  -10.23366 -10.21218 -10.21116 -10.20993 -10.19836
 Alpha  occ. eigenvalues --  -10.19617 -10.18866 -10.16449  -8.04803  -8.01359
 Alpha  occ. eigenvalues --   -7.98849  -7.78937  -7.66472  -6.01252  -6.00696
 Alpha  occ. eigenvalues --   -6.00537  -5.97902  -5.97456  -5.96989  -5.95104
 Alpha  occ. eigenvalues --   -5.94483  -5.94387  -5.83172  -5.82510  -5.82245
 Alpha  occ. eigenvalues --   -5.70849  -5.70213  -5.69519  -2.19091  -2.18842
 Alpha  occ. eigenvalues --   -2.18363  -2.17912  -2.17808  -2.06422  -2.06292
 Alpha  occ. eigenvalues --   -2.05741  -2.05213  -2.05125  -1.14654  -1.12079
 Alpha  occ. eigenvalues --   -1.03048  -1.01748  -1.00121  -0.94132  -0.93194
 Alpha  occ. eigenvalues --   -0.90886  -0.88446  -0.85847  -0.82212  -0.81209
 Alpha  occ. eigenvalues --   -0.80084  -0.76947  -0.76739  -0.75508  -0.74207
 Alpha  occ. eigenvalues --   -0.70604  -0.69869  -0.66640  -0.66175  -0.64703
 Alpha  occ. eigenvalues --   -0.62915  -0.62076  -0.60562  -0.59534  -0.57596
 Alpha  occ. eigenvalues --   -0.56977  -0.55910  -0.55477  -0.54299  -0.53109
 Alpha  occ. eigenvalues --   -0.52036  -0.51588  -0.50586  -0.50129  -0.49906
 Alpha  occ. eigenvalues --   -0.48204  -0.48122  -0.46769  -0.45891  -0.45543
 Alpha  occ. eigenvalues --   -0.45365  -0.44423  -0.43720  -0.43387  -0.40678
 Alpha  occ. eigenvalues --   -0.40613  -0.39756  -0.39589  -0.39039  -0.37501
 Alpha  occ. eigenvalues --   -0.35861  -0.35530  -0.34708  -0.34568  -0.33804
 Alpha  occ. eigenvalues --   -0.33369  -0.32967  -0.32276  -0.31193  -0.29991
 Alpha  occ. eigenvalues --   -0.29924  -0.29194  -0.28203  -0.27606  -0.24978
 Alpha  occ. eigenvalues --   -0.24638  -0.23531  -0.21818  -0.20442  -0.17980
 Alpha virt. eigenvalues --   -0.11998  -0.11791  -0.09158  -0.07625  -0.04896
 Alpha virt. eigenvalues --   -0.02936  -0.01181  -0.00830  -0.00632  -0.00091
 Alpha virt. eigenvalues --    0.00326   0.00422   0.01241   0.01439   0.01640
 Alpha virt. eigenvalues --    0.01739   0.01787   0.02034   0.02467   0.02763
 Alpha virt. eigenvalues --    0.03244   0.03334   0.03499   0.03996   0.04365
 Alpha virt. eigenvalues --    0.04644   0.04726   0.04991   0.05372   0.05540
 Alpha virt. eigenvalues --    0.05841   0.06105   0.06476   0.06620   0.07214
 Alpha virt. eigenvalues --    0.07283   0.07726   0.08062   0.08191   0.08503
 Alpha virt. eigenvalues --    0.09167   0.09290   0.09719   0.09811   0.10085
 Alpha virt. eigenvalues --    0.10440   0.10562   0.10634   0.11027   0.11205
 Alpha virt. eigenvalues --    0.11397   0.11768   0.11802   0.11976   0.12178
 Alpha virt. eigenvalues --    0.12535   0.12708   0.13247   0.13447   0.13542
 Alpha virt. eigenvalues --    0.13763   0.14060   0.14408   0.14606   0.14696
 Alpha virt. eigenvalues --    0.14765   0.15086   0.15216   0.15563   0.15640
 Alpha virt. eigenvalues --    0.15847   0.16072   0.16269   0.16986   0.17084
 Alpha virt. eigenvalues --    0.17319   0.17505   0.17726   0.17887   0.18071
 Alpha virt. eigenvalues --    0.18349   0.18497   0.18707   0.19151   0.19680
 Alpha virt. eigenvalues --    0.20089   0.20176   0.20457   0.20623   0.20837
 Alpha virt. eigenvalues --    0.21384   0.21429   0.21978   0.22238   0.22512
 Alpha virt. eigenvalues --    0.22657   0.22845   0.23371   0.23682   0.23896
 Alpha virt. eigenvalues --    0.24008   0.24437   0.24684   0.25031   0.25437
 Alpha virt. eigenvalues --    0.25537   0.25639   0.25902   0.26130   0.26410
 Alpha virt. eigenvalues --    0.26507   0.27320   0.27406   0.27704   0.27838
 Alpha virt. eigenvalues --    0.28118   0.28296   0.28564   0.28759   0.29205
 Alpha virt. eigenvalues --    0.29326   0.29880   0.30239   0.30348   0.30611
 Alpha virt. eigenvalues --    0.30799   0.31109   0.31489   0.31702   0.32174
 Alpha virt. eigenvalues --    0.32436   0.32459   0.33475   0.33887   0.34094
 Alpha virt. eigenvalues --    0.34639   0.34900   0.35351   0.35531   0.36050
 Alpha virt. eigenvalues --    0.36200   0.36726   0.36904   0.37017   0.37700
 Alpha virt. eigenvalues --    0.38230   0.38869   0.39050   0.39433   0.39665
 Alpha virt. eigenvalues --    0.40055   0.40625   0.40798   0.41482   0.42428
 Alpha virt. eigenvalues --    0.42851   0.43442   0.44609   0.45495   0.45784
 Alpha virt. eigenvalues --    0.46959   0.48046   0.48562   0.49224   0.49713
 Alpha virt. eigenvalues --    0.50196   0.50613   0.51498   0.51758   0.51978
 Alpha virt. eigenvalues --    0.52524   0.52577   0.54280   0.55366   0.55631
 Alpha virt. eigenvalues --    0.55840   0.57283   0.58036   0.58987   0.59384
 Alpha virt. eigenvalues --    0.60486   0.61457   0.63110   0.64107   0.65079
 Alpha virt. eigenvalues --    0.65687   0.66061   0.66616   0.67504   0.67715
 Alpha virt. eigenvalues --    0.68040   0.68600   0.69196   0.69774   0.70113
 Alpha virt. eigenvalues --    0.70239   0.70934   0.71180   0.71528   0.71648
 Alpha virt. eigenvalues --    0.71898   0.72038   0.72893   0.73334   0.73470
 Alpha virt. eigenvalues --    0.73976   0.74250   0.74955   0.75349   0.75563
 Alpha virt. eigenvalues --    0.76182   0.76498   0.77144   0.77246   0.77697
 Alpha virt. eigenvalues --    0.78172   0.78593   0.78999   0.79673   0.79823
 Alpha virt. eigenvalues --    0.80181   0.80607   0.81011   0.81488   0.81879
 Alpha virt. eigenvalues --    0.82168   0.82556   0.83158   0.83217   0.83901
 Alpha virt. eigenvalues --    0.84671   0.85149   0.85973   0.86228   0.86751
 Alpha virt. eigenvalues --    0.87097   0.87588   0.88495   0.89879   0.90128
 Alpha virt. eigenvalues --    0.91123   0.91925   0.92668   0.94495   0.95200
 Alpha virt. eigenvalues --    0.95752   0.96176   0.96470   0.97500   0.98093
 Alpha virt. eigenvalues --    0.98390   0.98931   0.99797   1.00436   1.00888
 Alpha virt. eigenvalues --    1.01851   1.03466   1.05017   1.06036   1.07037
 Alpha virt. eigenvalues --    1.07248   1.08145   1.08968   1.09680   1.10362
 Alpha virt. eigenvalues --    1.11051   1.11830   1.12259   1.12742   1.13575
 Alpha virt. eigenvalues --    1.13923   1.14424   1.14949   1.15546   1.16306
 Alpha virt. eigenvalues --    1.16721   1.17286   1.17645   1.18185   1.19474
 Alpha virt. eigenvalues --    1.19528   1.20725   1.20840   1.21575   1.23106
 Alpha virt. eigenvalues --    1.24464   1.24494   1.25442   1.26073   1.26200
 Alpha virt. eigenvalues --    1.27549   1.28581   1.29524   1.29938   1.30866
 Alpha virt. eigenvalues --    1.31017   1.31578   1.32410   1.32975   1.33383
 Alpha virt. eigenvalues --    1.33687   1.34181   1.35027   1.35959   1.36714
 Alpha virt. eigenvalues --    1.37539   1.37931   1.39663   1.40644   1.40907
 Alpha virt. eigenvalues --    1.41655   1.42508   1.43646   1.44548   1.45203
 Alpha virt. eigenvalues --    1.46178   1.47092   1.47939   1.49654   1.49978
 Alpha virt. eigenvalues --    1.51080   1.51461   1.53720   1.54630   1.56277
 Alpha virt. eigenvalues --    1.57938   1.59288   1.60593   1.61512   1.63439
 Alpha virt. eigenvalues --    1.65873   1.67521   1.67731   1.68575   1.69838
 Alpha virt. eigenvalues --    1.70387   1.71548   1.72709   1.73109   1.73506
 Alpha virt. eigenvalues --    1.76752   1.77093   1.77612   1.77805   1.78805
 Alpha virt. eigenvalues --    1.80057   1.80262   1.81471   1.82593   1.83850
 Alpha virt. eigenvalues --    1.84624   1.85606   1.86934   1.88625   1.89210
 Alpha virt. eigenvalues --    1.89600   1.90650   1.91917   1.94461   1.95252
 Alpha virt. eigenvalues --    1.96736   1.96948   1.97110   1.97644   1.99190
 Alpha virt. eigenvalues --    1.99550   2.00027   2.00525   2.01513   2.02398
 Alpha virt. eigenvalues --    2.03036   2.03670   2.04646   2.05588   2.06702
 Alpha virt. eigenvalues --    2.07194   2.09404   2.10626   2.12046   2.14111
 Alpha virt. eigenvalues --    2.14143   2.14963   2.17133   2.18659   2.20087
 Alpha virt. eigenvalues --    2.21989   2.24085   2.24847   2.26079   2.27026
 Alpha virt. eigenvalues --    2.28859   2.30284   2.30377   2.31240   2.31702
 Alpha virt. eigenvalues --    2.32626   2.32961   2.33592   2.35396   2.36080
 Alpha virt. eigenvalues --    2.37037   2.38928   2.40431   2.41887   2.42637
 Alpha virt. eigenvalues --    2.43254   2.44817   2.45832   2.48198   2.48713
 Alpha virt. eigenvalues --    2.49861   2.50830   2.52241   2.54394   2.55171
 Alpha virt. eigenvalues --    2.56394   2.56454   2.57325   2.58844   2.59088
 Alpha virt. eigenvalues --    2.60204   2.60498   2.61569   2.62862   2.64029
 Alpha virt. eigenvalues --    2.65258   2.66299   2.67675   2.68249   2.69900
 Alpha virt. eigenvalues --    2.70500   2.71203   2.72996   2.74246   2.75628
 Alpha virt. eigenvalues --    2.75662   2.77344   2.78863   2.79956   2.81021
 Alpha virt. eigenvalues --    2.82845   2.83273   2.85550   2.86198   2.87032
 Alpha virt. eigenvalues --    2.88598   2.90135   2.92444   2.92892   2.96834
 Alpha virt. eigenvalues --    2.98407   3.01088   3.03437   3.05334   3.11536
 Alpha virt. eigenvalues --    3.13056   3.14126   3.16358   3.18010   3.23057
 Alpha virt. eigenvalues --    3.25907   3.28156   3.32544   3.38168   3.39520
 Alpha virt. eigenvalues --    3.41408   3.46215   3.51087   3.55384   3.58819
 Alpha virt. eigenvalues --    3.64181   3.72884   3.73662   3.87978   3.97172
 Alpha virt. eigenvalues --    4.03110   4.05799   4.09088   4.22805   4.28470
 Alpha virt. eigenvalues --    4.29381   4.31249   4.34239   4.36495   4.37085
 Alpha virt. eigenvalues --    4.37451   4.41963   4.43513   4.43842   4.45851
 Alpha virt. eigenvalues --    4.48247   4.52682   4.54277   4.55943   4.59591
 Alpha virt. eigenvalues --    4.64202   4.68686   4.77743   4.78503   4.87838
 Alpha virt. eigenvalues --    4.97544   5.01066   8.49349   8.49695  82.02407
 Alpha virt. eigenvalues --   84.06171
          Condensed to atoms (all electrons):
              1          2          3          4          5          6
     1  C    8.756169  -2.490530   0.262272  -0.272075  -0.005940  -0.418084
     2  C   -2.490530  16.035589  -7.271254   1.744357   2.073902   1.463345
     3  C    0.262272  -7.271254  16.473213  -1.162422  -1.593271  -0.610539
     4  C   -0.272075   1.744357  -1.162422  11.550250  -1.480909  -0.076519
     5  S   -0.005940   2.073902  -1.593271  -1.480909  21.504651   0.075142
     6  C   -0.418084   1.463345  -0.610539  -0.076519   0.075142  11.758555
     7  C   -0.591046  -2.288445  -0.056736  -1.578772  -0.903127  -7.171675
     8  O   -0.104825   0.188925  -0.214861   0.085453   0.119669  -0.022443
     9  C   -0.058348   0.010955  -0.803490   0.984234  -0.646558   1.356493
    10  C    0.201542  -0.601174  -0.092779  -2.107581  -0.435998   0.061233
    11  C   -0.094619   0.193063  -0.140406   0.857677  -0.224163  -0.027977
    12  C   -0.031946   0.215790   0.335401   0.851218   0.407979  -0.024149
    13  N    0.000506  -0.007108  -0.001468  -0.024047  -0.027510  -0.000292
    14  S   -0.000069  -0.000556   0.002964   0.002416  -0.004004  -0.001763
    15  N    0.000006   0.000014   0.001455  -0.000441   0.001276  -0.000058
    16  C   -0.002274   0.008433   0.053466   0.247285  -0.025400  -0.011541
    17  C    0.000068  -0.046923   0.106233   0.022091  -0.064730  -0.020418
    18  C    0.000535  -0.005687   0.014010  -0.022979  -0.012162  -0.001842
    19  Se   0.000082   0.000075  -0.000683  -0.001056   0.000498  -0.000076
    20  C    0.000003   0.000047   0.000156   0.000469  -0.000006  -0.000008
    21  C   -0.000002  -0.000116  -0.000359  -0.001365  -0.000015   0.000016
    22  C    0.000024   0.000343   0.001455   0.002648  -0.000151  -0.000182
    23  Se   0.000878   0.015599  -0.005373   0.006587   0.001306  -0.001030
    24  C   -0.017219  -0.034192   0.545133   0.518722  -0.038864  -0.054152
    25  C   -0.018635   0.006159  -0.507880  -0.702831  -0.200115  -0.082243
    26  C    0.023160  -0.855211   0.431351  -1.463463  -0.335828   0.011831
    27  N    0.044405   0.243176  -0.336423   0.005941   0.012655  -0.010384
    28  S    0.105590  -0.685675   0.724664  -0.365213  -0.020769  -0.085434
    29  N   -0.027940  -0.286185   0.280652  -0.143293   0.018784   0.030459
    30  C    0.501194  -1.764192   0.106178  -1.633206  -1.460048  -0.420263
    31  H    0.580085  -0.254024   0.007827  -0.029309   0.001750  -0.064552
    32  H   -0.216500   0.518642  -0.091652   0.027859  -0.057291   0.116187
    33  H   -0.016883  -0.046883  -0.018129   0.055400  -0.111227   0.246950
    34  H    0.019263  -0.181350   0.013861  -0.114619  -0.418668  -0.038104
    35  H    0.000290  -0.000496  -0.000575  -0.009562   0.000280   0.000441
    36  H   -0.000000   0.000000   0.000014   0.000043  -0.000002  -0.000000
    37  H    0.000000  -0.000004  -0.000008  -0.000043   0.000000   0.000000
    38  H    0.000004   0.000044   0.000178   0.000405   0.000010  -0.000018
              7          8          9         10         11         12
     1  C   -0.591046  -0.104825  -0.058348   0.201542  -0.094619  -0.031946
     2  C   -2.288445   0.188925   0.010955  -0.601174   0.193063   0.215790
     3  C   -0.056736  -0.214861  -0.803490  -0.092779  -0.140406   0.335401
     4  C   -1.578772   0.085453   0.984234  -2.107581   0.857677   0.851218
     5  S   -0.903127   0.119669  -0.646558  -0.435998  -0.224163   0.407979
     6  C   -7.171675  -0.022443   1.356493   0.061233  -0.027977  -0.024149
     7  C   21.325557  -0.119785  -2.707038  -0.437696   0.201199   0.023397
     8  O   -0.119785   8.592125  -0.054398   0.002306  -0.000411   0.000757
     9  C   -2.707038  -0.054398  13.153461  -1.773675   1.028157   3.033411
    10  C   -0.437696   0.002306  -1.773675   9.024933  -0.541154  -2.676512
    11  C    0.201199  -0.000411   1.028157  -0.541154   8.060871  -0.383453
    12  C    0.023397   0.000757   3.033411  -2.676512  -0.383453  10.600400
    13  N    0.002971  -0.000005  -0.057760   0.018792  -0.236586   0.522935
    14  S    0.001893   0.000001   0.002474  -0.051156   0.004369  -0.171364
    15  N    0.000094   0.000000   0.031937  -0.071385  -0.039386  -0.007316
    16  C    0.015569   0.000001   0.673011  -0.679050   0.158769   1.348970
    17  C    0.039680  -0.000032  -0.466249  -0.120648  -0.336790  -0.125841
    18  C    0.003323  -0.000002  -0.276919   0.119422  -0.459018  -0.328394
    19  Se   0.000071  -0.000000  -0.019161   0.022007   0.002709  -0.064510
    20  C    0.000014  -0.000000   0.004750  -0.005812  -0.007295  -0.006727
    21  C   -0.000032  -0.000000  -0.014609   0.013028   0.020190  -0.002254
    22  C    0.000234  -0.000000   0.035332  -0.043949  -0.110563  -0.028653
    23  Se  -0.000140  -0.000007   0.174341  -0.077171   0.049522   0.148688
    24  C    0.161144   0.000172   0.583857  -1.163127   0.441356   1.106238
    25  C    0.007251  -0.000607  -2.074663   2.366745  -0.126479  -3.200211
    26  C    0.225736  -0.003011  -2.966598   2.102569  -1.133118  -2.398743
    27  N   -0.042996  -0.000371   0.099316   0.058908  -0.043967  -0.020160
    28  S    0.130380  -0.004717  -0.777346   0.255744  -0.302896  -0.137353
    29  N    0.025807  -0.002170  -0.099496   0.012261  -0.035035  -0.024302
    30  C   -0.695735  -0.043365  -2.504338   2.371338  -0.998335  -2.130372
    31  H    0.103098  -0.098705  -0.020738   0.005727  -0.001663  -0.000290
    32  H    0.004153   0.043920   0.103617  -0.057487   0.030499   0.008879
    33  H    0.098223  -0.007275   0.045033  -0.004191   0.002767  -0.004500
    34  H    0.110113  -0.002379  -0.422260   0.684270   0.097348  -0.683081
    35  H   -0.000404   0.000000  -0.039781   0.012741   0.022647  -0.144373
    36  H    0.000001   0.000000   0.000294  -0.000239  -0.001179   0.000797
    37  H   -0.000001  -0.000000  -0.000407   0.000285   0.000895  -0.000197
    38  H    0.000027   0.000000   0.003071  -0.003844  -0.005502  -0.003169
             13         14         15         16         17         18
     1  C    0.000506  -0.000069   0.000006  -0.002274   0.000068   0.000535
     2  C   -0.007108  -0.000556   0.000014   0.008433  -0.046923  -0.005687
     3  C   -0.001468   0.002964   0.001455   0.053466   0.106233   0.014010
     4  C   -0.024047   0.002416  -0.000441   0.247285   0.022091  -0.022979
     5  S   -0.027510  -0.004004   0.001276  -0.025400  -0.064730  -0.012162
     6  C   -0.000292  -0.001763  -0.000058  -0.011541  -0.020418  -0.001842
     7  C    0.002971   0.001893   0.000094   0.015569   0.039680   0.003323
     8  O   -0.000005   0.000001   0.000000   0.000001  -0.000032  -0.000002
     9  C   -0.057760   0.002474   0.031937   0.673011  -0.466249  -0.276919
    10  C    0.018792  -0.051156  -0.071385  -0.679050  -0.120648   0.119422
    11  C   -0.236586   0.004369  -0.039386   0.158769  -0.336790  -0.459018
    12  C    0.522935  -0.171364  -0.007316   1.348970  -0.125841  -0.328394
    13  N    7.335571  -0.079256  -0.146320  -0.222772  -0.009350   0.011262
    14  S   -0.079256  15.818585   0.188509  -0.118150   0.021397   0.001302
    15  N   -0.146320   0.188509   7.348322   0.497380  -0.273569  -0.085711
    16  C   -0.222772  -0.118150   0.497380   8.698408  -0.350288  -1.043581
    17  C   -0.009350   0.021397  -0.273569  -0.350288  10.217913   0.258425
    18  C    0.011262   0.001302  -0.085711  -1.043581   0.258425   8.132551
    19  Se  -0.001017  -0.001279  -0.043262  -0.132700  -0.142184   0.198698
    20  C   -0.000009  -0.001534  -0.043578  -0.039836   0.305559  -0.354870
    21  C   -0.001011   0.002949   0.039143  -0.051102  -0.405548   0.483801
    22  C   -0.013673   0.006874   0.095195   0.098320  -0.327356  -1.387487
    23  Se  -0.001033   0.001616   0.013188   0.093053  -0.134824   0.115029
    24  C   -0.005111   0.001912   0.084610   0.915604  -1.318551  -0.321392
    25  C    0.128334  -0.037506  -0.225649  -2.487673  -0.588725   0.696936
    26  C    0.036375  -0.001505   0.005849  -1.126786  -0.548049  -0.022019
    27  N    0.000630  -0.000089  -0.000480  -0.006167  -0.105977   0.020171
    28  S    0.001747   0.000384   0.000001  -0.033467   0.006236   0.021435
    29  N    0.000968  -0.000080   0.000195  -0.014275   0.013301  -0.004093
    30  C    0.043418  -0.007042  -0.014048  -0.380205   0.190036   0.203642
    31  H    0.000009   0.000001   0.000000  -0.000004   0.000107   0.000016
    32  H   -0.000283  -0.000044  -0.000011   0.000367  -0.002632  -0.000941
    33  H    0.000143  -0.000092  -0.000004  -0.000334   0.000089   0.000005
    34  H   -0.000741   0.019297  -0.008614  -0.092019   0.068205   0.029537
    35  H    0.010768  -0.001635  -0.006641  -0.172211  -0.112055   0.076381
    36  H   -0.000030   0.000006  -0.003003   0.000442   0.032982  -0.065572
    37  H   -0.000082   0.000129   0.000753  -0.000681  -0.016019   0.056061
    38  H    0.001053  -0.002818  -0.003049   0.011358   0.021557  -0.044254
             19         20         21         22         23         24
     1  C    0.000082   0.000003  -0.000002   0.000024   0.000878  -0.017219
     2  C    0.000075   0.000047  -0.000116   0.000343   0.015599  -0.034192
     3  C   -0.000683   0.000156  -0.000359   0.001455  -0.005373   0.545133
     4  C   -0.001056   0.000469  -0.001365   0.002648   0.006587   0.518722
     5  S    0.000498  -0.000006  -0.000015  -0.000151   0.001306  -0.038864
     6  C   -0.000076  -0.000008   0.000016  -0.000182  -0.001030  -0.054152
     7  C    0.000071   0.000014  -0.000032   0.000234  -0.000140   0.161144
     8  O   -0.000000  -0.000000  -0.000000  -0.000000  -0.000007   0.000172
     9  C   -0.019161   0.004750  -0.014609   0.035332   0.174341   0.583857
    10  C    0.022007  -0.005812   0.013028  -0.043949  -0.077171  -1.163127
    11  C    0.002709  -0.007295   0.020190  -0.110563   0.049522   0.441356
    12  C   -0.064510  -0.006727  -0.002254  -0.028653   0.148688   1.106238
    13  N   -0.001017  -0.000009  -0.001011  -0.013673  -0.001033  -0.005111
    14  S   -0.001279  -0.001534   0.002949   0.006874   0.001616   0.001912
    15  N   -0.043262  -0.043578   0.039143   0.095195   0.013188   0.084610
    16  C   -0.132700  -0.039836  -0.051102   0.098320   0.093053   0.915604
    17  C   -0.142184   0.305559  -0.405548  -0.327356  -0.134824  -1.318551
    18  C    0.198698  -0.354870   0.483801  -1.387487   0.115029  -0.321392
    19  Se  34.414239   0.543473   0.046767  -0.572752  -0.267453   0.055258
    20  C    0.543473   6.310525  -1.279225   0.557236  -0.071097  -0.350107
    21  C    0.046767  -1.279225   7.817566  -1.171718   0.015429   0.540654
    22  C   -0.572752   0.557236  -1.171718   9.801179  -0.093035  -0.399746
    23  Se  -0.267453  -0.071097   0.015429  -0.093035  34.382006   0.587829
    24  C    0.055258  -0.350107   0.540654  -0.399746   0.587829  10.365130
    25  C    0.081307   0.001683   0.055665  -0.558461  -0.245506  -2.565383
    26  C    0.046730  -0.054323   0.098443  -0.044788  -0.035312  -2.643766
    27  N   -0.007043  -0.001846   0.004020  -0.020211  -0.131602   0.028641
    28  S   -0.002192  -0.001938   0.003708  -0.009772  -0.080621   0.030588
    29  N   -0.001625  -0.000207   0.000279   0.000177  -0.023350  -0.149696
    30  C    0.005891   0.002127  -0.000112  -0.036583  -0.183781  -0.151605
    31  H    0.000003   0.000000  -0.000000   0.000001   0.000109   0.000176
    32  H   -0.000322  -0.000021   0.000022  -0.000210  -0.005121   0.007405
    33  H    0.000000  -0.000000   0.000000  -0.000003  -0.000061  -0.000952
    34  H    0.000012  -0.000181   0.000671  -0.000327  -0.005416  -0.068644
    35  H   -0.203990  -0.074236   0.022321  -0.021111  -0.148012   0.017412
    36  H   -0.153953   0.590473  -0.348170   0.166031   0.001280  -0.032769
    37  H    0.042017  -0.178390   0.584340  -0.206113  -0.002569   0.027348
    38  H    0.013152   0.099308  -0.145635   0.385971  -0.015386  -0.029652
             25         26         27         28         29         30
     1  C   -0.018635   0.023160   0.044405   0.105590  -0.027940   0.501194
     2  C    0.006159  -0.855211   0.243176  -0.685675  -0.286185  -1.764192
     3  C   -0.507880   0.431351  -0.336423   0.724664   0.280652   0.106178
     4  C   -0.702831  -1.463463   0.005941  -0.365213  -0.143293  -1.633206
     5  S   -0.200115  -0.335828   0.012655  -0.020769   0.018784  -1.460048
     6  C   -0.082243   0.011831  -0.010384  -0.085434   0.030459  -0.420263
     7  C    0.007251   0.225736  -0.042996   0.130380   0.025807  -0.695735
     8  O   -0.000607  -0.003011  -0.000371  -0.004717  -0.002170  -0.043365
     9  C   -2.074663  -2.966598   0.099316  -0.777346  -0.099496  -2.504338
    10  C    2.366745   2.102569   0.058908   0.255744   0.012261   2.371338
    11  C   -0.126479  -1.133118  -0.043967  -0.302896  -0.035035  -0.998335
    12  C   -3.200211  -2.398743  -0.020160  -0.137353  -0.024302  -2.130372
    13  N    0.128334   0.036375   0.000630   0.001747   0.000968   0.043418
    14  S   -0.037506  -0.001505  -0.000089   0.000384  -0.000080  -0.007042
    15  N   -0.225649   0.005849  -0.000480   0.000001   0.000195  -0.014048
    16  C   -2.487673  -1.126786  -0.006167  -0.033467  -0.014275  -0.380205
    17  C   -0.588725  -0.548049  -0.105977   0.006236   0.013301   0.190036
    18  C    0.696936  -0.022019   0.020171   0.021435  -0.004093   0.203642
    19  Se   0.081307   0.046730  -0.007043  -0.002192  -0.001625   0.005891
    20  C    0.001683  -0.054323  -0.001846  -0.001938  -0.000207   0.002127
    21  C    0.055665   0.098443   0.004020   0.003708   0.000279  -0.000112
    22  C   -0.558461  -0.044788  -0.020211  -0.009772   0.000177  -0.036583
    23  Se  -0.245506  -0.035312  -0.131602  -0.080621  -0.023350  -0.183781
    24  C   -2.565383  -2.643766   0.028641   0.030588  -0.149696  -0.151605
    25  C   12.159063   2.493489   0.007593  -0.060236  -0.084303   1.198360
    26  C    2.493489  12.158592   0.197349   0.141717   0.069304   1.705514
    27  N    0.007593   0.197349   7.967021  -0.247057  -0.539722   0.072869
    28  S   -0.060236   0.141717  -0.247057  16.790539  -0.399053   0.136926
    29  N   -0.084303   0.069304  -0.539722  -0.399053   8.640719   0.013601
    30  C    1.198360   1.705514   0.072869   0.136926   0.013601  11.742711
    31  H    0.000679  -0.000665   0.001176   0.020076  -0.011935   0.020488
    32  H   -0.024307  -0.007197  -0.033802  -0.231609   0.096779  -0.147631
    33  H    0.001275   0.004551  -0.000428   0.000079  -0.000469   0.007493
    34  H    0.305148   0.227183   0.001319   0.022997  -0.002612   0.458055
    35  H    0.198864   0.036921   0.001890   0.005306   0.001347   0.064261
    36  H   -0.000670  -0.005061  -0.000010  -0.000121  -0.000008   0.000206
    37  H    0.000161   0.004135   0.000035   0.000135   0.000012  -0.000113
    38  H   -0.016278  -0.010116  -0.000684  -0.000532  -0.000033  -0.000268
             31         32         33         34         35         36
     1  C    0.580085  -0.216500  -0.016883   0.019263   0.000290  -0.000000
     2  C   -0.254024   0.518642  -0.046883  -0.181350  -0.000496   0.000000
     3  C    0.007827  -0.091652  -0.018129   0.013861  -0.000575   0.000014
     4  C   -0.029309   0.027859   0.055400  -0.114619  -0.009562   0.000043
     5  S    0.001750  -0.057291  -0.111227  -0.418668   0.000280  -0.000002
     6  C   -0.064552   0.116187   0.246950  -0.038104   0.000441  -0.000000
     7  C    0.103098   0.004153   0.098223   0.110113  -0.000404   0.000001
     8  O   -0.098705   0.043920  -0.007275  -0.002379   0.000000   0.000000
     9  C   -0.020738   0.103617   0.045033  -0.422260  -0.039781   0.000294
    10  C    0.005727  -0.057487  -0.004191   0.684270   0.012741  -0.000239
    11  C   -0.001663   0.030499   0.002767   0.097348   0.022647  -0.001179
    12  C   -0.000290   0.008879  -0.004500  -0.683081  -0.144373   0.000797
    13  N    0.000009  -0.000283   0.000143  -0.000741   0.010768  -0.000030
    14  S    0.000001  -0.000044  -0.000092   0.019297  -0.001635   0.000006
    15  N    0.000000  -0.000011  -0.000004  -0.008614  -0.006641  -0.003003
    16  C   -0.000004   0.000367  -0.000334  -0.092019  -0.172211   0.000442
    17  C    0.000107  -0.002632   0.000089   0.068205  -0.112055   0.032982
    18  C    0.000016  -0.000941   0.000005   0.029537   0.076381  -0.065572
    19  Se   0.000003  -0.000322   0.000000   0.000012  -0.203990  -0.153953
    20  C    0.000000  -0.000021  -0.000000  -0.000181  -0.074236   0.590473
    21  C   -0.000000   0.000022   0.000000   0.000671   0.022321  -0.348170
    22  C    0.000001  -0.000210  -0.000003  -0.000327  -0.021111   0.166031
    23  Se   0.000109  -0.005121  -0.000061  -0.005416  -0.148012   0.001280
[...]
 0.00000041,0.00001227,0.00001475,-0.00008735,-0.00001539,-0.00003367,-
 0.00011040,0.00016839,-0.00018750,0.00075082,0.00005628,-0.00015180,-0
 .00090439,0.00289559,-0.00080353,-0.00051051,0.00046108,-0.00004917,0.
 00029610,-0.00007482,0.00005056,-0.00046197,-0.00012411,0.00000273,-0.
 00079783,-0.00116085,0.00029405,-0.00369633,0.00277571,-0.00091723,0.0
 0001039,0.00000535,0.00000281,0.00003889,-0.00000571,0.00002873,0.0000
 8634,-0.00005110,0.00002460,0.20098476,-0.00009164,0.00018350,-0.00004
 460,0.00013168,-0.00001006,0.00001099,-0.00059517,0.00054097,-0.000565
 85,0.00103486,-0.00006047,-0.00074869,0.00123597,-0.00247575,-0.000325
 91,0.00078182,-0.00007936,0.00036501,-0.00023925,-0.00057839,-0.000154
 68,-0.00007646,-0.00010329,0.00002392,0.00550591,0.00905307,-0.0012263
 6,-0.13569750,-0.19568251,0.04795525,-0.01903399,-0.01856485,0.0062142
 6,-0.00121023,-0.00051516,-0.00081259,-0.00071492,0.00037456,-0.000229
 95,0.00086535,0.00013625,-0.00014296,-0.00028659,0.00065128,0.00001230
 ,-0.00037556,-0.00048610,-0.00024944,-0.00015039,-0.00012847,0.0004622
 5,0.00008366,0.00010786,0.00004129,-0.00007040,0.00010882,-0.00003518,
 0.00003044,0.00001867,-0.00003905,0.00006153,0.00003401,-0.00006096,-0
 .00017016,-0.00011246,-0.00001553,0.00011281,-0.00037115,0.00016057,-0
 .00101247,-0.00036467,0.00030587,0.00346838,-0.00256025,0.00196012,0.0
 0081447,0.00012848,-0.00010191,-0.00026331,-0.00000066,0.00005441,0.00
 022058,0.00007214,-0.00039895,0.00028051,0.00049023,0.00007111,0.00181
 388,0.00032163,0.00224788,-0.00000519,0.00001013,0.00001714,-0.0000205
 8,0.00000704,-0.00001475,-0.00006356,0.00003724,-0.00000236,0.14354485
 ,0.20984070,-0.00013405,0.00011780,-0.00000641,0.00014252,0.00000669,-
 0.00000436,-0.00065380,0.00066646,-0.00035458,0.00039016,-0.00189787,-
 0.00373664,0.00030969,-0.00041120,0.00069674,0.00055186,-0.00026928,0.
 00014593,-0.00039388,-0.00048017,-0.00021224,0.00000940,-0.00010341,-0
 .00001477,-0.00292810,-0.00073564,0.00531389,0.04229100,0.04874812,-0.
 05273524,0.00610297,0.00608456,0.00172453,-0.00006852,-0.00099153,-0.0
 0288012,0.00027924,0.00032191,-0.00016533,-0.00039939,-0.00001809,-0.0
 0007031,-0.00005067,-0.00044798,0.00003506,0.00046888,0.00007378,0.000
 66859,-0.00004579,0.00020151,-0.00004486,0.00021717,-0.00014289,0.0001
 1363,-0.00006844,0.00010601,-0.00009035,-0.00000816,0.00000832,-0.0000
 2411,0.00012181,-0.00001916,-0.00002350,-0.00038222,0.00006196,-0.0000
 2983,0.00000020,0.00003309,-0.00025711,0.00049777,-0.00031323,0.000649
 98,-0.00117940,0.00261475,0.00338616,0.00003971,-0.00007964,-0.0004412
 8,-0.00008319,-0.00001402,0.00019556,0.00006930,-0.00030749,-0.0011229
 7,-0.00009806,0.00004575,0.00076284,-0.00094418,0.00185600,0.00694372,
 -0.00001281,0.00000889,0.00001918,-0.00000933,0.00001839,-0.00002082,-
 0.00004554,0.00005460,0.00002469,-0.04406467,-0.05472145,0.04156056,-0
 .00001178,-0.00004052,0.00001358,-0.00003259,0.00002184,-0.00003099,0.
 00006140,-0.00001205,0.00013905,-0.00000231,0.00013130,-0.00020742,-0.
 00006146,-0.00003603,-0.00000103,-0.00002062,0.00000894,0.00004328,0.0
 0004526,0.00001818,-0.00002446,0.00000689,0.00002504,-0.00000317,0.000
 05576,-0.00028653,0.00018251,-0.00011681,0.00018581,-0.00021933,-0.000
 42245,-0.00063705,0.00003802,-0.00268531,-0.00112492,0.00059174,-0.000
 08745,-0.00115201,-0.00045609,-0.00005262,-0.00074111,-0.00014213,0.00
 171452,0.00074681,-0.00044124,0.00854679,-0.01489096,0.01337336,-0.089
 16113,0.06853699,-0.06820711,0.00056364,0.00078183,-0.00260174,0.00020
 238,0.00042145,-0.00017063,0.00017904,0.00002628,-0.00030582,-0.000091
 53,0.00002351,0.00005961,-0.00015719,-0.00019417,0.00033652,0.00081410
 ,0.00037513,-0.00049745,-0.01606160,0.02236012,-0.01486772,-0.00437199
 ,0.00000959,0.00204050,0.00020877,0.00140780,-0.00022980,0.00009629,-0
 .00005692,0.00016625,-0.00001902,0.00005203,0.00000140,-0.00012497,0.0
 0004139,-0.00008231,-0.00014892,0.00003430,-0.00020657,0.00000157,-0.0
 0000282,0.00000069,0.00000929,-0.00000201,-0.00000049,-0.00000302,0.00
 000028,-0.00001139,-0.00002596,0.00003461,-0.00000743,0.10107522,-0.00
 000469,0.00001164,0.00001188,0.00001665,-0.00000622,-0.00002066,-0.000
 05456,0.00001880,0.00010210,0.00008123,-0.00000072,-0.00013759,-0.0000
 2434,-0.00001083,0.00002107,0.00001515,-0.00000579,-0.00000371,0.00000
 127,-0.00000320,-0.00003955,0.00000992,-0.00001139,0.00000581,-0.00006
 675,0.00000321,0.00007265,-0.00003330,0.00001847,0.00018625,-0.0002491
 7,0.00025195,-0.00028704,-0.00314080,-0.00047512,0.00076339,-0.0001629
 3,-0.00114460,-0.00045086,-0.00011402,-0.00066815,-0.00054313,0.002187
 33,0.00230694,-0.00047807,0.00756231,-0.02193751,0.01502604,0.07106397
 ,-0.16493177,0.11404763,-0.00546781,0.01101279,-0.01290959,-0.00043371
 ,0.00036783,-0.00018028,0.00029695,0.00040983,-0.00116371,0.00014736,-
 0.00107669,-0.00069062,-0.00072517,-0.00072926,-0.00013235,-0.00217028
 ,0.00059883,0.00047042,0.00548224,-0.00728223,0.00440851,0.00162923,0.
 00078478,-0.00005338,-0.00020518,-0.00043193,-0.00005765,-0.00001396,0
 .00008906,-0.00005579,0.00014802,-0.00001515,0.00003706,0.00002962,-0.
 00001971,-0.00002486,0.00021948,0.00008669,0.00000996,0.00000165,-0.00
 000131,0.00000030,-0.00000114,0.00000318,-0.00000147,-0.00000097,0.000
 00010,0.00000441,-0.00001162,-0.00001559,-0.00001895,-0.07596523,0.182
 92239,0.00000396,0.00000767,0.00000602,0.00001728,-0.00000611,-0.00001
 008,-0.00001799,-0.00001790,0.00003820,0.00001107,0.00000115,-0.000025
 35,0.00000432,0.00000428,0.00004044,-0.00000851,-0.00001085,-0.0000440
 2,0.00000874,0.00003636,0.00000079,-0.00000998,-0.00000831,-0.00000199
 ,-0.00005487,0.00007221,0.00020088,0.00002270,-0.00006693,-0.00014517,
 -0.00009960,0.00022758,0.00007062,-0.00025220,-0.00039933,-0.00019828,
 0.00003934,-0.00058629,-0.00002441,0.00039453,0.00030646,0.00001200,-0
 .00052449,-0.00063141,0.00053847,0.00000591,0.00044924,0.00083642,-0.0
 7235268,0.11634118,-0.15023444,-0.00952108,0.01529392,-0.02599005,-0.0
 0021988,-0.00007270,0.00073363,0.00056239,0.00052269,-0.00116620,0.000
 80494,-0.00101584,-0.00029444,-0.00238647,-0.00198112,-0.00037373,0.00
 144041,-0.00118651,-0.00018527,0.00751363,-0.00874358,0.00595706,0.002
 74749,0.00043033,0.00010402,0.00024077,-0.00071526,0.00002651,-0.00002
 132,-0.00016488,0.00002391,0.00002627,-0.00001733,0.00006465,0.0000806
 9,-0.00013948,0.00002470,0.00016585,0.00011989,-0.00004433,-0.00000197
 ,0.00000202,-0.00000184,-0.00000370,0.00000734,-0.00000334,0.00000277,
 0.00000379,0.00000347,-0.00000368,0.00000445,-0.00003754,0.07170157,-0
 .11784742,0.16989793,0.00000418,0.00001988,-0.00000519,0.00000850,-0.0
 0000093,0.00000555,-0.00001064,0.00000140,-0.00000668,0.00000685,0.000
 00012,0.00001999,0.00000552,0.00000596,-0.00000988,0.00000370,-0.00001
 204,0.00001263,-0.00000388,-0.00000638,-0.00000114,-0.00000989,-0.0000
 1606,-0.00000308,0.00001259,-0.00000507,-0.00003294,-0.00001944,0.0000
 0951,0.00001743,0.00001518,0.00001263,0.00004430,0.00008098,-0.0000789
 3,0.00005765,0.00006611,0.00006100,-0.00004018,-0.00002912,0.00001775,
 -0.00008055,0.00005053,0.00015203,0.00016301,0.00006467,0.00010555,0.0
 0037490,0.00180652,0.00030932,-0.00056755,-0.00070081,-0.00065919,0.00
 200987,-0.00082087,0.00401650,0.00301627,-0.04399582,-0.06549635,-0.03
 955689,0.00113005,-0.00525481,-0.00763876,0.00509409,-0.00376669,0.001
 28168,-0.00001020,0.00010806,0.00008072,-0.00023900,-0.00022752,-0.000
 06039,0.00004340,-0.00012795,-0.00011246,0.00001144,-0.00000955,0.0000
 6587,0.00001366,0.00001532,-0.00000933,-0.00004147,0.00001365,0.000005
 31,0.00001219,0.00001133,-0.00000982,-0.00001570,0.00000046,0.00001640
 ,-0.00000092,0.00000143,0.00000072,-0.00000268,0.00000213,0.00000329,0
 .00000074,0.00000079,-0.00000013,0.00000092,-0.00000470,-0.00000500,-0
 .00005474,-0.00011628,-0.00007317,0.04091564,-0.00000356,-0.00001560,0
 .00000114,-0.00001332,0.00000244,-0.00000102,0.00001996,-0.00000482,0.
 00000098,-0.00001962,0.00001639,0.00000398,-0.00000567,-0.00000678,-0.
 00000705,-0.00000262,0.00000837,0.00000033,0.00000423,0.00000418,0.000
 00164,0.00000663,0.00001165,0.00000223,0.00002014,-0.00002315,-0.00002
 387,-0.00002997,0.00002801,0.00004457,-0.00001046,-0.00005311,-0.00007
 747,0.00003280,0.00010705,0.00004541,0.00000107,0.00001460,0.00000086,
 0.00003857,0.00004031,0.00004511,0.00010259,-0.00007043,-0.00010836,-0
 .00030747,-0.00005670,-0.00007081,-0.00031626,0.00072142,0.00028057,-0
 .00042845,-0.00046269,0.00273496,0.00177363,0.00456863,0.00552646,-0.0
 6555657,-0.23477213,-0.14044999,-0.00255556,-0.00944612,-0.01825778,-0
 .00397546,-0.00277986,0.00223745,0.00002664,-0.00009278,0.00001120,0.0
 0022808,0.00008773,-0.00008079,-0.00003418,0.00004503,0.00000580,-0.00
 001292,0.00000429,-0.00001111,-0.00000208,0.00000409,-0.00000469,0.000
 03071,-0.00000397,0.00000386,-0.00000410,0.00000621,0.00000168,0.00003
 033,0.00000855,-0.00000314,0.00000116,-0.00000115,-0.00000033,0.000001
 89,-0.00000171,-0.00000309,-0.00000049,-0.00000141,-0.00000162,-0.0000
 0672,-0.00000796,-0.00001400,-0.00003956,0.00003664,-0.00008537,0.0693
 8771,0.24228310,0.00000562,0.00002802,0.00000309,0.00002739,-0.0000088
 4,0.00001334,-0.00005511,0.00001407,-0.00002817,0.00003777,-0.00004693
 ,0.00001725,0.00001251,0.00002280,-0.00001164,0.00001781,-0.00001916,0
 .00001195,-0.00003206,-0.00002068,-0.00001404,0.00001139,-0.00002251,0
 .00000763,-0.00008153,0.00007380,0.00000062,0.00011170,-0.00006879,-0.
 00000763,-0.00004295,0.00012215,0.00001692,-0.00004585,-0.00007785,-0.
 00007558,-0.00002343,-0.00006899,0.00004697,-0.00003199,-0.00008799,0.
 00001982,-0.00005104,0.00004258,0.00002583,0.00029085,-0.00000580,-0.0
 0032631,-0.00030788,-0.00124336,0.00022286,0.00129009,0.00211558,-0.00
 464556,-0.00465646,-0.01426471,-0.00896195,-0.04151999,-0.14598387,-0.
 15492326,0.00273405,0.00924389,0.01032781,0.00124532,0.00179605,0.0005
 4558,-0.00004039,-0.00008978,-0.00007642,-0.00022514,0.00013352,0.0000
 3736,0.00003296,-0.00004336,0.00006567,-0.00002377,-0.00002367,-0.0000
 1198,0.00001247,0.00002011,0.00002627,-0.00000343,-0.00001097,-0.00001
 396,-0.00000161,-0.00001935,0.00000757,0.00000785,-0.00001926,0.000005
 76,0.00000130,-0.00000130,0.00000027,-0.00000130,0.00000002,-0.0000025
 8,-0.00000070,-0.00000115,0.00000264,-0.00000154,-0.00000041,0.0000130
 4,0.00009193,0.00002410,0.00024439,0.04189105,0.14879598,0.15637694,-0
 .00000173,0.00002002,-0.00000563,0.00000379,-0.00000377,-0.00000443,0.
 00000677,0.00000202,-0.00000651,0.00000703,-0.00000313,-0.00000176,0.0
 0000285,0.00000114,-0.00001135,0.00000868,-0.00000779,-0.00000178,0.00
 000051,-0.00000065,0.00000751,-0.00001434,-0.00001578,-0.00000446,0.00
 001747,0.00003170,0.00001309,-0.00002308,0.00003318,0.00003564,0.00005
 816,-0.00001587,-0.00003980,0.00005803,-0.00002568,0.00009465,0.000006
 54,0.00001257,0.00002982,-0.00004358,-0.00002853,-0.00002238,0.0000040
 5,0.00003980,0.00002464,-0.00004734,0.00001900,-0.00014786,0.00086345,
 -0.00015832,0.00010659,0.00133491,-0.00165564,-0.00104068,0.00505179,-
 0.00303798,0.00162200,0.00303785,-0.00255395,0.01085703,-0.04641003,-0
 .02074969,0.05632311,0.00200979,0.00204650,-0.00551350,0.00004239,-0.0
 0005173,-0.00016765,-0.00004611,-0.00008616,-0.00016540,-0.00001649,0.
 00000195,0.00002366,0.00002462,0.00001010,0.00001568,-0.00000659,-0.00
 001479,-0.00000883,-0.00002967,0.00000022,0.00001215,-0.00000202,0.000
 00428,-0.00001305,-0.00001143,-0.00000742,0.00000544,-0.00000184,0.000
 00177,0.00000198,-0.00000623,0.00000277,0.00000621,0.00000070,0.000001
 08,0.00000148,-0.00000193,-0.00002086,-0.00001897,-0.00001201,0.000131
 03,0.00005162,-0.00394521,0.00183213,-0.00082621,0.03924798,-0.0000031
 3,-0.00001800,0.00000028,-0.00001572,0.00000316,-0.00000316,0.00001816
 ,-0.00000357,0.00001070,-0.00000733,-0.00000468,-0.00000718,-0.0000055
 6,-0.00001118,0.00000294,-0.00000543,0.00001085,-0.00000453,0.00001400
 ,0.00000492,0.00000267,-0.00000262,0.00001644,-0.00000321,0.00003446,0
 .00001214,0.00002070,-0.00001051,0.00002157,0.00000260,-0.00001085,0.0
 0000969,-0.00000947,-0.00001295,0.00002603,0.00001861,-0.00000182,-0.0
 0004797,0.00001585,0.00000112,-0.00000766,-0.00000617,-0.00000513,-0.0
 0002217,0.00001474,0.00010258,0.00018723,0.00006750,0.00005834,0.00066
 499,-0.00090356,-0.00175086,-0.00341988,-0.00340905,-0.00328195,-0.001
 87829,0.00244312,-0.00589191,-0.00195120,0.02583686,-0.02044050,-0.067
 09385,0.06007380,0.00533843,0.00862376,-0.01926897,0.00010410,0.000241
 17,0.00008089,-0.00026743,-0.00008796,0.00013844,0.00003297,-0.0000037
 2,-0.00005643,-0.00001527,0.00000643,-0.00000533,-0.00000569,-0.000004
 04,0.00000704,0.00001771,-0.00000534,0.00000236,0.00000351,0.00000548,
 -0.00000028,-0.00001103,-0.00000715,0.00000820,0.00000043,0.00000060,-
 0.00000058,0.00000361,-0.00000060,-0.00000152,0.00000054,0.00000019,-0
 .00000162,-0.00000224,-0.00000272,-0.00000868,-0.00005260,-0.00022049,
 -0.00031422,0.00198073,0.00018167,-0.00060912,0.02345098,0.06452510,0.
 00001498,0.00002708,0.00000238,0.00003866,-0.00000131,0.00001946,-0.00
 006162,0.00000887,-0.00001543,0.00002905,-0.00000818,0.00002179,0.0000
 0728,0.00003002,0.00000878,0.00000617,-0.00003093,0.00001180,-0.000027
 63,-0.00001441,-0.00000761,0.00000480,-0.00002366,0.00000332,-0.000098
 51,-0.00003843,-0.00001301,0.00007569,-0.00007367,-0.00001746,-0.00009
 586,0.00009585,0.00000796,-0.00011820,-0.00003629,-0.00009514,0.000032
 22,-0.00005698,0.00001009,-0.00004535,-0.00007576,-0.00002452,-0.00000
 069,0.00001780,-0.00001992,0.00018766,0.00028387,0.00039230,0.00034705
 ,0.00051581,-0.00048955,-0.00035406,-0.00232084,-0.00226121,0.00035046
 ,-0.00027303,0.00140557,0.00124124,-0.00043107,-0.00425382,0.05530999,
 0.05868903,-0.31673338,0.00535697,0.00856936,-0.01261229,0.00008190,-0
 .00004166,-0.00008076,-0.00023720,0.00008945,-0.00000552,0.00006555,-0
 .00006775,-0.00010577,-0.00002637,-0.00003885,0.00001533,0.00002878,0.
 00003394,0.00002028,-0.00001528,0.00001531,-0.00001891,0.00001716,-0.0
 0002902,0.00001758,0.00001947,0.00001779,-0.00003054,0.00000032,-0.000
 00086,-0.00000216,0.00000235,0.,-0.00000439,0.00000048,0.00000142,0.00
 000007,0.00000568,0.00001258,0.00000472,0.00002315,-0.00010165,-0.0001
 7767,-0.00046717,0.00054070,0.00039913,-0.06131834,-0.06509301,0.33404
 770,0.00000439,0.00002816,0.00000357,0.00003109,-0.00000194,-0.0000108
 5,-0.00001503,-0.00000782,0.00002504,-0.00001383,0.00004663,-0.0000039
 6,-0.00003316,0.00003546,0.00001605,-0.00000221,-0.00001916,-0.0000032
 7,0.00000026,-0.00000281,-0.00002583,-0.00000779,-0.00002855,0.0000010
 7,-0.00003228,0.00004890,0.00007823,-0.00002426,0.00003480,-0.00033340
 ,-0.00011223,0.00016473,0.00049912,0.00008216,-0.00029594,-0.00061778,
 0.00030599,0.00021255,-0.00015111,-0.00037116,-0.00046215,-0.00013994,
 0.00015240,0.00037682,-0.00011457,0.00003367,0.00005277,0.00109535,-0.
 00335818,0.00164259,-0.00038495,0.00107136,-0.00726181,0.00004123,0.00
 512845,-0.00209075,0.00078177,0.00189481,-0.00133954,0.00023163,-0.000
 52813,-0.00132510,0.00212789,-0.07863969,-0.11035722,0.01873165,-0.000
 06691,0.00004558,0.00023577,0.00051518,-0.00026613,0.00033823,-0.00017
 485,-0.00009107,-0.00033246,-0.00001519,-0.00000427,-0.00006762,-0.000
 06127,0.00000670,-0.00001066,0.00002501,0.00001071,0.00002755,-0.00003
 203,-0.00001717,-0.00003089,-0.00001402,0.00000914,0.00007704,-0.00000
 199,0.00000078,0.00000128,-0.00001201,0.00000442,0.00000659,-0.0000017
 6,0.00000247,0.00000315,0.00004984,0.00008161,0.00010994,0.00014456,-0
 .00006150,-0.00029468,0.00055292,-0.00021323,0.00015034,-0.00116775,0.
 00063889,-0.00038080,0.07469366,0.00000573,-0.00000879,-0.00000423,-0.
 00000469,0.00000483,0.00000150,0.00001556,-0.00000994,-0.00001117,-0.0
 0000731,0.00003243,0.00001316,0.00000361,-0.00001018,0.00002666,-0.000
 00690,0.00000435,-0.00001661,-0.00000121,0.00001236,0.00002466,0.00000
 086,0.00000503,-0.00000069,-0.00001859,-0.00010280,-0.00002577,-0.0000
 2468,0.00000557,0.00004894,-0.00005405,-0.00011662,-0.00024165,0.00004
 288,0.00026225,-0.00021262,-0.00005265,-0.00014490,0.00009910,0.000080
 56,0.00027786,0.00001244,0.00034530,-0.00015950,-0.00052961,-0.0004712
 1,0.00010434,-0.00060308,0.00134696,-0.00096896,-0.00049107,-0.0035796
 1,-0.00507605,0.00042720,-0.00218596,0.00100542,-0.00008017,-0.0013261
 9,-0.00140714,-0.00204804,-0.00511213,-0.01019516,0.00674473,-0.109685
 37,-0.28737524,0.03778410,0.00001648,0.00007747,-0.00023625,-0.0000959
 7,0.00006844,0.00016871,-0.00003204,0.00007670,0.00008574,-0.00000277,
 0.00001673,0.00000095,0.00000109,0.00000360,-0.00001412,0.00002783,-0.
 00001093,0.00000279,-0.00000114,0.00001825,0.00002112,0.00003420,0.000
 02823,-0.00003044,-0.00000087,-0.00000051,-0.00000027,0.00000277,-0.00
 000125,0.00000049,0.00000129,-0.00000073,-0.00000080,-0.00000019,0.000
 00327,-0.00003390,-0.00000873,0.00006454,0.00018028,-0.00045080,-0.000
 37998,0.00030516,0.00079549,0.00024906,-0.00019153,0.12040246,0.303647
 97,-0.00001471,-0.00003671,0.00000024,-0.00002780,0.00001266,-0.000025
 03,0.00006733,0.00000652,0.00002500,-0.00004415,0.00006510,-0.00003501
 ,-0.00001740,-0.00003328,-0.00001768,-0.00000175,0.00002542,-0.0000011
 5,0.00002278,-0.00000362,0.00000813,-0.00000978,0.00002853,-0.00000929
 ,0.00011196,-0.00004876,0.00002234,-0.00014448,0.00004711,-0.00002728,
 0.00041626,-0.00012383,-0.00002236,0.00024801,-0.00006981,-0.00013556,
 -0.00035845,-0.00003147,-0.00012030,-0.00005951,-0.00006536,-0.0001914
 9,-0.00059109,-0.00019590,0.00003701,0.00034508,-0.00045644,-0.0008829
 3,-0.00047154,0.00023065,0.00149488,0.01078147,0.02524719,-0.00108124,
 0.00195142,0.00240530,-0.00286631,-0.00058233,-0.00378590,-0.00430040,
 -0.00925149,-0.02034742,0.00900060,0.01979580,0.03859879,-0.06244606,-
 0.00013093,-0.00016392,0.00023419,0.00015058,0.00003084,-0.00032450,-0
 .00003873,0.00004300,0.00007451,0.00003617,-0.00006494,0.00001060,0.00
 001515,0.00000344,-0.00001913,-0.00009259,-0.00000884,0.00001723,-0.00
 000159,0.00002572,-0.00003264,-0.00005127,-0.00000328,0.00002497,-0.00
 000091,-0.00000026,0.00000284,-0.00000070,-0.00000414,0.00000697,-0.00
 000278,-0.00000401,0.00000072,0.00002061,-0.00002783,0.00001356,-0.000
 08888,0.00000677,0.00013403,-0.00038634,-0.00108441,0.00066037,0.00008
 631,0.00095878,0.00058079,-0.02167973,-0.04117572,0.06018936\\-0.00000
 014,-0.00000293,-0.00000500,0.00000291,0.00000294,0.00000108,-0.000003
 12,-0.00000369,-0.00000190,0.00000043,-0.00000532,-0.00000106,0.000009
 60,-0.00000345,0.00000662,-0.00001014,0.00000806,-0.00000519,-0.000000
 81,0.00000143,-0.00000245,0.00000504,0.00000159,0.00000227,-0.00000239
 ,0.00001176,0.00000001,0.00000183,-0.00000241,-0.00000328,-0.00000587,
 0.00000311,-0.00000734,-0.00000856,0.00000673,-0.00000661,0.00000365,-
 0.00000365,0.00000981,-0.00000367,0.00000153,-0.00000107,-0.00000630,-
 0.00000127,0.00000224,0.00001241,-0.00001245,-0.00000762,0.00001410,0.
 00000116,0.00003120,-0.00000765,0.00000675,-0.00002043,-0.00000482,-0.
 00000048,-0.00001022,0.00001643,-0.00002979,0.00003175,-0.00000600,0.0
 0002860,-0.00000430,0.00000725,-0.00000852,0.00001271,-0.00000290,-0.0
 0000228,-0.00000141,-0.00001287,0.00000720,-0.00001601,0.00001548,-0.0
 0000368,0.00001947,-0.00000781,0.00000026,0.00000614,0.00000020,-0.000
 00010,-0.00000164,0.00001276,0.00002550,-0.00000546,-0.00000901,-0.000
 01890,0.00000614,0.00000135,-0.00001404,-0.00001056,0.00000148,0.00000
 101,-0.00000224,0.00000100,-0.00000074,-0.00000016,0.00000204,-0.00000
 007,-0.00000277,0.00000037,0.00000028,0.00000268,-0.00000844,-0.000001
 33,-0.00001215,-0.00000971,0.00000425,0.00000026,0.00000377,0.00000051
 ,0.00000204,-0.00000188,0.00000241,-0.00000556\\\@


 ERROR IS A HARDY PLANT... IT FLOURISHETH IN EVERY SOIL.
            MARTIN FARQUHAR TUPPER
 Job cpu time:  1 days  2 hours  6 minutes 34.4 seconds.
 File lengths (MBytes):  RWF=   1960 Int=      0 D2E=      0 Chk=     32 Scr=      1
 Normal termination of Gaussian 09 at Mon Dec 30 05:27:47 2013.
