 Entering Gaussian System, Link 0=g09
 Initial command:
 /opt/gaussian/g09/l1.exe /panfs/panfs.cluster/home/shuo/Gau-3407.inp -scrdir=/panfs/panfs.cluster/home/shuo/
 Default is to use a total of  12 processors:
                               12 via shared-memory
                                1 via Linda
 Entering Link 1 = /opt/gaussian/g09/l1.exe PID=      3409.
  
 Copyright (c) 1988,1990,1992,1993,1995,1998,2003,2009,2011,
            Gaussian, Inc.  All Rights Reserved.
  
 This is part of the Gaussian(R) 09 program.  It is based on
 the Gaussian(R) 03 system (copyright 2003, Gaussian, Inc.),
 the Gaussian(R) 98 system (copyright 1998, Gaussian, Inc.),
 the Gaussian(R) 94 system (copyright 1995, Gaussian, Inc.),
 the Gaussian 92(TM) system (copyright 1992, Gaussian, Inc.),
 the Gaussian 90(TM) system (copyright 1990, Gaussian, Inc.),
 the Gaussian 88(TM) system (copyright 1988, Gaussian, Inc.),
 the Gaussian 86(TM) system (copyright 1986, Carnegie Mellon
 University), and the Gaussian 82(TM) system (copyright 1983,
 Carnegie Mellon University). Gaussian is a federally registered
 trademark of Gaussian, Inc.
  
 This software contains proprietary and confidential information,
 including trade secrets, belonging to Gaussian, Inc.
  
 This software is provided under written license and may be
 used, copied, transmitted, or stored only in accord with that
 written license.
  
 The following legend is applicable only to US Government
 contracts under FAR:
  
                    RESTRICTED RIGHTS LEGEND
  
 Use, reproduction and disclosure by the US Government is
 subject to restrictions as set forth in subparagraphs (a)
 and (c) of the Commercial Computer Software - Restricted
 Rights clause in FAR 52.227-19.
  
 Gaussian, Inc.
 340 Quinnipiac St., Bldg. 40, Wallingford CT 06492
  
  
 ---------------------------------------------------------------
 Warning -- This program may not be used in any manner that
 competes with the business of Gaussian, Inc. or will provide
 assistance to any competitor of Gaussian, Inc.  The licensee
 of this program is prohibited from giving any competitor of
 Gaussian, Inc. access to this program.  By using this program,
 the user acknowledges that Gaussian, Inc. is engaged in the
 business of creating and licensing software in the field of
 computational chemistry and represents and warrants to the
 licensee that it is not a competitor of Gaussian, Inc. and that
 it will not use this program in any manner prohibited above.
 ---------------------------------------------------------------
  

 Cite this work as:
 Gaussian 09, Revision C.01,
 M. J. Frisch, G. W. Trucks, H. B. Schlegel, G. E. Scuseria, 
 M. A. Robb, J. R. Cheeseman, G. Scalmani, V. Barone, B. Mennucci, 
 G. A. Petersson, H. Nakatsuji, M. Caricato, X. Li, H. P. Hratchian, 
 A. F. Izmaylov, J. Bloino, G. Zheng, J. L. Sonnenberg, M. Hada, 
 M. Ehara, K. Toyota, R. Fukuda, J. Hasegawa, M. Ishida, T. Nakajima, 
 Y. Honda, O. Kitao, H. Nakai, T. Vreven, J. A. Montgomery, Jr., 
 J. E. Peralta, F. Ogliaro, M. Bearpark, J. J. Heyd, E. Brothers, 
 K. N. Kudin, V. N. Staroverov, T. Keith, R. Kobayashi, J. Normand, 
 K. Raghavachari, A. Rendell, J. C. Burant, S. S. Iyengar, J. Tomasi, 
 M. Cossi, N. Rega, J. M. Millam, M. Klene, J. E. Knox, J. B. Cross, 
 V. Bakken, C. Adamo, J. Jaramillo, R. Gomperts, R. E. Stratmann, 
 O. Yazyev, A. J. Austin, R. Cammi, C. Pomelli, J. W. Ochterski, 
 R. L. Martin, K. Morokuma, V. G. Zakrzewski, G. A. Voth, 
 P. Salvador, J. J. Dannenberg, S. Dapprich, A. D. Daniels, 
 O. Farkas, J. B. Foresman, J. V. Ortiz, J. Cioslowski, 
 and D. J. Fox, Gaussian, Inc., Wallingford CT, 2010.
 
 ******************************************
 Gaussian 09:  EM64L-G09RevC.01 23-Sep-2011
                31-Dec-2013 
 ******************************************
 %chk=19_C23H15N3S2Si.chk
 %NProcShared=12
 Will use up to   12 processors via shared memory.
 %Mem=8000MB
 Default route:  MaxDisk=100GB
 --------------------------------------------
 #B3LYP/6-31++G(d,p) opt scf=direct freq test
 --------------------------------------------
 1/14=-1,18=20,19=15,26=3,38=1/1,3;
 2/9=110,12=2,17=6,18=5,40=1/2;
 3/5=1,6=6,7=1111,11=2,16=1,25=1,30=1,71=1,74=-5/1,2,3;
 4//1;
 5/5=2,38=5/2;
 6/7=2,8=2,9=2,10=2,28=1/1;
 7//1,2,3,16;
 1/14=-1,18=20,19=15/3(2);
 2/9=110/2;
 99//99;
 2/9=110/2;
 3/5=1,6=6,7=1111,11=2,16=1,25=1,30=1,71=1,74=-5/1,2,3;
 4/5=5,16=3/1;
 5/5=2,38=5/2;
 7//1,2,3,16;
 1/14=-1,18=20,19=15/3(-5);
 2/9=110/2;
 6/7=2,8=2,9=2,10=2,19=2,28=1/1;
 99/9=1/99;
 ----------------------------------------------------------------------
 Geom opt of No.19 candidate from the CEPDB database with SMILE code of
  [SiH2]1ccc2c1c(sc2-c1sc(-c2nccc3nsnc23)c2ccoc12)-c1nccs1, HPC, 201312
 27, Shuo Dai, Gaussian09
 ----------------------------------------------------------------------
 Charge =  0 Multiplicity = 1
 Symbolic Z-Matrix:
 Si                   -1.55842   1.61419   0.00462 
 H                    -1.68375   2.3416   -1.27888 
 H                    -1.6797    2.32278   1.29868 
 C                    -2.3926   -0.05652   0.00033 
 C                    -1.47626  -1.04106  -0.0012 
 C                    -0.10407  -0.60899  -0.00017 
 C                     0.08191   0.80328   0.00187 
 C                     1.37041   1.23442   0.00228 
 S                     2.38895  -0.10962   0.00797 
 C                     1.11119  -1.24335  -0.00035 
 C                     1.50708  -2.60477  -0.00369 
 S                     3.15208  -3.103    -0.00838 
 C                     2.76904  -4.77044  -0.00816 
 C                     3.89323  -5.67394  -0.01311 
 N                     5.18634  -5.19142  -0.02201 
 C                     6.258    -6.03735  -0.02773 
 C                     6.20394  -7.42558  -0.02466 
 C                     4.89557  -7.94625  -0.01727 
 N                     4.56831  -9.2476   -0.01523 
 S                     2.91306  -9.33171  -0.00758 
 N                     2.54869  -7.732    -0.00511 
 C                     3.70642  -7.05747  -0.01138 
 C                     1.41243  -4.89695  -0.00391 
 C                     0.32185  -5.81367  -0.00016 
 C                    -0.84532  -5.04986  -0.00064 
 O                    -0.60666  -3.71324  -0.0018 
 C                     0.74744  -3.68937  -0.00335 
 C                     1.94829   2.53621  -0.00005 
 N                     1.2343    3.63859   0.00872 
 C                     2.09131   4.71848  -0.00259 
 C                     3.43512   4.42555  -0.01821 
 S                     3.66568   2.75319  -0.01912 
 H                    -3.46238  -0.18813   0.00254 
 H                    -1.81489  -2.06268  -0.00097 
 H                     7.22652  -5.53366  -0.03602 
 H                     7.07877  -8.05564  -0.02869 
 H                     0.31357  -6.88874   0.00221 
 H                    -1.89783  -5.29633  -0.00003 
 H                     1.67511   5.71398   0.00049 
 H                     4.29366   5.07185  -0.02975 
 

 GradGradGradGradGradGradGradGradGradGradGradGradGradGradGradGradGradGrad
 Berny optimization.
 Initialization pass.
                           ----------------------------
                           !    Initial Parameters    !
                           ! (Angstroms and Degrees)  !
 --------------------------                            --------------------------
 ! Name  Definition              Value          Derivative Info.                !
 --------------------------------------------------------------------------------
 ! R1    R(1,2)                  1.4806         estimate D2E/DX2                !
 ! R2    R(1,3)                  1.4803         estimate D2E/DX2                !
 ! R3    R(1,4)                  1.8674         estimate D2E/DX2                !
 ! R4    R(1,7)                  1.8298         estimate D2E/DX2                !
 ! R5    R(4,5)                  1.345          estimate D2E/DX2                !
 ! R6    R(4,33)                 1.0778         estimate D2E/DX2                !
 ! R7    R(5,6)                  1.4386         estimate D2E/DX2                !
 ! R8    R(5,34)                 1.0763         estimate D2E/DX2                !
 ! R9    R(6,7)                  1.4245         estimate D2E/DX2                !
 ! R10   R(6,10)                 1.3709         estimate D2E/DX2                !
 ! R11   R(7,8)                  1.3587         estimate D2E/DX2                !
 ! R12   R(8,9)                  1.6864         estimate D2E/DX2                !
 ! R13   R(8,28)                 1.4243         estimate D2E/DX2                !
 ! R14   R(9,10)                 1.7082         estimate D2E/DX2                !
 ! R15   R(10,11)                1.4178         estimate D2E/DX2                !
 ! R16   R(11,12)                1.7188         estimate D2E/DX2                !
 ! R17   R(11,27)                1.3242         estimate D2E/DX2                !
 ! R18   R(12,13)                1.7109         estimate D2E/DX2                !
 ! R19   R(13,14)                1.4423         estimate D2E/DX2                !
 ! R20   R(13,23)                1.3625         estimate D2E/DX2                !
 ! R21   R(14,15)                1.3802         estimate D2E/DX2                !
 ! R22   R(14,22)                1.3961         estimate D2E/DX2                !
 ! R23   R(15,16)                1.3653         estimate D2E/DX2                !
 ! R24   R(16,17)                1.3893         estimate D2E/DX2                !
 ! R25   R(16,35)                1.0917         estimate D2E/DX2                !
 ! R26   R(17,18)                1.4082         estimate D2E/DX2                !
 ! R27   R(17,36)                1.0781         estimate D2E/DX2                !
 ! R28   R(18,19)                1.3419         estimate D2E/DX2                !
 ! R29   R(18,22)                1.4846         estimate D2E/DX2                !
 ! R30   R(19,20)                1.6574         estimate D2E/DX2                !
 ! R31   R(20,21)                1.6407         estimate D2E/DX2                !
 ! R32   R(21,22)                1.3399         estimate D2E/DX2                !
 ! R33   R(23,24)                1.4247         estimate D2E/DX2                !
 ! R34   R(23,27)                1.3786         estimate D2E/DX2                !
 ! R35   R(24,25)                1.3949         estimate D2E/DX2                !
 ! R36   R(24,37)                1.0751         estimate D2E/DX2                !
 ! R37   R(25,26)                1.3578         estimate D2E/DX2                !
 ! R38   R(25,38)                1.081          estimate D2E/DX2                !
 ! R39   R(26,27)                1.3543         estimate D2E/DX2                !
 ! R40   R(28,29)                1.3134         estimate D2E/DX2                !
 ! R41   R(28,32)                1.7311         estimate D2E/DX2                !
 ! R42   R(29,30)                1.3787         estimate D2E/DX2                !
 ! R43   R(30,31)                1.3755         estimate D2E/DX2                !
 ! R44   R(30,39)                1.079          estimate D2E/DX2                !
 ! R45   R(31,32)                1.6882         estimate D2E/DX2                !
 ! R46   R(31,40)                1.0747         estimate D2E/DX2                !
 ! A1    A(2,1,3)              121.0436         estimate D2E/DX2                !
 ! A2    A(2,1,4)              113.5621         estimate D2E/DX2                !
 ! A3    A(2,1,7)              106.9957         estimate D2E/DX2                !
 ! A4    A(3,1,4)              113.1826         estimate D2E/DX2                !
 ! A5    A(3,1,7)              106.6715         estimate D2E/DX2                !
 ! A6    A(4,1,7)               90.2268         estimate D2E/DX2                !
 ! A7    A(1,4,5)              110.5221         estimate D2E/DX2                !
 ! A8    A(1,4,33)             123.5459         estimate D2E/DX2                !
 ! A9    A(5,4,33)             125.9317         estimate D2E/DX2                !
 ! A10   A(4,5,6)              115.4672         estimate D2E/DX2                !
 ! A11   A(4,5,34)             118.7163         estimate D2E/DX2                !
 ! A12   A(6,5,34)             125.8164         estimate D2E/DX2                !
 ! A13   A(5,6,7)              114.98           estimate D2E/DX2                !
 ! A14   A(5,6,10)             134.9577         estimate D2E/DX2                !
 ! A15   A(7,6,10)             110.0623         estimate D2E/DX2                !
 ! A16   A(1,7,6)              108.8039         estimate D2E/DX2                !
 ! A17   A(1,7,8)              135.1935         estimate D2E/DX2                !
 ! A18   A(6,7,8)              116.0026         estimate D2E/DX2                !
 ! A19   A(7,8,9)              108.655          estimate D2E/DX2                !
 ! A20   A(7,8,28)             132.4374         estimate D2E/DX2                !
 ! A21   A(9,8,28)             118.9076         estimate D2E/DX2                !
 ! A22   A(8,9,10)              94.4254         estimate D2E/DX2                !
 ! A23   A(6,10,9)             110.8534         estimate D2E/DX2                !
 ! A24   A(6,10,11)            133.7782         estimate D2E/DX2                !
 ! A25   A(9,10,11)            115.3683         estimate D2E/DX2                !
 ! A26   A(10,11,12)           123.0645         estimate D2E/DX2                !
 ! A27   A(10,11,27)           128.7789         estimate D2E/DX2                !
 ! A28   A(12,11,27)           108.1566         estimate D2E/DX2                !
 ! A29   A(11,12,13)            93.9128         estimate D2E/DX2                !
 ! A30   A(12,13,14)           115.8509         estimate D2E/DX2                !
 ! A31   A(12,13,23)           108.265          estimate D2E/DX2                !
 ! A32   A(14,13,23)           135.8841         estimate D2E/DX2                !
 ! A33   A(13,14,15)           120.7492         estimate D2E/DX2                !
 ! A34   A(13,14,22)           121.0982         estimate D2E/DX2                !
 ! A35   A(15,14,22)           118.1526         estimate D2E/DX2                !
 ! A36   A(14,15,16)           121.2516         estimate D2E/DX2                !
 ! A37   A(15,16,17)           126.0551         estimate D2E/DX2                !
 ! A38   A(15,16,35)           114.2375         estimate D2E/DX2                !
 ! A39   A(17,16,35)           119.7074         estimate D2E/DX2                !
 ! A40   A(16,17,18)           113.9306         estimate D2E/DX2                !
 ! A41   A(16,17,36)           123.5308         estimate D2E/DX2                !
 ! A42   A(18,17,36)           122.5386         estimate D2E/DX2                !
 ! A43   A(17,18,19)           125.8161         estimate D2E/DX2                !
 ! A44   A(17,18,22)           121.5257         estimate D2E/DX2                !
 ! A45   A(19,18,22)           112.6583         estimate D2E/DX2                !
 ! A46   A(18,19,20)           107.025          estimate D2E/DX2                !
 ! A47   A(19,20,21)            99.9228         estimate D2E/DX2                !
 ! A48   A(20,21,22)           107.3943         estimate D2E/DX2                !
 ! A49   A(14,22,18)           119.0843         estimate D2E/DX2                !
 ! A50   A(14,22,21)           127.9161         estimate D2E/DX2                !
 ! A51   A(18,22,21)           112.9995         estimate D2E/DX2                !
 ! A52   A(13,23,24)           145.2781         estimate D2E/DX2                !
 ! A53   A(13,23,27)           113.513          estimate D2E/DX2                !
 ! A54   A(24,23,27)           101.209          estimate D2E/DX2                !
 ! A55   A(23,24,25)           106.7489         estimate D2E/DX2                !
 ! A56   A(23,24,37)           130.4912         estimate D2E/DX2                !
 ! A57   A(25,24,37)           122.7599         estimate D2E/DX2                !
 ! A58   A(24,25,26)           113.0775         estimate D2E/DX2                !
 ! A59   A(24,25,38)           133.6191         estimate D2E/DX2                !
 ! A60   A(26,25,38)           113.3034         estimate D2E/DX2                !
 ! A61   A(25,26,27)           101.1337         estimate D2E/DX2                !
 ! A62   A(11,27,23)           116.1524         estimate D2E/DX2                !
 ! A63   A(11,27,26)           126.0168         estimate D2E/DX2                !
 ! A64   A(23,27,26)           117.8308         estimate D2E/DX2                !
 ! A65   A(8,28,29)            123.131          estimate D2E/DX2                !
 ! A66   A(8,28,32)            121.1368         estimate D2E/DX2                !
 ! A67   A(29,28,32)           115.732          estimate D2E/DX2                !
 ! A68   A(28,29,30)           108.6294         estimate D2E/DX2                !
 ! A69   A(29,30,31)           116.1418         estimate D2E/DX2                !
 ! A70   A(29,30,39)           118.8726         estimate D2E/DX2                !
 ! A71   A(31,30,39)           124.9856         estimate D2E/DX2                !
 ! A72   A(30,31,32)           110.1459         estimate D2E/DX2                !
 ! A73   A(30,31,40)           130.7339         estimate D2E/DX2                !
 ! A74   A(32,31,40)           119.1202         estimate D2E/DX2                !
 ! A75   A(28,32,31)            89.3509         estimate D2E/DX2                !
 ! D1    D(2,1,4,5)            108.7664         estimate D2E/DX2                !
 ! D2    D(2,1,4,33)           -71.4415         estimate D2E/DX2                !
 ! D3    D(3,1,4,5)           -108.2209         estimate D2E/DX2                !
 ! D4    D(3,1,4,33)            71.5712         estimate D2E/DX2                !
 ! D5    D(7,1,4,5)              0.0663         estimate D2E/DX2                !
 ! D6    D(7,1,4,33)           179.8584         estimate D2E/DX2                !
 ! D7    D(2,1,7,6)           -114.8593         estimate D2E/DX2                !
 ! D8    D(2,1,7,8)             65.1945         estimate D2E/DX2                !
 ! D9    D(3,1,7,6)            114.2638         estimate D2E/DX2                !
 ! D10   D(3,1,7,8)            -65.6823         estimate D2E/DX2                !
 ! D11   D(4,1,7,6)             -0.0746         estimate D2E/DX2                !
 ! D12   D(4,1,7,8)            179.9793         estimate D2E/DX2                !
 ! D13   D(1,4,5,6)             -0.0397         estimate D2E/DX2                !
 ! D14   D(1,4,5,34)           179.8342         estimate D2E/DX2                !
 ! D15   D(33,4,5,6)          -179.8257         estimate D2E/DX2                !
 ! D16   D(33,4,5,34)            0.0482         estimate D2E/DX2                !
 ! D17   D(4,5,6,7)             -0.0203         estimate D2E/DX2                !
 ! D18   D(4,5,6,10)           179.9599         estimate D2E/DX2                !
 ! D19   D(34,5,6,7)          -179.8839         estimate D2E/DX2                !
 ! D20   D(34,5,6,10)            0.0963         estimate D2E/DX2                !
 ! D21   D(5,6,7,1)              0.0701         estimate D2E/DX2                !
 ! D22   D(5,6,7,8)           -179.9722         estimate D2E/DX2                !
 ! D23   D(10,6,7,1)          -179.915          estimate D2E/DX2                !
 ! D24   D(10,6,7,8)             0.0427         estimate D2E/DX2                !
 ! D25   D(5,6,10,9)          -179.764          estimate D2E/DX2                !
 ! D26   D(5,6,10,11)            0.1142         estimate D2E/DX2                !
 ! D27   D(7,6,10,9)             0.2169         estimate D2E/DX2                !
 ! D28   D(7,6,10,11)         -179.9049         estimate D2E/DX2                !
 ! D29   D(1,7,8,9)            179.6622         estimate D2E/DX2                !
 ! D30   D(1,7,8,28)            -0.2824         estimate D2E/DX2                !
 ! D31   D(6,7,8,9)             -0.2811         estimate D2E/DX2                !
 ! D32   D(6,7,8,28)           179.7743         estimate D2E/DX2                !
 ! D33   D(7,8,9,10)             0.3419         estimate D2E/DX2                !
 ! D34   D(28,8,9,10)         -179.7048         estimate D2E/DX2                !
 ! D35   D(7,8,28,29)            0.6272         estimate D2E/DX2                !
 ! D36   D(7,8,28,32)         -179.2101         estimate D2E/DX2                !
 ! D37   D(9,8,28,29)         -179.3129         estimate D2E/DX2                !
 ! D38   D(9,8,28,32)            0.8499         estimate D2E/DX2                !
 ! D39   D(8,9,10,6)            -0.3299         estimate D2E/DX2                !
 ! D40   D(8,9,10,11)          179.7674         estimate D2E/DX2                !
 ! D41   D(6,10,11,12)         179.7824         estimate D2E/DX2                !
 ! D42   D(6,10,11,27)          -0.2462         estimate D2E/DX2                !
 ! D43   D(9,10,11,12)          -0.3435         estimate D2E/DX2                !
 ! D44   D(9,10,11,27)         179.6278         estimate D2E/DX2                !
 ! D45   D(10,11,12,13)        179.9226         estimate D2E/DX2                !
 ! D46   D(27,11,12,13)         -0.0539         estimate D2E/DX2                !
 ! D47   D(10,11,27,23)       -179.8482         estimate D2E/DX2                !
 ! D48   D(10,11,27,26)          0.1146         estimate D2E/DX2                !
 ! D49   D(12,11,27,23)          0.1266         estimate D2E/DX2                !
 ! D50   D(12,11,27,26)       -179.9107         estimate D2E/DX2                !
 ! D51   D(11,12,13,14)        179.9351         estimate D2E/DX2                !
 ! D52   D(11,12,13,23)         -0.0286         estimate D2E/DX2                !
 ! D53   D(12,13,14,15)         -0.2094         estimate D2E/DX2                !
 ! D54   D(12,13,14,22)        179.9019         estimate D2E/DX2                !
 ! D55   D(23,13,14,15)        179.741          estimate D2E/DX2                !
 ! D56   D(23,13,14,22)         -0.1476         estimate D2E/DX2                !
 ! D57   D(12,13,23,24)       -179.9419         estimate D2E/DX2                !
 ! D58   D(12,13,23,27)          0.1036         estimate D2E/DX2                !
 ! D59   D(14,13,23,24)          0.105          estimate D2E/DX2                !
 ! D60   D(14,13,23,27)       -179.8495         estimate D2E/DX2                !
 ! D61   D(13,14,15,16)       -179.9524         estimate D2E/DX2                !
 ! D62   D(22,14,15,16)         -0.0606         estimate D2E/DX2                !
 ! D63   D(13,14,22,18)        179.9729         estimate D2E/DX2                !
 ! D64   D(13,14,22,21)         -0.0121         estimate D2E/DX2                !
 ! D65   D(15,14,22,18)          0.0814         estimate D2E/DX2                !
 ! D66   D(15,14,22,21)       -179.9035         estimate D2E/DX2                !
 ! D67   D(14,15,16,17)         -0.0449         estimate D2E/DX2                !
 ! D68   D(14,15,16,35)        179.9174         estimate D2E/DX2                !
 ! D69   D(15,16,17,18)          0.1163         estimate D2E/DX2                !
 ! D70   D(15,16,17,36)       -179.9517         estimate D2E/DX2                !
 ! D71   D(35,16,17,18)       -179.8441         estimate D2E/DX2                !
 ! D72   D(35,16,17,36)          0.0879         estimate D2E/DX2                !
 ! D73   D(16,17,18,19)        179.8853         estimate D2E/DX2                !
 ! D74   D(16,17,18,22)         -0.0873         estimate D2E/DX2                !
 ! D75   D(36,17,18,19)         -0.0474         estimate D2E/DX2                !
 ! D76   D(36,17,18,22)        179.98           estimate D2E/DX2                !
 ! D77   D(17,18,19,20)       -179.942          estimate D2E/DX2                !
 ! D78   D(22,18,19,20)          0.0328         estimate D2E/DX2                !
 ! D79   D(17,18,22,14)         -0.0056         estimate D2E/DX2                !
 ! D80   D(17,18,22,21)        179.9815         estimate D2E/DX2                !
 ! D81   D(19,18,22,14)       -179.9816         estimate D2E/DX2                !
 ! D82   D(19,18,22,21)          0.0055         estimate D2E/DX2                !
 ! D83   D(18,19,20,21)         -0.0514         estimate D2E/DX2                !
 ! D84   D(19,20,21,22)          0.0546         estimate D2E/DX2                !
 ! D85   D(20,21,22,14)        179.9445         estimate D2E/DX2                !
 ! D86   D(20,21,22,18)         -0.0412         estimate D2E/DX2                !
 ! D87   D(13,23,24,25)       -179.8379         estimate D2E/DX2                !
 ! D88   D(13,23,24,37)          0.1335         estimate D2E/DX2                !
 ! D89   D(27,23,24,25)          0.1196         estimate D2E/DX2                !
 ! D90   D(27,23,24,37)       -179.9091         estimate D2E/DX2                !
 ! D91   D(13,23,27,11)         -0.157          estimate D2E/DX2                !
 ! D92   D(13,23,27,26)        179.8771         estimate D2E/DX2                !
 ! D93   D(24,23,27,11)        179.8695         estimate D2E/DX2                !
 ! D94   D(24,23,27,26)         -0.0965         estimate D2E/DX2                !
 ! D95   D(23,24,25,26)         -0.1186         estimate D2E/DX2                !
 ! D96   D(23,24,25,38)        179.9            estimate D2E/DX2                !
 ! D97   D(37,24,25,26)        179.9073         estimate D2E/DX2                !
 ! D98   D(37,24,25,38)         -0.0741         estimate D2E/DX2                !
 ! D99   D(24,25,26,27)          0.0578         estimate D2E/DX2                !
 ! D100  D(38,25,26,27)       -179.9569         estimate D2E/DX2                !
 ! D101  D(25,26,27,11)       -179.9335         estimate D2E/DX2                !
 ! D102  D(25,26,27,23)          0.0287         estimate D2E/DX2                !
 ! D103  D(8,28,29,30)        -179.7366         estimate D2E/DX2                !
 ! D104  D(32,28,29,30)          0.1087         estimate D2E/DX2                !
 ! D105  D(8,28,32,31)         179.7519         estimate D2E/DX2                !
 ! D106  D(29,28,32,31)         -0.0968         estimate D2E/DX2                !
 ! D107  D(28,29,30,31)         -0.0681         estimate D2E/DX2                !
 ! D108  D(28,29,30,39)        179.8838         estimate D2E/DX2                !
 ! D109  D(29,30,31,32)         -0.0016         estimate D2E/DX2                !
 ! D110  D(29,30,31,40)        179.9526         estimate D2E/DX2                !
 ! D111  D(39,30,31,32)       -179.9501         estimate D2E/DX2                !
 ! D112  D(39,30,31,40)          0.0041         estimate D2E/DX2                !
 ! D113  D(30,31,32,28)          0.0509         estimate D2E/DX2                !
 ! D114  D(40,31,32,28)       -179.9094         estimate D2E/DX2                !
 --------------------------------------------------------------------------------
 Trust Radius=3.00D-01 FncErr=1.00D-07 GrdErr=1.00D-06
 Number of steps in this run=    240 maximum allowed number of steps=    240.
 GradGradGradGradGradGradGradGradGradGradGradGradGradGradGradGradGradGrad

                          Input orientation:                          
 ---------------------------------------------------------------------
 Center     Atomic      Atomic             Coordinates (Angstroms)
 Number     Number       Type             X           Y           Z
 ---------------------------------------------------------------------
      1         14           0       -1.558420    1.614190    0.004620
      2          1           0       -1.683750    2.341600   -1.278880
      3          1           0       -1.679700    2.322780    1.298680
      4          6           0       -2.392600   -0.056520    0.000330
      5          6           0       -1.476260   -1.041060   -0.001200
      6          6           0       -0.104070   -0.608990   -0.000170
      7          6           0        0.081910    0.803280    0.001870
      8          6           0        1.370410    1.234420    0.002280
      9         16           0        2.388950   -0.109620    0.007970
     10          6           0        1.111190   -1.243350   -0.000350
     11          6           0        1.507080   -2.604770   -0.003690
     12         16           0        3.152080   -3.103000   -0.008380
     13          6           0        2.769040   -4.770440   -0.008160
     14          6           0        3.893230   -5.673940   -0.013110
     15          7           0        5.186340   -5.191420   -0.022010
     16          6           0        6.258000   -6.037350   -0.027730
     17          6           0        6.203940   -7.425580   -0.024660
     18          6           0        4.895570   -7.946250   -0.017270
     19          7           0        4.568310   -9.247600   -0.015230
     20         16           0        2.913060   -9.331710   -0.007580
     21          7           0        2.548690   -7.732000   -0.005110
     22          6           0        3.706420   -7.057470   -0.011380
     23          6           0        1.412430   -4.896950   -0.003910
     24          6           0        0.321850   -5.813670   -0.000160
     25          6           0       -0.845320   -5.049860   -0.000640
     26          8           0       -0.606660   -3.713240   -0.001800
     27          6           0        0.747440   -3.689370   -0.003350
     28          6           0        1.948290    2.536210   -0.000050
     29          7           0        1.234300    3.638590    0.008720
     30          6           0        2.091310    4.718480   -0.002590
     31          6           0        3.435120    4.425550   -0.018210
     32         16           0        3.665680    2.753190   -0.019120
     33          1           0       -3.462380   -0.188130    0.002540
     34          1           0       -1.814890   -2.062680   -0.000970
     35          1           0        7.226520   -5.533660   -0.036020
     36          1           0        7.078770   -8.055640   -0.028690
     37          1           0        0.313570   -6.888740    0.002210
     38          1           0       -1.897830   -5.296330   -0.000030
     39          1           0        1.675110    5.713980    0.000490
     40          1           0        4.293660    5.071850   -0.029750
 ---------------------------------------------------------------------
                    Distance matrix (angstroms):
                    1          2          3          4          5
     1  Si   0.000000
     2  H    1.480610   0.000000
     3  H    1.480338   2.577632   0.000000
     4  C    1.867390   2.808883   2.802679   0.000000
     5  C    2.656527   3.621865   3.611993   1.344991   0.000000
     6  C    2.656631   3.582802   3.572800   2.354271   1.438607
     7  C    1.829827   2.669139   2.663431   2.619629   2.414434
     8  C    2.953350   3.492150   3.488316   3.978288   3.644359
     9  S    4.307350   4.924566   4.912883   4.781851   3.975866
    10  C    3.910547   4.722096   4.711033   3.699339   2.595346
    11  C    5.215073   6.022797   6.011030   4.658444   3.368310
    12  S    6.666398   7.392097   7.381978   6.326499   5.066871
    13  C    7.713013   8.486647   8.474249   6.990253   5.650743
    14  C    9.101519   9.846510   9.834931   8.430139   7.091907
    15  N    9.581692  10.272500  10.264011   9.154673   7.849596
    16  C   10.938169  11.612217  11.604233  10.516843   9.207736
    17  C   11.915223  12.616914  12.606884  11.322728   9.987398
    18  C   11.535011  12.276765  12.264537  10.740837   9.395857
    19  N   12.470593  13.228553  13.215055  11.529547  10.192366
    20  S   11.824001  12.610037  12.594717  10.685469   9.380887
    21  N   10.208806  11.000612  10.985343   9.128492   7.808259
    22  C   10.144776  10.908850  10.895671   9.285014   7.940873
    23  C    7.156882   7.975493   7.961313   6.156950   4.817927
    24  C    7.662150   8.495057   8.479092   6.364984   5.100099
    25  C    6.702097   7.547883   7.532612   5.227573   4.058148
    26  O    5.411783   6.281094   6.267073   4.069544   2.810116
    27  C    5.783148   6.626482   6.613035   4.801819   3.458091
    28  C    3.625901   3.855515   3.859348   5.056241   4.952212
    29  N    3.449275   3.443125   3.447716   5.177674   5.407990
    30  C    4.791367   4.639995   4.653300   6.550273   6.774943
    31  C    5.730594   5.668771   5.684824   7.351980   7.348862
    32  S    5.346878   5.511153   5.522222   6.678144   6.390321
    33  H    2.621722   3.347401   3.341047   1.077848   2.161522
    34  H    3.685808   4.587803   4.575984   2.087685   1.076280
    35  H   11.325572  11.956477  11.950976  11.069230   9.794031
    36  H   12.965638  13.654572  13.644937  12.397323  11.063165
    37  H    8.706559   9.530459   9.513467   7.348645   6.115461
    38  H    6.918852   7.747210   7.732080   5.263118   4.276102
    39  H    5.221495   4.928659   4.943712   7.060095   7.453972
    40  H    6.797311   6.689097   6.708438   8.426574   8.405978
                    6          7          8          9         10
     6  C    0.000000
     7  C    1.424465   0.000000
     8  C    2.360563   1.358718   0.000000
     9  S    2.542555   2.481100   1.686387   0.000000
    10  C    1.370865   2.290877   2.491294   1.708240   0.000000
    11  C    2.564947   3.694042   3.841627   2.646432   1.417817
    12  S    4.101544   4.968407   4.689102   3.089168   2.761086
    13  C    5.056925   6.187659   6.165600   4.676320   3.897293
    14  C    6.452309   7.515368   7.354610   5.764110   5.231638
    15  N    6.999113   7.873513   7.473509   5.800947   5.674026
    16  C    8.363240   9.216246   8.761739   7.078757   7.033693
    17  C    9.287491  10.256417   9.917628   8.250969   8.009785
    18  C    8.878743   9.986289   9.834218   8.227791   7.697447
    19  N    9.821250  11.006737  10.958997   9.394298   8.718940
    20  S    9.229787  10.523000  10.678154   9.236984   8.286637
    21  N    7.600949   8.884597   9.043511   7.624065   6.645977
    22  C    7.490184   8.656133   8.614672   7.071684   6.367050
    23  C    4.548229   5.853455   6.131517   4.885925   3.665999
    24  C    5.222078   6.621299   7.125662   6.067055   4.637983
    25  C    4.502308   5.926129   6.663456   5.904790   4.279889
    26  O    3.144673   4.568708   5.328054   4.686134   3.008549
    27  C    3.195907   4.541680   4.963047   3.938184   2.472921
    28  C    3.755591   2.546846   1.424292   2.682287   3.871151
    29  N    4.453454   3.060561   2.408028   3.922027   4.883500
    30  C    5.762086   4.400738   3.557864   4.837277   6.041859
    31  C    6.154087   4.936118   3.800889   4.654345   6.126777
    32  S    5.051300   4.079951   2.752342   3.134718   4.743217
    33  H    3.384579   3.680338   5.037808   5.851859   4.693723
    34  H    2.245021   3.436799   4.584432   4.635385   3.038626
    35  H    8.831263   9.550063   8.949994   7.268028   7.470294
    36  H   10.346333  11.288820  10.903740   9.226862   9.056495
    37  H    6.293623   7.695508   8.191620   7.089690   5.701459
    38  H    5.018838   6.412848   7.302883   6.728931   5.047856
    39  H    6.568518   5.162680   4.489911   5.867192   6.980147
    40  H    7.184208   5.996710   4.824136   5.520595   7.071827
                   11         12         13         14         15
    11  C    0.000000
    12  S    1.718802   0.000000
    13  C    2.506529   1.710870   0.000000
    14  C    3.887622   2.675642   1.442269   0.000000
    15  N    4.497560   2.915458   2.453723   1.380231   0.000000
    16  C    5.861265   4.272882   3.711911   2.392576   1.365315
    17  C    6.730612   5.291390   4.341495   2.899613   2.454992
    18  C    6.325619   5.147515   3.822039   2.483565   2.770137
    19  N    7.314264   6.305701   4.825182   3.636864   4.102999
    20  S    6.872301   6.233294   4.563543   3.786825   4.723347
    21  N    5.231963   4.668161   2.969748   2.458346   3.662244
    22  C    4.966255   3.993136   2.471679   1.396086   2.381684
    23  C    2.294133   2.498932   1.362503   2.599647   3.785424
    24  C    3.420793   3.918929   2.660288   3.574136   4.904175
    25  C    3.392972   4.446294   3.625152   4.779486   6.033359
    26  O    2.386756   3.807960   3.537381   4.908511   5.978651
    27  C    1.324164   2.475106   2.292510   3.719490   4.686186
    28  C    5.159879   5.766270   7.352607   8.437389   8.378646
    29  N    6.249329   7.009080   8.547953   9.684710   9.674122
    30  C    7.346517   7.893087   9.513094  10.547484  10.381989
    31  C    7.289921   7.533875   9.220087  10.109876   9.775116
    32  S    5.776463   5.878679   7.576879   8.430204   8.088834
    33  H    5.525914   7.228255   7.734874   9.176021   9.991690
    34  H    3.365911   5.074752   5.323949   6.754553   7.668551
    35  H    6.425841   4.744463   4.522434   3.336319   2.068734
    36  H    7.794635   6.320439   5.419108   3.977487   3.432942
    37  H    4.447123   4.731710   3.242936   3.780204   5.159978
    38  H    4.340267   5.505666   4.696414   5.803373   7.084981
    39  H    8.320448   8.939835  10.541339  11.601938  11.456744
    40  H    8.166774   8.254201   9.959699  10.753261  10.302022
                   16         17         18         19         20
    16  C    0.000000
    17  C    1.389286   0.000000
    18  C    2.345256   1.408185   0.000000
    19  N    3.627797   2.448496   1.341870   0.000000
    20  S    4.694874   3.803093   2.418665   1.657403   0.000000
    21  N    4.078153   3.668123   2.356671   2.525076   1.640684
    22  C    2.747994   2.524537   1.484602   2.353622   2.408652
    23  C    4.978014   5.417838   4.629328   5.374743   4.681773
    24  C    5.940427   6.099003   5.046494   5.461183   4.369328
    25  C    7.171682   7.438863   6.430176   6.850447   5.697342
    26  O    7.247463   7.756692   6.942128   7.576915   6.629907
    27  C    5.989981   6.613102   5.943753   6.744858   6.043668
    28  C    9.595848  10.832748  10.888927  12.071575  11.907072
    29  N   10.902417  12.129068  12.149654  13.310525  13.078501
    30  C   11.534722  12.821560  12.971487  14.184043  14.074201
    31  C   10.837021  12.170279  12.457702  13.720028  13.767166
    32  S    9.164813  10.490479  10.769896  12.034688  12.108319
    33  H   11.344606  12.075561  11.403690  12.106457  11.146811
    34  H    8.998348   9.646911   8.924513   9.610854   8.671352
    35  H    1.091697   2.150619   3.354738   4.567260   5.747341
    36  H    2.178798   1.078109   2.185969   2.779093   4.356827
    37  H    6.005165   5.914844   4.702492   4.864909   3.567288
    38  H    8.189471   8.376932   7.291958   7.577845   6.279252
    39  H   12.613383  13.898164  14.034727  15.238757  15.096535
    40  H   11.281532  12.642585  13.032014  14.322091  14.469592
                   21         22         23         24         25
    21  N    0.000000
    22  C    1.339914   0.000000
    23  C    3.054275   3.151237   0.000000
    24  C    2.939189   3.605895   1.424694   0.000000
    25  C    4.325875   4.974832   2.262924   1.394881   0.000000
    26  O    5.109469   5.457712   2.340491   2.296506   1.357760
    27  C    4.425761   4.483272   1.378572   2.166515   2.094714
    28  C   10.285749   9.753453   7.452451   8.506809   8.084103
    29  N   11.446315  10.978045   8.537408   9.496203   8.933872
    30  C   12.458879  11.886196   9.639366  10.679756  10.200209
    31  C   12.189830  11.486226   9.539417  10.702075  10.397397
    32  S   10.544528   9.810748   7.975087   9.196339   9.013160
    33  H    9.645880   9.928732   6.777669   6.779904   5.521361
    34  H    7.154162   7.445327   4.295194   4.316895   3.140591
    35  H    5.168728   3.835845   5.848938   6.910438   8.086403
    36  H    4.541687   3.517014   6.487322   7.119214   8.475064
    37  H    2.388912   3.397070   2.274809   1.075104   2.173595
    38  H    5.069917   5.874467   3.334268   2.279171   1.080983
    39  H   13.474329  12.931987  10.614182  11.606810  11.054991
    40  H   12.922233  12.143541  10.376855  11.587523  11.351607
                   26         27         28         29         30
    26  O    0.000000
    27  C    1.354311   0.000000
    28  C    6.751548   6.340339   0.000000
    29  N    7.578829   7.344125   1.313431   0.000000
    30  C    8.852850   8.514572   2.186953   1.378679   0.000000
    31  C    9.087142   8.548437   2.404288   2.337443   1.375455
    32  S    7.750349   7.072691   1.731148   2.587724   2.518190
    33  H    4.536690   5.475518   6.057837   6.058269   7.410690
    34  H    2.045524   3.035072   5.942332   6.465457   7.825761
    35  H    8.042003   6.736538   9.642811  10.956225  11.466380
    36  H    8.827400   7.690949  11.769024  13.073417  13.713263
    37  H    3.306152   3.228660   9.565668  10.567519  11.742570
    38  H    2.042865   3.095123   8.725899   9.468005  10.780059
    39  H    9.699431   9.448999   3.189491   2.121703   1.079005
    40  H   10.059410   9.451738   3.454144   3.378668   2.230685
                   31         32         33         34         35
    31  C    0.000000
    32  S    1.688179   0.000000
    33  H    8.298312   7.711101   0.000000
    34  H    8.346258   7.295861   2.495631   0.000000
    35  H   10.656495   9.019520  11.951099   9.684835   0.000000
    36  H   13.002169  11.334905  13.153499  10.724436   2.526315
    37  H   11.737020  10.208032   7.691292   5.274581   7.044614
    38  H   11.088536   9.785079   5.342427   3.234714   9.127507
    39  H    2.181292   3.567777   7.824878   8.523881  12.543081
    40  H    1.074676   2.402219   9.371477   9.392376  11.003570
                   36         37         38         39         40
    36  H    0.000000
    37  H    6.865169   0.000000
    38  H    9.391164   2.725081   0.000000
    39  H   14.791985  12.676054  11.575527   0.000000
    40  H   13.419681  12.605469  12.076199   2.696303   0.000000
 Stoichiometry    C20H10N4OS4Si
 Framework group  C1[X(C20H10N4OS4Si)]
 Deg. of freedom   114
 Full point group                 C1      NOp   1
 Largest Abelian subgroup         C1      NOp   1
 Largest concise Abelian subgroup C1      NOp   1
                         Standard orientation:                         
 ---------------------------------------------------------------------
 Center     Atomic      Atomic             Coordinates (Angstroms)
 Number     Number       Type             X           Y           Z
 ---------------------------------------------------------------------
      1         14           0        4.862782    2.452696   -0.001973
      2          1           0        5.597285    2.389669   -1.286005
      3          1           0        5.580599    2.398668    1.291557
      4          6           0        3.451023    3.675003   -0.008781
      5          6           0        2.270047    3.031346   -0.007081
      6          6           0        2.348453    1.594888   -0.001528
      7          6           0        3.670532    1.064605    0.000903
      8          6           0        3.768784   -0.290548    0.005557
      9         16           0        2.214202   -0.944067    0.014878
     10          6           0        1.432623    0.574835    0.002466
     11          6           0        0.015555    0.528805    0.000675
     12         16           0       -0.874936   -0.941334    0.001576
     13          6           0       -2.395364   -0.156877    0.000787
     14          6           0       -3.549361   -1.021996   -0.000250
     15          7           0       -3.402485   -2.394382   -0.004900
     16          6           0       -4.487687   -3.222886   -0.006892
     17          6           0       -5.819175   -2.826348   -0.003775
     18          6           0       -5.999229   -1.429725   -0.000681
     19          7           0       -7.178822   -0.790059    0.000477
     20         16           0       -6.849949    0.834387    0.002599
     21          7           0       -5.209844    0.790804    0.003586
     22          6           0       -4.843388   -0.498022    0.001082
     23          6           0       -2.181606    1.188753    0.000515
     24          6           0       -2.799341    2.472559    0.000764
     25          6           0       -1.770025    3.413930   -0.003750
     26          8           0       -0.534297    2.851356   -0.004330
     27          6           0       -0.846866    1.533611   -0.001350
     28          6           0        4.886673   -1.173120    0.004948
     29          7           0        6.131652   -0.754685    0.011146
     30          6           0        6.965360   -1.852689    0.002528
     31          6           0        6.348418   -3.081972   -0.008544
     32         16           0        4.671105   -2.890741   -0.008407
     33          1           0        3.588731    4.744017   -0.010132
     34          1           0        1.364269    3.612674   -0.007817
     35          1           0       -4.239833   -4.286063   -0.012022
     36          1           0       -6.646448   -3.517679   -0.004772
     37          1           0       -3.838796    2.747109    0.003283
     38          1           0       -1.747874    4.494682   -0.006624
     39          1           0        8.032966   -1.696269    0.004051
     40          1           0        6.761692   -4.073968   -0.017315
 ---------------------------------------------------------------------
 Rotational constants (GHZ):      0.2666653      0.0569963      0.0469887
 Standard basis: 6-31++G(d,p) (6D, 7F)
 There are   650 symmetry adapted basis functions of A   symmetry.
 Integral buffers will be    131072 words long.
 Raffenetti 2 integral format.
 Two-electron integral symmetry is turned on.
   650 basis functions,  1160 primitive gaussians,   650 cartesian basis functions
   122 alpha electrons      122 beta electrons
       nuclear repulsion energy      3466.3005230636 Hartrees.
 NAtoms=   40 NActive=   40 NUniq=   40 SFac= 1.00D+00 NAtFMM=   60 NAOKFM=F Big=F
 One-electron integrals computed using PRISM.
 NBasis=   650 RedAO= T  NBF=   650
 NBsUse=   640 1.00D-06 NBFU=   640
 Harris functional with IExCor=  402 diagonalized for initial guess.
 ExpMin= 3.31D-02 ExpMax= 2.19D+04 ExpMxC= 3.30D+03 IAcc=3 IRadAn=         5 AccDes= 0.00D+00
 HarFok:  IExCor=  402 AccDes= 0.00D+00 IRadAn=         5 IDoV= 1
 ScaDFX=  1.000000  1.000000  1.000000  1.000000
 FoFCou: FMM=F IPFlag=           0 FMFlag=      100000 FMFlg1=           0
         NFxFlg=           0 DoJE=T BraDBF=F KetDBF=T FulRan=T
         Omega=  0.000000  0.000000  1.000000  0.000000  0.000000 ICntrl=     500 IOpCl=  0
         NMat0=    1 NMatS0=    1 NMatT0=    0 NMatD0=    1 NMtDS0=    0 NMtDT0=    0
         I1Cent=           4 NGrid=           0.
 Petite list used in FoFCou.
 Initial guess orbital symmetries:
       Occupied  (A) (A) (A) (A) (A) (A) (A) (A) (A) (A) (A) (A)
                 (A) (A) (A) (A) (A) (A) (A) (A) (A) (A) (A) (A)
                 (A) (A) (A) (A) (A) (A) (A) (A) (A) (A) (A) (A)
                 (A) (A) (A) (A) (A) (A) (A) (A) (A) (A) (A) (A)
                 (A) (A) (A) (A) (A) (A) (A) (A) (A) (A) (A) (A)
                 (A) (A) (A) (A) (A) (A) (A) (A) (A) (A) (A) (A)
                 (A) (A) (A) (A) (A) (A) (A) (A) (A) (A) (A) (A)
                 (A) (A) (A) (A) (A) (A) (A) (A) (A) (A) (A) (A)
                 (A) (A) (A) (A) (A) (A) (A) (A) (A) (A) (A) (A)
                 (A) (A) (A) (A) (A) (A) (A) (A) (A) (A) (A) (A)
                 (A) (A)
       Virtual   (A) (A) (A) (A) (A) (A) (A) (A) (A) (A) (A) (A)
                 (A) (A) (A) (A) (A) (A) (A) (A) (A) (A) (A) (A)
                 (A) (A) (A) (A) (A) (A) (A) (A) (A) (A) (A) (A)
                 (A) (A) (A) (A) (A) (A) (A) (A) (A) (A) (A) (A)
                 (A) (A) (A) (A) (A) (A) (A) (A) (A) (A) (A) (A)
                 (A) (A) (A) (A) (A) (A) (A) (A) (A) (A) (A) (A)
                 (A) (A) (A) (A) (A) (A) (A) (A) (A) (A) (A) (A)
                 (A) (A) (A) (A) (A) (A) (A) (A) (A) (A) (A) (A)
                 (A) (A) (A) (A) (A) (A) (A) (A) (A) (A) (A) (A)
                 (A) (A) (A) (A) (A) (A) (A) (A) (A) (A) (A) (A)
                 (A) (A) (A) (A) (A) (A) (A) (A) (A) (A) (A) (A)
                 (A) (A) (A) (A) (A) (A) (A) (A) (A) (A) (A) (A)
                 (A) (A) (A) (A) (A) (A) (A) (A) (A) (A) (A) (A)
                 (A) (A) (A) (A) (A) (A) (A) (A) (A) (A) (A) (A)
                 (A) (A) (A) (A) (A) (A) (A) (A) (A) (A) (A) (A)
                 (A) (A) (A) (A) (A) (A) (A) (A) (A) (A) (A) (A)
                 (A) (A) (A) (A) (A) (A) (A) (A) (A) (A) (A) (A)
                 (A) (A) (A) (A) (A) (A) (A) (A) (A) (A) (A) (A)
                 (A) (A) (A) (A) (A) (A) (A) (A) (A) (A) (A) (A)
                 (A) (A) (A) (A) (A) (A) (A) (A) (A) (A) (A) (A)
                 (A) (A) (A) (A) (A) (A) (A) (A) (A) (A) (A) (A)
                 (A) (A) (A) (A) (A) (A) (A) (A) (A) (A) (A) (A)
                 (A) (A) (A) (A) (A) (A) (A) (A) (A) (A) (A) (A)
                 (A) (A) (A) (A) (A) (A) (A) (A) (A) (A) (A) (A)
                 (A) (A) (A) (A) (A) (A) (A) (A) (A) (A) (A) (A)
                 (A) (A) (A) (A) (A) (A) (A) (A) (A) (A) (A) (A)
                 (A) (A) (A) (A) (A) (A) (A) (A) (A) (A) (A) (A)
                 (A) (A) (A) (A) (A) (A) (A) (A) (A) (A) (A) (A)
                 (A) (A) (A) (A) (A) (A) (A) (A) (A) (A) (A) (A)
                 (A) (A) (A) (A) (A) (A) (A) (A) (A) (A) (A) (A)
                 (A) (A) (A) (A) (A) (A) (A) (A) (A) (A) (A) (A)
                 (A) (A) (A) (A) (A) (A) (A) (A) (A) (A) (A) (A)
                 (A) (A) (A) (A) (A) (A) (A) (A) (A) (A) (A) (A)
                 (A) (A) (A) (A) (A) (A) (A) (A) (A) (A) (A) (A)
                 (A) (A) (A) (A) (A) (A) (A) (A) (A) (A) (A) (A)
                 (A) (A) (A) (A) (A) (A) (A) (A) (A) (A) (A) (A)
                 (A) (A) (A) (A) (A) (A) (A) (A) (A) (A) (A) (A)
                 (A) (A) (A) (A) (A) (A) (A) (A) (A) (A) (A) (A)
                 (A) (A) (A) (A) (A) (A) (A) (A) (A) (A) (A) (A)
                 (A) (A) (A) (A) (A) (A) (A) (A) (A) (A) (A) (A)
                 (A) (A) (A) (A) (A) (A) (A) (A) (A) (A) (A) (A)
                 (A) (A) (A) (A) (A) (A) (A) (A) (A) (A) (A) (A)
                 (A) (A) (A) (A) (A) (A) (A) (A) (A) (A) (A) (A)
                 (A) (A)
 The electronic state of the initial guess is 1-A.
 Requested convergence on RMS density matrix=1.00D-08 within 128 cycles.
 Requested convergence on MAX density matrix=1.00D-06.
 Requested convergence on             energy=1.00D-06.
 No special actions if energy rises.
 EnCoef did     4 forward-backward iterations
 Restarting incremental Fock formation.
 SCF Done:  E(RB3LYP) =  -2944.55804436     A.U. after   24 cycles
             Convg  =    0.4253D-08             -V/T =  2.0051

 **********************************************************************

            Population analysis using the SCF density.

 **********************************************************************

 Orbital symmetries:
       Occupied  (A) (A) (A) (A) (A) (A) (A) (A) (A) (A) (A) (A)
                 (A) (A) (A) (A) (A) (A) (A) (A) (A) (A) (A) (A)
                 (A) (A) (A) (A) (A) (A) (A) (A) (A) (A) (A) (A)
                 (A) (A) (A) (A) (A) (A) (A) (A) (A) (A) (A) (A)
                 (A) (A) (A) (A) (A) (A) (A) (A) (A) (A) (A) (A)
                 (A) (A) (A) (A) (A) (A) (A) (A) (A) (A) (A) (A)
                 (A) (A) (A) (A) (A) (A) (A) (A) (A) (A) (A) (A)
                 (A) (A) (A) (A) (A) (A) (A) (A) (A) (A) (A) (A)
                 (A) (A) (A) (A) (A) (A) (A) (A) (A) (A) (A) (A)
                 (A) (A) (A) (A) (A) (A) (A) (A) (A) (A) (A) (A)
                 (A) (A)
       Virtual   (A) (A) (A) (A) (A) (A) (A) (A) (A) (A) (A) (A)
                 (A) (A) (A) (A) (A) (A) (A) (A) (A) (A) (A) (A)
                 (A) (A) (A) (A) (A) (A) (A) (A) (A) (A) (A) (A)
                 (A) (A) (A) (A) (A) (A) (A) (A) (A) (A) (A) (A)
                 (A) (A) (A) (A) (A) (A) (A) (A) (A) (A) (A) (A)
                 (A) (A) (A) (A) (A) (A) (A) (A) (A) (A) (A) (A)
                 (A) (A) (A) (A) (A) (A) (A) (A) (A) (A) (A) (A)
                 (A) (A) (A) (A) (A) (A) (A) (A) (A) (A) (A) (A)
                 (A) (A) (A) (A) (A) (A) (A) (A) (A) (A) (A) (A)
                 (A) (A) (A) (A) (A) (A) (A) (A) (A) (A) (A) (A)
                 (A) (A) (A) (A) (A) (A) (A) (A) (A) (A) (A) (A)
                 (A) (A) (A) (A) (A) (A) (A) (A) (A) (A) (A) (A)
                 (A) (A) (A) (A) (A) (A) (A) (A) (A) (A) (A) (A)
                 (A) (A) (A) (A) (A) (A) (A) (A) (A) (A) (A) (A)
                 (A) (A) (A) (A) (A) (A) (A) (A) (A) (A) (A) (A)
                 (A) (A) (A) (A) (A) (A) (A) (A) (A) (A) (A) (A)
                 (A) (A) (A) (A) (A) (A) (A) (A) (A) (A) (A) (A)
                 (A) (A) (A) (A) (A) (A) (A) (A) (A) (A) (A) (A)
                 (A) (A) (A) (A) (A) (A) (A) (A) (A) (A) (A) (A)
                 (A) (A) (A) (A) (A) (A) (A) (A) (A) (A) (A) (A)
                 (A) (A) (A) (A) (A) (A) (A) (A) (A) (A) (A) (A)
                 (A) (A) (A) (A) (A) (A) (A) (A) (A) (A) (A) (A)
                 (A) (A) (A) (A) (A) (A) (A) (A) (A) (A) (A) (A)
                 (A) (A) (A) (A) (A) (A) (A) (A) (A) (A) (A) (A)
                 (A) (A) (A) (A) (A) (A) (A) (A) (A) (A) (A) (A)
                 (A) (A) (A) (A) (A) (A) (A) (A) (A) (A) (A) (A)
                 (A) (A) (A) (A) (A) (A) (A) (A) (A) (A) (A) (A)
                 (A) (A) (A) (A) (A) (A) (A) (A) (A) (A) (A) (A)
                 (A) (A) (A) (A) (A) (A) (A) (A) (A) (A) (A) (A)
                 (A) (A) (A) (A) (A) (A) (A) (A) (A) (A) (A) (A)
                 (A) (A) (A) (A) (A) (A) (A) (A) (A) (A) (A) (A)
                 (A) (A) (A) (A) (A) (A) (A) (A) (A) (A) (A) (A)
                 (A) (A) (A) (A) (A) (A) (A) (A) (A) (A) (A) (A)
                 (A) (A) (A) (A) (A) (A) (A) (A) (A) (A) (A) (A)
                 (A) (A) (A) (A) (A) (A) (A) (A) (A) (A) (A) (A)
                 (A) (A) (A) (A) (A) (A) (A) (A) (A) (A) (A) (A)
                 (A) (A) (A) (A) (A) (A) (A) (A) (A) (A) (A) (A)
                 (A) (A) (A) (A) (A) (A) (A) (A) (A) (A) (A) (A)
                 (A) (A) (A) (A) (A) (A) (A) (A) (A) (A) (A) (A)
                 (A) (A) (A) (A) (A) (A) (A) (A) (A) (A) (A) (A)
                 (A) (A) (A) (A) (A) (A) (A) (A) (A) (A) (A) (A)
                 (A) (A) (A) (A) (A) (A) (A) (A) (A) (A) (A) (A)
                 (A) (A) (A) (A) (A) (A) (A) (A) (A) (A) (A) (A)
                 (A) (A)
 The electronic state is 1-A.
 Alpha  occ. eigenvalues --  -88.99253 -88.93333 -88.92548 -88.91953 -66.12574
 Alpha  occ. eigenvalues --  -19.24400 -14.39254 -14.38483 -14.35393 -14.35389
 Alpha  occ. eigenvalues --  -10.27118 -10.27107 -10.26868 -10.26223 -10.26172
 Alpha  occ. eigenvalues --  -10.25672 -10.24465 -10.24294 -10.24155 -10.23997
 Alpha  occ. eigenvalues --  -10.23739 -10.23570 -10.23329 -10.22120 -10.21584
 Alpha  occ. eigenvalues --  -10.21406 -10.21202 -10.20542 -10.18427 -10.18157
 Alpha  occ. eigenvalues --   -8.04546  -7.99478  -7.98518  -7.98197  -6.01108
 Alpha  occ. eigenvalues --   -6.00522  -6.00303  -5.95862  -5.95501  -5.95207
 Alpha  occ. eigenvalues --   -5.94972  -5.94626  -5.94554  -5.94210  -5.94191
 Alpha  occ. eigenvalues --   -5.93871  -5.27533  -3.63449  -3.63362  -3.63308
 Alpha  occ. eigenvalues --   -1.15043  -1.03249  -0.98466  -0.95284  -0.93357
 Alpha  occ. eigenvalues --   -0.91507  -0.90784  -0.83522  -0.82876  -0.82322
 Alpha  occ. eigenvalues --   -0.81018  -0.80724  -0.78768  -0.76454  -0.74803
 Alpha  occ. eigenvalues --   -0.72257  -0.71629  -0.68174  -0.65317  -0.64522
 Alpha  occ. eigenvalues --   -0.63774  -0.62986  -0.61742  -0.59641  -0.58665
 Alpha  occ. eigenvalues --   -0.57744  -0.56664  -0.54848  -0.53322  -0.52952
 Alpha  occ. eigenvalues --   -0.51682  -0.50189  -0.49570  -0.49463  -0.48217
 Alpha  occ. eigenvalues --   -0.47731  -0.46882  -0.46701  -0.44952  -0.44545
 Alpha  occ. eigenvalues --   -0.44139  -0.43535  -0.42798  -0.42253  -0.41965
 Alpha  occ. eigenvalues --   -0.41564  -0.40888  -0.40506  -0.39667  -0.39273
 Alpha  occ. eigenvalues --   -0.38775  -0.38252  -0.37044  -0.36577  -0.35312
 Alpha  occ. eigenvalues --   -0.35253  -0.34059  -0.33112  -0.32331  -0.31709
 Alpha  occ. eigenvalues --   -0.31698  -0.30629  -0.30369  -0.29525  -0.29308
 Alpha  occ. eigenvalues --   -0.28847  -0.27664  -0.27399  -0.25510  -0.24252
 Alpha  occ. eigenvalues --   -0.23585  -0.20115
 Alpha virt. eigenvalues --   -0.11922  -0.08131  -0.05864  -0.03482  -0.02576
 Alpha virt. eigenvalues --   -0.01861  -0.01840  -0.00833  -0.00484  -0.00395
 Alpha virt. eigenvalues --   -0.00114   0.00214   0.00413   0.00567   0.01256
 Alpha virt. eigenvalues --    0.01521   0.01758   0.02014   0.02479   0.02673
 Alpha virt. eigenvalues --    0.03006   0.03268   0.03417   0.03739   0.03983
 Alpha virt. eigenvalues --    0.04285   0.04584   0.04795   0.05271   0.05328
 Alpha virt. eigenvalues --    0.05562   0.05731   0.06492   0.06571   0.06840
 Alpha virt. eigenvalues --    0.06887   0.07565   0.07618   0.07916   0.08174
 Alpha virt. eigenvalues --    0.08304   0.08697   0.09473   0.09517   0.09829
 Alpha virt. eigenvalues --    0.09881   0.10298   0.10347   0.10667   0.10710
 Alpha virt. eigenvalues --    0.10800   0.11269   0.11356   0.11415   0.11586
 Alpha virt. eigenvalues --    0.11672   0.11982   0.12283   0.12571   0.12931
 Alpha virt. eigenvalues --    0.12960   0.13268   0.13360   0.13451   0.13581
 Alpha virt. eigenvalues --    0.13809   0.13881   0.13928   0.14224   0.14365
 Alpha virt. eigenvalues --    0.14741   0.14851   0.15162   0.15669   0.15864
 Alpha virt. eigenvalues --    0.16216   0.16400   0.16601   0.16983   0.17307
 Alpha virt. eigenvalues --    0.17336   0.17666   0.17944   0.18061   0.18333
 Alpha virt. eigenvalues --    0.18529   0.18715   0.19145   0.19184   0.19297
 Alpha virt. eigenvalues --    0.19752   0.20243   0.20542   0.20719   0.21018
 Alpha virt. eigenvalues --    0.21055   0.21633   0.21925   0.22081   0.22575
 Alpha virt. eigenvalues --    0.22729   0.22801   0.22898   0.23608   0.23972
 Alpha virt. eigenvalues --    0.24044   0.24395   0.24463   0.24887   0.24957
 Alpha virt. eigenvalues --    0.25126   0.25369   0.25627   0.26058   0.26317
 Alpha virt. eigenvalues --    0.26407   0.26715   0.26858   0.27025   0.27303
 Alpha virt. eigenvalues --    0.27564   0.28035   0.28116   0.28249   0.28487
 Alpha virt. eigenvalues --    0.28803   0.29245   0.29500   0.29626   0.30004
 Alpha virt. eigenvalues --    0.30291   0.30479   0.30853   0.31272   0.31478
 Alpha virt. eigenvalues --    0.31785   0.31939   0.32284   0.32775   0.33071
 Alpha virt. eigenvalues --    0.33212   0.33866   0.34251   0.34864   0.35238
 Alpha virt. eigenvalues --    0.35471   0.35768   0.36081   0.36449   0.36565
 Alpha virt. eigenvalues --    0.37135   0.37347   0.37586   0.38050   0.38480
 Alpha virt. eigenvalues --    0.39143   0.39577   0.39642   0.40230   0.40654
 Alpha virt. eigenvalues --    0.41797   0.42080   0.42935   0.43582   0.44206
 Alpha virt. eigenvalues --    0.44649   0.44876   0.45128   0.45770   0.47260
 Alpha virt. eigenvalues --    0.47356   0.48268   0.49191   0.49352   0.49477
 Alpha virt. eigenvalues --    0.50372   0.51161   0.51632   0.52170   0.52756
 Alpha virt. eigenvalues --    0.53414   0.55279   0.56043   0.56243   0.57075
 Alpha virt. eigenvalues --    0.58038   0.59008   0.59499   0.59872   0.60269
 Alpha virt. eigenvalues --    0.62453   0.62814   0.63705   0.63909   0.64642
 Alpha virt. eigenvalues --    0.64765   0.65240   0.65595   0.65986   0.66169
 Alpha virt. eigenvalues --    0.66410   0.66750   0.67105   0.67998   0.68263
 Alpha virt. eigenvalues --    0.68824   0.69117   0.69766   0.70042   0.71202
 Alpha virt. eigenvalues --    0.71278   0.71835   0.72080   0.72459   0.73605
 Alpha virt. eigenvalues --    0.74056   0.74601   0.74615   0.75080   0.76020
 Alpha virt. eigenvalues --    0.76855   0.76991   0.77649   0.78161   0.78214
 Alpha virt. eigenvalues --    0.79396   0.79796   0.79919   0.79959   0.80476
 Alpha virt. eigenvalues --    0.81775   0.82106   0.82560   0.83008   0.83343
 Alpha virt. eigenvalues --    0.83454   0.84190   0.84764   0.85633   0.86309
 Alpha virt. eigenvalues --    0.87905   0.88046   0.88328   0.89621   0.91784
 Alpha virt. eigenvalues --    0.92246   0.92559   0.92852   0.93682   0.94154
 Alpha virt. eigenvalues --    0.95188   0.95459   0.95775   0.96242   0.96845
 Alpha virt. eigenvalues --    0.97969   0.98287   0.98961   1.00204   1.00620
 Alpha virt. eigenvalues --    1.01327   1.01770   1.02175   1.02295   1.03812
 Alpha virt. eigenvalues --    1.04314   1.04835   1.06212   1.06372   1.06818
 Alpha virt. eigenvalues --    1.07825   1.08575   1.09020   1.09963   1.10366
 Alpha virt. eigenvalues --    1.10738   1.11212   1.12707   1.13022   1.14330
 Alpha virt. eigenvalues --    1.14552   1.15089   1.15624   1.16171   1.16755
 Alpha virt. eigenvalues --    1.17134   1.18324   1.18672   1.19109   1.19304
 Alpha virt. eigenvalues --    1.19669   1.20705   1.21074   1.21310   1.22490
 Alpha virt. eigenvalues --    1.23452   1.24124   1.24180   1.25162   1.25654
 Alpha virt. eigenvalues --    1.25871   1.26853   1.27656   1.28092   1.28729
 Alpha virt. eigenvalues --    1.29595   1.29925   1.31398   1.31819   1.32214
 Alpha virt. eigenvalues --    1.32569   1.32662   1.33151   1.33816   1.34516
 Alpha virt. eigenvalues --    1.35555   1.36248   1.36456   1.37608   1.38264
 Alpha virt. eigenvalues --    1.38368   1.39113   1.40282   1.40649   1.42049
 Alpha virt. eigenvalues --    1.42546   1.44227   1.44970   1.46274   1.46994
 Alpha virt. eigenvalues --    1.47882   1.48885   1.49977   1.50462   1.52644
 Alpha virt. eigenvalues --    1.52945   1.54166   1.54657   1.55184   1.58339
 Alpha virt. eigenvalues --    1.59098   1.59798   1.60101   1.62721   1.64355
 Alpha virt. eigenvalues --    1.66361   1.67073   1.68350   1.69641   1.71932
 Alpha virt. eigenvalues --    1.72462   1.73722   1.74768   1.75200   1.77569
 Alpha virt. eigenvalues --    1.78786   1.79980   1.80262   1.80404   1.82697
 Alpha virt. eigenvalues --    1.84205   1.84407   1.84464   1.86858   1.88601
 Alpha virt. eigenvalues --    1.89181   1.90480   1.90745   1.91109   1.92937
 Alpha virt. eigenvalues --    1.93928   1.94425   1.95713   1.96604   1.97121
 Alpha virt. eigenvalues --    1.98410   1.98741   1.99228   2.00187   2.00419
 Alpha virt. eigenvalues --    2.02413   2.02626   2.03515   2.06258   2.06467
 Alpha virt. eigenvalues --    2.07072   2.08380   2.08571   2.10455   2.12743
 Alpha virt. eigenvalues --    2.13846   2.14172   2.14525   2.16328   2.16903
 Alpha virt. eigenvalues --    2.17400   2.18341   2.19771   2.21651   2.22179
 Alpha virt. eigenvalues --    2.22403   2.23622   2.25552   2.25851   2.26044
 Alpha virt. eigenvalues --    2.28171   2.28221   2.29833   2.30726   2.31534
 Alpha virt. eigenvalues --    2.32648   2.32974   2.34398   2.35222   2.35693
 Alpha virt. eigenvalues --    2.37940   2.39582   2.40996   2.42173   2.42357
 Alpha virt. eigenvalues --    2.42796   2.43519   2.43871   2.45755   2.46098
 Alpha virt. eigenvalues --    2.46436   2.47172   2.48539   2.49348   2.49385
 Alpha virt. eigenvalues --    2.51082   2.51452   2.51729   2.54396   2.54714
 Alpha virt. eigenvalues --    2.55672   2.56700   2.58113   2.58594   2.60186
 Alpha virt. eigenvalues --    2.60369   2.62510   2.63331   2.63391   2.65657
 Alpha virt. eigenvalues --    2.65784   2.66769   2.67455   2.67932   2.68228
 Alpha virt. eigenvalues --    2.70960   2.72177   2.72208   2.74114   2.75663
 Alpha virt. eigenvalues --    2.78138   2.79614   2.80229   2.81023   2.83079
 Alpha virt. eigenvalues --    2.85887   2.87603   2.89891   2.91087   2.92112
 Alpha virt. eigenvalues --    2.96734   2.99858   3.01987   3.03503   3.06342
 Alpha virt. eigenvalues --    3.09407   3.09831   3.12110   3.13710   3.17798
 Alpha virt. eigenvalues --    3.20450   3.22191   3.25050   3.29553   3.30343
 Alpha virt. eigenvalues --    3.33015   3.34552   3.35195   3.39283   3.47641
 Alpha virt. eigenvalues --    3.65909   3.68849   3.71357   3.76358   3.95338
 Alpha virt. eigenvalues --    3.97369   3.99678   4.05422   4.15180   4.20331
 Alpha virt. eigenvalues --    4.25273   4.31236   4.31678   4.32679   4.33589
 Alpha virt. eigenvalues --    4.34535   4.38356   4.39099   4.39527   4.44081
 Alpha virt. eigenvalues --    4.45236   4.46993   4.51361   4.55468   4.58090
 Alpha virt. eigenvalues --    4.59479   4.61711   4.65100   4.68430   4.76302
 Alpha virt. eigenvalues --    4.78822   4.83397   4.99399
          Condensed to atoms (all electrons):
              1          2          3          4          5          6
     1  Si  12.674276   0.342855   0.347730  -0.183247   0.421618   0.373237
     2  H    0.342855   0.786869  -0.036894   0.032192  -0.046268   0.015764
     3  H    0.347730  -0.036894   0.785314   0.032921  -0.045770   0.017982
     4  C   -0.183247   0.032192   0.032921   8.626254  -1.204965  -1.752335
     5  C    0.421618  -0.046268  -0.045770  -1.204965  11.587431  -0.391928
     6  C    0.373237   0.015764   0.017982  -1.752335  -0.391928  13.139149
     7  C   -0.011628  -0.007566  -0.007566   0.454532  -2.093932   3.191417
     8  C   -0.970590   0.020297   0.013904   0.985909  -4.000626  -5.263236
     9  S   -0.084664   0.004093   0.002080   0.190981   0.524903   0.084829
    10  C    0.246633  -0.030447  -0.031338  -0.675626   1.417289  -1.599846
    11  C   -0.065570   0.009440   0.009758  -0.098524   0.591664  -0.181451
    12  S   -0.010015   0.000048   0.000177  -0.071706  -0.093245  -0.540527
    13  C   -0.008988   0.000474   0.000546   0.028333   0.420639  -1.091914
    14  C    0.000239  -0.000014  -0.000016   0.003602  -0.004473   0.083115
    15  N    0.000022  -0.000001  -0.000001   0.000008  -0.001831   0.000346
    16  C   -0.000098   0.000002   0.000002   0.000014   0.001594   0.000940
    17  C    0.000030  -0.000000  -0.000000  -0.000033  -0.001284  -0.001390
    18  C   -0.000011   0.000000   0.000000   0.000143   0.004964  -0.017035
    19  N   -0.000000   0.000000   0.000000   0.000000   0.000025  -0.000076
    20  S   -0.000005   0.000000   0.000000   0.000024   0.000486  -0.000590
    21  N   -0.000003   0.000000   0.000000   0.000114  -0.000045  -0.000227
    22  C   -0.000718   0.000022   0.000024   0.002035   0.050188  -0.134663
    23  C    0.001272  -0.000013  -0.000023   0.041052  -0.253263   0.176615
    24  C    0.019964  -0.000546  -0.000543   0.105913   0.195676  -0.557657
    25  C   -0.014101   0.000194   0.000195  -0.119351  -0.412068   0.618437
    26  O   -0.001244   0.000079   0.000071   0.113878   0.062474   0.004487
    27  C    0.087669  -0.004981  -0.005338  -0.214014  -0.381705   1.029048
    28  C   -0.144922   0.026826   0.029241   0.178170  -0.527777  -1.281041
    29  N    0.050964   0.004408   0.004062   0.015099  -0.030698  -0.042197
    30  C    0.026045  -0.007013  -0.007125  -0.007305  -0.009746  -0.182028
    31  C   -0.020128   0.002257   0.002530   0.003576   0.003482   0.082731
    32  S    0.045505  -0.001545  -0.001037   0.006337  -0.050112   0.037712
    33  H   -0.027105   0.000436   0.000143   0.340725  -0.080051   0.036248
    34  H   -0.040983   0.001908   0.001925   0.052653   0.196000  -0.110677
    35  H   -0.000003   0.000000   0.000000  -0.000004   0.000081  -0.000094
    36  H    0.000000  -0.000000  -0.000000   0.000000  -0.000009   0.000004
    37  H    0.000029  -0.000001  -0.000001   0.000862  -0.004190   0.007105
    38  H    0.000406  -0.000028  -0.000029  -0.004354   0.013026  -0.011956
    39  H   -0.001970  -0.000515  -0.000495  -0.001154   0.001361   0.002850
    40  H    0.000436   0.000025   0.000029   0.000146  -0.000161   0.001262
              7          8          9         10         11         12
     1  Si  -0.011628  -0.970590  -0.084664   0.246633  -0.065570  -0.010015
     2  H   -0.007566   0.020297   0.004093  -0.030447   0.009440   0.000048
     3  H   -0.007566   0.013904   0.002080  -0.031338   0.009758   0.000177
     4  C    0.454532   0.985909   0.190981  -0.675626  -0.098524  -0.071706
     5  C   -2.093932  -4.000626   0.524903   1.417289   0.591664  -0.093245
     6  C    3.191417  -5.263236   0.084829  -1.599846  -0.181451  -0.540527
     7  C   11.248794  -1.523495  -0.776368  -2.733024   0.509927  -0.204352
     8  C   -1.523495  17.964302  -0.423064  -2.053836   0.328482   0.032962
     9  S   -0.776368  -0.423064  20.949167  -0.318489   0.675316  -2.505106
    10  C   -2.733024  -2.053836  -0.318489  12.481865  -2.245631   0.482103
    11  C    0.509927   0.328482   0.675316  -2.245631  13.489988  -0.944785
    12  S   -0.204352   0.032962  -2.505106   0.482103  -0.944785  20.228976
    13  C   -0.068126  -0.164243  -0.301242   0.884717  -3.565790   0.414855
    14  C   -0.005372  -0.000280  -0.128212  -0.142406   0.565763  -0.012339
    15  N    0.001567  -0.000588   0.047064  -0.003792   0.144298   0.368845
    16  C   -0.001571  -0.003127  -0.006083  -0.003613  -0.114368  -0.300345
    17  C    0.000754   0.001259   0.009928   0.009523   0.030805   0.294642
    18  C   -0.000377  -0.001456  -0.029633   0.002368  -0.438186  -0.514482
    19  N    0.000000   0.000010   0.000338   0.000687  -0.001758   0.000092
    20  S   -0.000011   0.000007   0.001680   0.000645   0.002283  -0.001513
    21  N    0.000173  -0.000113   0.000567   0.002570  -0.008009  -0.006744
    22  C   -0.004745   0.004529   0.032377   0.134550  -0.662056  -0.407029
    23  C    0.141427  -0.036253  -0.212675  -0.014067  -0.046613  -0.753534
    24  C   -0.050510  -0.216271  -0.193350  -0.259220  -2.588664   0.624665
    25  C    0.134936   0.200817  -0.015379   0.118628   0.635863   0.089296
    26  O    0.036040  -0.006354  -0.020221  -0.147623  -0.318033   0.106371
    27  C   -0.172074  -0.650200  -0.256364   0.002666   0.751173  -0.548948
    28  C   -1.866758   1.360315  -0.054185   0.946530  -0.311697   0.114415
    29  N    0.088410  -0.156076   0.057062  -0.014082   0.007394   0.009602
    30  C   -0.392031   0.213414  -0.122337   0.159351  -0.026196   0.004287
    31  C    0.144389   0.025474  -0.025069  -0.087700   0.014332  -0.000725
    32  S    0.067573  -0.164936  -0.205067  -0.247034   0.018540  -0.105170
    33  H    0.014411   0.028756   0.000930   0.003532  -0.024264  -0.002599
    34  H    0.106788   0.099970  -0.000321  -0.064673  -0.023842   0.007801
    35  H   -0.000158  -0.000326  -0.001928   0.000451  -0.013534  -0.029194
    36  H    0.000008   0.000015   0.000282   0.000078   0.001924   0.003962
    37  H    0.001355  -0.001712  -0.006123  -0.023270  -0.011979   0.001773
    38  H    0.000858   0.002567  -0.000004  -0.001240   0.050922   0.001822
    39  H    0.003688  -0.007113  -0.006787   0.002633  -0.000272   0.000011
    40  H   -0.000283   0.008476  -0.003296   0.000714   0.000309   0.000184
             13         14         15         16         17         18
     1  Si  -0.008988   0.000239   0.000022  -0.000098   0.000030  -0.000011
     2  H    0.000474  -0.000014  -0.000001   0.000002  -0.000000   0.000000
     3  H    0.000546  -0.000016  -0.000001   0.000002  -0.000000   0.000000
     4  C    0.028333   0.003602   0.000008   0.000014  -0.000033   0.000143
     5  C    0.420639  -0.004473  -0.001831   0.001594  -0.001284   0.004964
     6  C   -1.091914   0.083115   0.000346   0.000940  -0.001390  -0.017035
     7  C   -0.068126  -0.005372   0.001567  -0.001571   0.000754  -0.000377
     8  C   -0.164243  -0.000280  -0.000588  -0.003127   0.001259  -0.001456
     9  S   -0.301242  -0.128212   0.047064  -0.006083   0.009928  -0.029633
    10  C    0.884717  -0.142406  -0.003792  -0.003613   0.009523   0.002368
    11  C   -3.565790   0.565763   0.144298  -0.114368   0.030805  -0.438186
    12  S    0.414855  -0.012339   0.368845  -0.300345   0.294642  -0.514482
    13  C   13.342545   0.354980  -0.478756   0.022946  -0.291432  -1.849598
    14  C    0.354980   9.554483   0.550016  -2.136413   2.488081  -4.918757
    15  N   -0.478756   0.550016   7.167560  -0.483500   0.523106  -0.382562
    16  C    0.022946  -2.136413  -0.483500   8.503252  -4.447240   3.651295
    17  C   -0.291432   2.488081   0.523106  -4.447240  16.869629  -5.593687
    18  C   -1.849598  -4.918757  -0.382562   3.651295  -5.593687  20.533299
    19  N    0.061248   0.094542  -0.002928   0.060553  -0.500042  -0.288928
    20  S   -0.143225  -0.049965   0.002942  -0.016769  -0.071842  -0.055361
    21  N   -0.101246  -0.378414   0.018682   0.105743  -0.069630   0.525478
    22  C   -0.001773   0.038968  -0.103464   0.555395  -2.954228  -4.181721
    23  C   -1.732718   0.278008  -0.073158   0.002181  -0.011830  -0.632944
    24  C    3.386993   0.159653   0.057836  -0.134974   0.104328   0.357862
    25  C   -1.366463  -0.067833  -0.004808   0.008930  -0.019552  -0.103130
    26  O    0.051276   0.001756   0.000692  -0.000605   0.000264  -0.003728
    27  C   -1.555099  -0.327669  -0.105274   0.165908  -0.174091  -0.111365
    28  C    0.003096  -0.008369   0.000261   0.001153  -0.000246  -0.000277
    29  N   -0.000370   0.000059  -0.000002  -0.000003   0.000000   0.000000
    30  C    0.000895  -0.000254   0.000008   0.000017  -0.000001  -0.000002
    31  C   -0.000658   0.000344  -0.000014  -0.000037   0.000004   0.000003
    32  S    0.000816  -0.000216   0.000033  -0.000368   0.000097  -0.000045
    33  H   -0.001241   0.000049   0.000006  -0.000003   0.000002  -0.000013
    34  H   -0.033356   0.002356  -0.000164   0.000370  -0.000263   0.000502
    35  H    0.003345  -0.100200  -0.153454   0.677876  -0.457193   0.238095
    36  H    0.002605   0.104982   0.024066  -0.288769   0.683707  -0.249267
    37  H    0.077151   0.019264  -0.000415   0.000874  -0.002539  -0.022236
    38  H   -0.023465  -0.005827   0.000047  -0.000339   0.000296  -0.001964
    39  H    0.000018  -0.000004   0.000000   0.000000  -0.000000  -0.000000
    40  H   -0.000047   0.000013  -0.000000  -0.000002   0.000000   0.000000
             19         20         21         22         23         24
     1  Si  -0.000000  -0.000005  -0.000003  -0.000718   0.001272   0.019964
     2  H    0.000000   0.000000   0.000000   0.000022  -0.000013  -0.000546
     3  H    0.000000   0.000000   0.000000   0.000024  -0.000023  -0.000543
     4  C    0.000000   0.000024   0.000114   0.002035   0.041052   0.105913
     5  C    0.000025   0.000486  -0.000045   0.050188  -0.253263   0.195676
     6  C   -0.000076  -0.000590  -0.000227  -0.134663   0.176615  -0.557657
     7  C    0.000000  -0.000011   0.000173  -0.004745   0.141427  -0.050510
     8  C    0.000010   0.000007  -0.000113   0.004529  -0.036253  -0.216271
     9  S    0.000338   0.001680   0.000567   0.032377  -0.212675  -0.193350
    10  C    0.000687   0.000645   0.002570   0.134550  -0.014067  -0.259220
    11  C   -0.001758   0.002283  -0.008009  -0.662056  -0.046613  -2.588664
    12  S    0.000092  -0.001513  -0.006744  -0.407029  -0.753534   0.624665
    13  C    0.061248  -0.143225  -0.101246  -0.001773  -1.732718   3.386993
    14  C    0.094542  -0.049965  -0.378414   0.038968   0.278008   0.159653
    15  N   -0.002928   0.002942   0.018682  -0.103464  -0.073158   0.057836
    16  C    0.060553  -0.016769   0.105743   0.555395   0.002181  -0.134974
    17  C   -0.500042  -0.071842  -0.069630  -2.954228  -0.011830   0.104328
    18  C   -0.288928  -0.055361   0.525478  -4.181721  -0.632944   0.357862
    19  N    7.350608   0.074414  -0.148574   0.662568   0.007269   0.017196
    20  S    0.074414  15.623521  -0.132380  -0.114868   0.120527  -0.096924
    21  N   -0.148574  -0.132380   7.937187  -0.398586  -0.016257   0.080259
    22  C    0.662568  -0.114868  -0.398586  13.094535   0.443740  -0.581969
    23  C    0.007269   0.120527  -0.016257   0.443740  11.546132  -3.463994
    24  C    0.017196  -0.096924   0.080259  -0.581969  -3.463994  16.433550
    25  C    0.008097   0.000512   0.069761  -0.060064  -0.546071  -4.601502
    26  O   -0.000035  -0.000357   0.001232  -0.039854  -0.057095   0.198938
    27  C    0.016223   0.031583   0.041319   0.472745   1.322278  -3.375000
    28  C    0.000001   0.000013  -0.000001  -0.001416  -0.065842  -0.016866
    29  N   -0.000000  -0.000000  -0.000000  -0.000004   0.001108   0.000053
    30  C    0.000000   0.000000   0.000000  -0.000014  -0.002539  -0.000179
    31  C   -0.000000  -0.000000  -0.000000   0.000026   0.001948   0.000246
    32  S    0.000000   0.000001  -0.000003   0.000545   0.001936  -0.000354
    33  H   -0.000000  -0.000001   0.000004  -0.000193   0.003264  -0.000845
    34  H    0.000006  -0.000019  -0.000167   0.003760   0.018753  -0.115065
    35  H    0.000104   0.000846   0.003562   0.024679   0.000471  -0.003750
    36  H   -0.023919  -0.001815  -0.009982   0.013342   0.000539   0.000098
    37  H   -0.000440  -0.017555  -0.020228  -0.032683  -0.065522   0.575645
    38  H    0.000064   0.001188  -0.000246   0.000831   0.037283  -0.175995
    39  H    0.000000   0.000000   0.000000  -0.000000  -0.000045  -0.000001
    40  H   -0.000000  -0.000000  -0.000000  -0.000000   0.000057   0.000008
             25         26         27         28         29         30
     1  Si  -0.014101  -0.001244   0.087669  -0.144922   0.050964   0.026045
     2  H    0.000194   0.000079  -0.004981   0.026826   0.004408  -0.007013
     3  H    0.000195   0.000071  -0.005338   0.029241   0.004062  -0.007125
     4  C   -0.119351   0.113878  -0.214014   0.178170   0.015099  -0.007305
     5  C   -0.412068   0.062474  -0.381705  -0.527777  -0.030698  -0.009746
     6  C    0.618437   0.004487   1.029048  -1.281041  -0.042197  -0.182028
     7  C    0.134936   0.036040  -0.172074  -1.866758   0.088410  -0.392031
     8  C    0.200817  -0.006354  -0.650200   1.360315  -0.156076   0.213414
     9  S   -0.015379  -0.020221  -0.256364  -0.054185   0.057062  -0.122337
    10  C    0.118628  -0.147623   0.002666   0.946530  -0.014082   0.159351
    11  C    0.635863  -0.318033   0.751173  -0.311697   0.007394  -0.026196
    12  S    0.089296   0.106371  -0.548948   0.114415   0.009602   0.004287
    13  C   -1.366463   0.051276  -1.555099   0.003096  -0.000370   0.000895
    14  C   -0.067833   0.001756  -0.327669  -0.008369   0.000059  -0.000254
    15  N   -0.004808   0.000692  -0.105274   0.000261  -0.000002   0.000008
    16  C    0.008930  -0.000605   0.165908   0.001153  -0.000003   0.000017
    17  C   -0.019552   0.000264  -0.174091  -0.000246   0.000000  -0.000001
    18  C   -0.103130  -0.003728  -0.111365  -0.000277   0.000000  -0.000002
    19  N    0.008097  -0.000035   0.016223   0.000001  -0.000000   0.000000
    20  S    0.000512  -0.000357   0.031583   0.000013  -0.000000   0.000000
    21  N    0.069761   0.001232   0.041319  -0.000001  -0.000000   0.000000
    22  C   -0.060064  -0.039854   0.472745  -0.001416  -0.000004  -0.000014
    23  C   -0.546071  -0.057095   1.322278  -0.065842   0.001108  -0.002539
    24  C   -4.601502   0.198938  -3.375000  -0.016866   0.000053  -0.000179
    25  C   10.366890  -0.210221   0.968789   0.012240   0.000025   0.000204
    26  O   -0.210221   8.635465  -0.063414  -0.000122  -0.000000   0.000007
    27  C    0.968789  -0.063414   9.015421   0.054601  -0.001252   0.003580
    28  C    0.012240  -0.000122   0.054601   7.882814   0.098036   0.368661
    29  N    0.000025  -0.000000  -0.001252   0.098036   7.075630  -0.240174
    30  C    0.000204   0.000007   0.003580   0.368661  -0.240174   6.308709
    31  C   -0.000158  -0.000003  -0.000332  -0.390541   0.234975  -0.524176
    32  S    0.000160  -0.000352  -0.010194  -0.091936   0.012709  -0.104298
    33  H    0.000912   0.003397   0.007255   0.006045   0.001488  -0.000398
[...]
 33,0.00003492,-0.00005811,-0.00001721,-0.00000853,-0.00001210,0.000005
 21,0.00002425,-0.00000896,-0.00000709,0.00006569,0.00003501,-0.0000189
 9,0.00001954,-0.00000002,-0.00000761,0.00002473,0.00002366,0.00000739,
 -0.00000064,-0.00000701,-0.00000003,-0.00001222,-0.00000109,-0.0000033
 1,0.00000481,-0.00001862,0.00000081,-0.00000829,0.00000683,-0.00000163
 ,0.00000141,0.00000033,-0.00000020,-0.00000180,0.00000104,-0.00000170,
 -0.00042409,0.00075017,-0.00030913,-0.14532755,0.15443239,0.00000532,0
 .00000157,0.00000972,-0.00000150,-0.00000022,-0.00000190,-0.00000111,0
 .00000041,-0.00000155,0.00000045,0.00000140,-0.00000084,0.00000275,-0.
 00000173,-0.00000398,0.00001035,0.00000049,-0.00001295,-0.00001603,0.0
 0001528,0.00001230,-0.00000356,-0.00001826,-0.00000692,0.00001803,0.00
 001945,0.00000971,-0.00000894,-0.00003311,-0.00001416,-0.00007711,0.00
 000542,-0.00006024,0.00010400,-0.00002525,0.00022819,-0.00042326,-0.00
 010786,-0.00125592,0.00030540,0.00026477,-0.00003895,0.00155308,0.0014
 3173,0.00787934,-0.00350898,0.00169471,0.00162970,0.04172749,-0.022836
 95,-0.03952766,0.00579984,-0.00510492,0.00133104,-0.00120987,-0.000508
 84,-0.00182923,0.00001828,-0.00010929,-0.00060871,0.00062552,-0.000007
 85,0.00055479,0.00149991,0.00138874,0.00423558,-0.00000805,-0.00000847
 ,-0.00018835,-0.00000601,0.00000350,-0.00000074,-0.00000475,-0.0000102
 0,0.00000181,-0.00000420,0.00000081,0.00004467,0.00001798,0.00002392,-
 0.00001653,0.00000424,0.00000602,0.00000308,-0.00000093,0.00000281,0.0
 0000063,-0.00000435,-0.00000015,-0.00000336,0.00000299,-0.00000739,-0.
 00000205,-0.00000278,0.00000139,0.00000138,-0.00000034,-0.00000045,-0.
 00000132,0.00000188,-0.00000025,0.00000263,-0.00102047,-0.00050953,-0.
 00381577,-0.04538877,0.02442539,0.03141802,-0.00001096,-0.00000489,0.0
 0000495,0.00000155,0.00000071,-0.00000003,0.00000147,0.00000354,0.,0.0
 0001641,0.00000954,0.00000333,-0.00001537,-0.00000737,-0.00001851,0.00
 004391,-0.00004849,-0.00001822,0.00003692,0.00000752,0.00002327,-0.000
 05792,-0.00001754,-0.00001529,0.00002963,-0.00005554,0.00004432,-0.000
 34023,-0.00007225,0.00004110,0.00062321,-0.00089217,0.00004945,-0.0003
 2510,-0.00069701,0.00009640,0.00019536,0.00125383,-0.00050689,0.000522
 67,-0.00107671,-0.00011564,-0.00075365,0.00033617,0.00017622,0.0002856
 9,-0.00024668,-0.00004025,-0.00003431,0.00015628,0.00000372,-0.0000395
 5,-0.00041586,0.00007406,0.00111457,-0.00027614,-0.00021254,0.00015684
 ,0.00197109,-0.00018744,-0.00183130,0.00098244,0.00002098,-0.00065792,
 -0.00097343,0.00031125,0.00840929,-0.02158269,0.00019253,-0.05236319,0
 .01827952,0.00424007,0.00577778,0.02127154,-0.00444494,-0.00194681,0.0
 0467195,0.00269989,-0.00476847,-0.00219796,0.00260765,0.00002734,0.000
 01451,-0.00001455,-0.00000276,-0.00001783,-0.00000194,0.00000812,0.000
 00186,0.00000469,-0.00000479,0.00000342,-0.00000328,-0.00000293,-0.000
 00094,0.00000193,-0.00000044,0.00000124,-0.00000460,0.00001164,-0.0000
 0610,0.00003180,-0.00000755,0.00001999,-0.00000001,0.00005906,0.000022
 64,-0.00000763,0.04601858,-0.00003571,0.00000273,-0.00000119,0.0000068
 1,-0.00000193,0.00000091,0.00000859,-0.00000183,-0.00000094,0.00003040
 ,0.00000734,-0.00000115,-0.00001770,-0.00002355,0.00000343,-0.00004441
 ,0.00002062,-0.00001748,0.00000702,-0.00001600,-0.00000525,-0.00000421
 ,-0.00004224,0.00000478,0.00004246,0.00000253,0.00001675,-0.00008038,-
 0.00004452,0.00003595,0.00024102,-0.00045004,0.00002297,0.00009964,-0.
 00003923,-0.00003911,0.00045058,0.00021219,-0.00025220,-0.00038091,0.0
 0018671,0.00006176,0.00019985,-0.00003763,-0.00005719,-0.00009920,0.00
 010193,0.00003017,0.00000343,-0.00003962,0.00000417,-0.00012526,-0.000
 04638,0.00003868,0.00009415,-0.00020121,0.00001688,0.00071278,-0.00067
 789,-0.00014214,0.00272885,-0.00311885,-0.00064963,-0.00032378,0.00068
 177,0.00007313,0.00339763,-0.00752095,-0.00011771,0.01609885,-0.365968
 50,0.03216158,-0.00307728,-0.00659969,0.00145219,0.00095553,0.00244089
 ,0.00044536,-0.00162866,-0.00057664,0.00084086,0.00001728,0.00002157,0
 .00000672,0.00000737,-0.00000644,-0.00000159,-0.00001235,-0.00000323,-
 0.00000224,0.00000650,-0.00001539,-0.00000143,-0.00000485,0.00000649,-
 0.00000024,0.00000473,-0.00000216,0.00000464,-0.00000052,-0.00001633,0
 .00000852,-0.00000105,-0.00000633,0.00000160,-0.00002581,-0.00000347,0
 .00000271,-0.01951035,0.38173298,0.00003186,0.00001302,0.00002661,-0.0
 0000594,-0.00000432,-0.00000547,-0.00000575,-0.00000459,-0.00000634,-0
 .00002712,-0.00004509,-0.00001575,0.00006385,0.00003550,0.00004786,0.0
 0004790,-0.00002377,0.00001209,-0.00002981,0.00001110,-0.00000980,0.00
 002911,-0.00000780,-0.00000215,-0.00003379,0.00004376,-0.00003555,0.00
 013940,0.00007097,0.00006741,-0.00010636,0.00035763,0.00048537,0.00004
 133,0.00019478,-0.00021623,-0.00049909,-0.00044387,-0.00092590,-0.0001
 1419,0.00023863,-0.00020954,0.00016816,-0.00010023,-0.00000990,-0.0000
 5007,0.00005412,0.00005610,0.00000772,-0.00002702,0.00001910,0.0000267
 7,0.00011882,0.00008243,-0.00032262,0.00011635,0.00014918,-0.00008034,
 -0.00052737,0.00019597,-0.00001646,-0.00008152,-0.00108373,0.00023808,
 0.00031596,0.00008284,-0.00244307,0.00715207,0.00024978,0.00430391,0.0
 3129584,-0.03507101,-0.00175996,-0.00564524,-0.00031471,0.00321099,-0.
 00058585,0.00826589,0.00241547,0.00111830,0.00241097,-0.00000297,0.000
 01378,-0.00000088,0.00000108,0.00000197,-0.00000111,-0.00000455,0.0000
 0283,-0.00000061,0.00000209,-0.00000896,-0.00000211,-0.00000575,0.0000
 0202,0.00000107,-0.00000307,0.00000204,0.00000090,-0.00003252,-0.00002
 901,-0.00002442,0.00000198,-0.00000626,0.00000044,-0.00001104,-0.00000
 512,0.00002135,-0.00431490,-0.03353766,0.02852164,0.00001012,0.0000248
 9,0.00000519,-0.00000191,-0.00000548,-0.00000006,-0.00000113,-0.000005
 87,-0.00000225,0.00000960,-0.00001296,0.00000004,-0.00000711,-0.000010
 65,0.00001373,0.00002621,-0.00001952,0.00000734,-0.00000234,-0.0000046
 9,-0.00000370,-0.00000389,-0.00002769,-0.00000839,-0.00002407,-0.00000
 800,-0.00000288,-0.00004435,0.00007901,0.00002085,0.00022709,-0.000049
 44,0.00046906,-0.00020477,0.00001710,-0.00037077,0.00000391,-0.0005516
 6,0.00033934,0.00002623,-0.00007579,0.00003959,-0.00008862,0.00005604,
 0.00003050,0.00001836,-0.00004228,-0.00000300,0.00000320,0.00002649,-0
 .00000541,0.00000583,0.00001141,0.00000147,-0.00002986,0.00002775,0.00
 000413,-0.00002852,0.00000724,0.00001548,-0.00001193,0.00003905,-0.000
 01681,0.00002583,-0.00001225,-0.00001881,-0.00164624,0.00212438,0.0021
 4858,-0.00661955,-0.00883972,0.00418603,-0.32446513,-0.05814951,0.0928
 2071,-0.00091028,-0.00108248,-0.00040611,0.00203377,0.00063467,0.00002
 703,0.00001794,0.00002637,0.00000753,0.00000220,-0.00001247,-0.0000012
 0,-0.00000407,0.00000210,-0.00000119,0.00000100,-0.00001158,-0.0000018
 2,-0.00000881,0.00000447,-0.00000041,-0.00000136,0.00000203,-0.0000038
 3,-0.00000220,-0.00000162,-0.00000806,-0.00000286,0.00000122,0.0000009
 4,0.00000009,0.00000164,0.00000154,-0.00017739,0.00025890,-0.00085982,
 0.33187429,-0.00004521,-0.00001363,0.00001102,0.00000968,0.00000067,-0
 .00000215,0.00001080,-0.00000015,-0.00000365,0.00004718,-0.00001505,-0
 .00001363,-0.00000546,-0.00001492,-0.00001386,0.00001622,-0.00001237,-
 0.00001151,0.00004181,0.00001618,0.00000725,-0.00002831,-0.00006173,-0
 .00000560,0.00001412,-0.00002040,0.00000753,-0.00003208,0.00028999,-0.
 00002733,-0.00156841,0.00046133,0.00065358,0.00005244,0.00002743,-0.00
 019052,-0.00037466,0.00096882,0.00005718,0.00000430,0.00002045,0.00001
 852,-0.00004834,0.00002445,0.00001630,0.00004500,-0.00003955,-0.000005
 22,0.00000404,0.00002316,-0.00000851,-0.00002852,-0.00002223,0.0000210
 1,0.00005672,-0.00003194,-0.00001215,0.00003263,0.00006336,-0.00001233
 ,0.00000380,-0.00006574,0.00000336,-0.00005087,0.00000002,-0.00000592,
 0.00431984,-0.00253346,-0.00019206,0.01334316,0.01231977,-0.00482771,-
 0.04785466,-0.06539462,0.01797450,-0.03481310,-0.01181831,0.01126367,0
 .00222730,-0.00608860,0.00021422,0.00000996,0.00003098,0.00000556,0.00
 001202,-0.00001528,0.00000017,-0.00000148,-0.00000024,-0.00000050,0.00
 000095,-0.00000652,-0.00000134,-0.00000444,0.00000397,-0.00000061,0.00
 001083,-0.00000868,0.00001964,-0.00008400,-0.00000137,0.00000590,0.000
 00123,-0.00000179,-0.00000056,0.00000208,0.00000098,0.00000030,-0.0009
 0653,0.00004392,-0.00007612,0.06558030,0.07187220,0.00003637,0.0000353
 9,0.00003775,-0.00000798,-0.00000762,-0.00000821,-0.00000600,-0.000008
 45,-0.00000951,-0.00000937,-0.00003069,-0.00003245,-0.00000839,0.00008
 258,0.00000347,0.00003804,-0.00005167,0.00003303,-0.00002243,-0.000022
 20,-0.00001482,0.00001561,0.00002799,0.00000025,-0.00005984,-0.0000097
 1,-0.00003202,-0.00002367,0.00003430,0.00005250,0.00077126,-0.00000200
 ,0.00146464,-0.00036177,-0.00015707,-0.00123365,0.00032531,0.00023141,
 0.00071044,0.00004347,0.00002928,0.00011767,0.00004103,-0.00002004,0.0
 0004461,-0.00000990,0.00001740,-0.00000945,-0.00000533,-0.00001219,-0.
 00000092,0.00000194,0.00000446,0.00000357,0.00000012,-0.00000804,0.000
 00182,0.00001729,0.00000479,0.00002155,-0.00000885,-0.00001386,-0.0000
 5704,-0.00001559,0.00000044,-0.00003528,0.00185359,0.00036402,0.005954
 58,0.00166437,0.00175164,0.00375788,0.09175035,0.02096282,-0.05901282,
 0.00318241,0.00123028,-0.00375548,-0.00010219,0.00081255,0.00239696,0.
 00000009,-0.00000221,0.00000165,-0.00000471,-0.00000299,-0.00000522,0.
 00000437,0.00000175,0.00000115,-0.00000280,0.00000355,-0.00000275,-0.0
 0000253,-0.00000149,0.00000051,-0.00001524,0.00001402,0.00000157,0.000
 06635,0.00001904,0.00002179,0.00000044,-0.00000028,0.00000023,0.000001
 26,0.00000016,0.00000535,-0.00072127,-0.00040762,-0.00276354,-0.098425
 63,-0.02486958,0.05233717,0.00007730,-0.00014806,-0.00002986,-0.000006
 45,0.00003445,0.00000629,-0.00001835,0.00003048,0.00001291,-0.00002267
 ,0.00001528,0.00000862,0.00002325,0.00000487,0.00000480,0.00003804,0.0
 0001879,0.00002914,0.00000497,0.00007568,-0.00000387,0.00075585,-0.000
 25137,-0.00002669,-0.00011681,-0.00016427,-0.00007488,0.00000292,-0.00
 017946,0.00002953,-0.00002684,-0.00000388,0.00001557,0.00000208,-0.000
 00464,-0.00000115,-0.00001675,0.00001371,0.00000462,0.00002137,-0.0000
 2056,-0.00000419,-0.00001776,0.00000220,0.00000531,0.00001088,-0.00000
 306,-0.00000194,-0.00000325,0.00000248,0.00000083,-0.00000314,0.000002
 87,-0.00000002,-0.00000741,0.00000089,0.00000205,0.00000806,0.00000483
 ,-0.00000266,-0.00000342,-0.00000460,0.00000152,0.00000412,0.00000715,
 -0.00000063,0.00000704,-0.00000364,-0.00000741,-0.00000652,0.00000142,
 0.00000276,0.00000236,-0.00001917,0.00000151,0.00000847,0.00001602,-0.
 00000646,-0.00000055,0.00000605,-0.00000035,-0.00075877,-0.00457607,-0
 .00118410,0.01134080,-0.01698950,0.00278307,-0.13992176,0.13581008,-0.
 02136018,-0.00846307,0.02308058,-0.00241266,-0.00294278,0.00154542,-0.
 00221251,0.00000239,0.00000337,-0.00000049,-0.00000295,0.00000368,-0.0
 0000373,-0.00000099,-0.00000112,-0.00000021,0.,0.00000052,-0.00000037,
 0.,-0.00000031,-0.00000021,0.00000040,-0.00000048,0.00000016,0.1397676
 9,0.00028877,-0.00014940,0.00007374,-0.00004427,0.00004368,-0.00002370
 ,-0.00005374,0.00003953,0.00000064,-0.00007918,0.00002848,-0.00002084,
 0.00004568,0.00000158,0.00001295,0.00003872,-0.00003500,0.00001486,-0.
 00001540,0.00002715,-0.00001147,0.00084277,-0.00041982,0.00016871,-0.0
 0026611,-0.00016800,-0.00009640,0.00006514,-0.00016692,0.00002187,-0.0
 0005010,0.00001259,0.00000332,-0.00001976,0.00001618,0.00000334,0.0000
 5763,-0.00007334,-0.00000831,-0.00007200,0.00005632,0.00001692,0.00005
 536,0.00000363,-0.00001622,-0.00002741,0.00000528,0.00000757,0.0000116
 4,-0.00000622,-0.00000217,0.00000539,-0.00000706,-0.00000090,0.0000164
 2,0.00000081,-0.00000411,-0.00001877,-0.00001641,0.00000597,0.00000821
 ,0.00001443,-0.00000296,-0.00000861,-0.00001877,0.00000345,-0.00002591
 ,0.00001310,0.00000127,0.00001558,-0.00000369,-0.00000219,-0.00000642,
 0.00003595,-0.00000141,-0.00004680,-0.00002699,0.00001650,0.00005761,-
 0.00003884,-0.00002273,-0.00246206,-0.00370633,-0.00077763,0.01174988,
 -0.02396396,0.00219081,0.13030820,-0.25749440,0.02474000,-0.00188840,0
 .00352557,-0.00047418,-0.00126122,0.00210387,-0.00041632,-0.00000547,-
 0.00001353,-0.00000221,-0.00000946,-0.00000322,-0.00000376,0.00000333,
 0.00000088,-0.00000082,-0.00000046,-0.00000128,-0.00000012,-0.00000047
 ,-0.00000133,0.00000011,-0.00000086,-0.00000097,0.00000028,-0.13768893
 ,0.28036523,-0.00001751,-0.00005272,0.00015190,-0.00000641,0.00001363,
 -0.00004446,0.00002126,0.00001244,-0.00003112,0.00000711,0.00000821,-0
 .00005181,-0.00000053,0.00000075,0.00001770,0.00001953,0.00002704,-0.0
 0006642,-0.00002032,0.00000923,0.00004152,0.00000704,-0.00011023,0.000
 85378,-0.00009459,-0.00002813,0.00018478,0.00008023,-0.00006237,-0.000
 18323,0.00000732,0.00002647,-0.00005262,0.00000078,0.00000837,0.000002
 64,0.00001058,-0.00003317,-0.00000706,-0.00002024,0.00001099,0.0000039
 2,0.00001355,0.00000694,-0.00000592,-0.00000496,0.00000161,0.00000110,
 0.00000213,-0.00000084,-0.00000096,-0.00000038,-0.00000117,0.00000064,
 0.00000121,0.00000215,-0.00000143,-0.00000235,-0.00000317,0.00000171,0
 .00000211,0.00000291,-0.00000148,-0.00000202,-0.00000327,0.00000199,-0
 .00000030,0.00001061,0.00000651,0.00000249,0.00000211,-0.00000177,-0.0
 0000130,0.00000502,-0.00000034,-0.00000540,-0.00000312,-0.00000339,-0.
 00000470,-0.00001004,0.00001013,-0.00112488,-0.00127850,0.00343214,0.0
 0355426,-0.00457589,-0.00164448,-0.02151480,0.02601736,-0.03832280,-0.
 00309061,0.00543737,0.00388057,-0.00226876,0.00021150,0.00603691,-0.00
 000042,0.00000048,0.00000302,-0.00000461,0.00000028,0.00001237,0.00000
 104,-0.00000040,0.00000059,0.00000002,-0.00000009,0.00000065,0.0000005
 6,0.00000035,0.00000088,0.00000049,0.00000048,0.00000159,0.02360880,-0
 .02559662,0.02884176,0.00012778,0.00026998,0.00000415,-0.00000857,-0.0
 0004087,-0.00000067,-0.00001176,-0.00004758,-0.00000106,0.00002307,-0.
 00001081,0.00001727,-0.00004986,0.00000524,-0.00000659,0.00013190,0.00
 006345,0.00020174,-0.00006648,0.00015186,-0.00010076,0.00137123,-0.000
 25571,-0.00027438,0.00005083,-0.00020227,0.00007642,-0.00002205,-0.000
 04463,-0.00002324,0.00003322,-0.00001269,-0.00002357,0.00000992,-0.000
 01062,-0.00000033,-0.00002942,0.00003256,0.00000557,0.00003788,-0.0000
 2803,-0.00000870,-0.00003124,-0.00000298,0.00000833,0.00001645,-0.0000
 0105,-0.00000427,-0.00000706,0.00000239,0.00000149,-0.00000117,0.00000
 382,-0.00000035,-0.00000827,-0.00000114,0.00000213,0.00000946,0.000006
 86,-0.00000312,-0.00000500,-0.00000606,0.00000181,0.00000345,0.0000095
 8,-0.00000083,0.00001644,-0.00000578,-0.00000118,-0.00000950,0.0000015
 3,0.00000169,0.00000385,-0.00001966,0.00000113,0.00001714,0.00001547,-
 0.00000665,-0.00002531,0.00002136,0.00000680,-0.00371480,0.00567071,-0
 .00081090,-0.00450574,-0.00183414,-0.00278616,-0.00389951,-0.02238631,
 -0.00143225,-0.17848197,-0.14999412,-0.04128880,0.00812241,0.01032994,
 0.00280984,0.00000084,-0.00001272,-0.00000045,0.00002059,-0.00000026,-
 0.00000416,-0.00000222,-0.00000020,0.00000070,0.00000022,0.00000100,-0
 .00000003,0.00000061,0.00000034,-0.00000031,0.00000033,0.00000014,-0.0
 0000035,0.00026223,0.00048151,0.00084460,0.18062005,-0.00000596,-0.000
 06345,-0.00000740,-0.00000368,0.00001115,-0.00000217,-0.00000485,0.000
 01104,0.00000107,-0.00002894,0.00001313,-0.00000991,0.00003350,-0.0000
 3772,0.00000964,-0.00025653,0.00000899,-0.00005192,0.00011010,-0.00038
 102,0.00001841,-0.00111224,0.00042356,-0.00031425,-0.00010191,0.000160
 75,-0.00002778,0.00014558,0.00010619,0.00004291,-0.00003013,-0.0000046
 4,-0.00001010,-0.00000820,0.00000729,0.00000568,0.00001573,-0.00000774
 ,-0.00000628,-0.00002135,0.00001442,0.00000242,0.00001863,-0.00000064,
 -0.00000354,-0.00001078,0.00000020,0.00000223,0.00000440,-0.00000171,-
 0.00000078,0.00000029,-0.00000240,0.00000025,0.00000529,0.,-0.00000094
 ,-0.00000542,-0.00000307,0.00000138,0.00000299,0.00000271,-0.00000065,
 -0.00000105,-0.00000594,0.00000020,-0.00001255,-0.00000178,0.00000934,
 0.00000721,-0.00000261,-0.00000111,-0.00000215,0.00001491,-0.00000101,
 -0.00000578,-0.00001363,0.00000497,0.00001067,-0.00001345,-0.00001014,
 0.00272779,-0.00405175,0.00050435,0.00155717,0.00181387,0.00022456,0.0
 0406721,0.00746675,0.00117916,-0.15154000,-0.22498972,-0.04138956,-0.0
 1275868,-0.01172905,-0.00325023,-0.00000401,-0.00000025,-0.00000014,-0
 .00002051,-0.00000441,-0.00000878,0.00000141,0.00000017,-0.00000067,-0
 .00000005,-0.00000077,0.,-0.00000084,-0.00000030,0.00000018,-0.0000005
 3,-0.00000014,-0.00000043,-0.00062170,0.00002123,-0.00005655,0.1578498
 7,0.23123984,-0.00001712,0.00004059,0.00018961,-0.00000956,-0.00001998
 ,-0.00002136,0.00000849,0.00000800,-0.00001373,0.00001733,-0.00000076,
 -0.00003995,0.00000178,-0.00000217,-0.00002689,0.00021753,0.00004461,-
 0.00061651,-0.00011144,0.00004241,0.00031928,-0.00029252,-0.00015379,0
 .00243354,0.00008124,-0.00003766,-0.00022824,-0.00003019,-0.00003341,0
 .00002905,-0.00003119,0.00000834,0.00011232,-0.00000373,0.00000443,-0.
 00000055,0.00000579,0.00000643,-0.00000178,0.00000196,-0.00000289,0.00
 000188,0.00000020,0.00000165,-0.00000268,-0.00000115,-0.00000145,-0.00
 000118,0.00000005,0.00000091,-0.00000122,-0.00000134,0.00000008,0.0000
 0159,-0.00000118,0.00000058,-0.00000132,0.00000136,0.00000257,0.000001
 05,-0.00000005,-0.00000196,-0.00000168,0.00000106,0.00000078,-0.000000
 24,-0.00001289,0.00000043,-0.00000335,0.00000347,-0.00000228,-0.000001
 31,-0.00000020,0.00000577,-0.00000099,0.00001102,-0.00000822,0.0000007
 2,-0.00000499,-0.00001469,-0.00000019,-0.00089142,0.00127455,0.0001751
 9,-0.00267036,-0.00059505,0.00639754,-0.00067974,-0.00506287,-0.000745
 40,-0.04136017,-0.04105133,-0.03206826,0.00216404,0.00219690,-0.002083
 45,0.00000054,-0.00000270,-0.00000237,-0.00001045,0.00000098,0.0000423
 8,0.00000072,-0.00000042,0.00000126,0.00000025,-0.00000008,0.00000118,
 -0.00000026,0.00000065,0.00000087,0.00000060,0.00000068,0.00000141,0.0
 0081708,0.00020278,-0.00306952,0.04279545,0.04314758,0.02922331\\0.000
 00706,0.00000314,0.00000016,0.00000175,-0.00000414,-0.00000442,-0.0000
 0641,-0.00000690,0.00000319,-0.00000165,0.00002158,-0.00000142,-0.0000
 0303,-0.00001140,0.00000086,-0.00001519,-0.00001963,-0.00000981,-0.000
 00888,0.00001334,-0.00000909,-0.00000035,-0.00000128,-0.00000155,-0.00
 001231,-0.00001361,-0.00000552,0.00003791,0.00002717,0.00003437,0.0000
 2252,-0.00001600,-0.00004486,-0.00001553,0.00000513,0.00001883,-0.0000
 0097,-0.00001779,-0.00000656,0.00002062,0.00002174,-0.00000764,-0.0000
 2029,-0.00000074,0.00000673,0.00000056,-0.00001624,-0.00000271,0.00000
 805,0.00001315,-0.00000041,-0.00001252,-0.00000095,0.00000299,-0.00000
 096,-0.00000427,0.00000553,0.00000755,0.00001348,-0.00000619,0.0000097
 3,-0.00000557,0.00000137,-0.00000834,-0.00001274,0.00000436,-0.0000001
 6,-0.00001516,0.00002201,-0.00002809,0.00002562,-0.00001314,0.00004584
 ,-0.00000256,0.00000594,-0.00001009,-0.00002060,-0.00001181,-0.0000131
 6,0.00001032,0.00001920,-0.00000753,-0.00000093,0.00000384,0.00000252,
 -0.00000760,-0.00000530,0.00000511,-0.00000219,0.00000156,-0.00000496,
 0.00001429,0.00000167,-0.00000897,-0.00000677,-0.00000200,-0.00000291,
 -0.00000133,-0.00000046,0.00000518,0.00000439,-0.00000255,0.00000145,0
 .00000440,0.00000333,-0.00000053,0.00000233,0.00000241,0.00000105,0.00
 000272,-0.00000247,0.00000348,0.00000124,-0.00000352,0.00000194,0.0000
 0177,0.00000089,0.00000050,0.00000258,0.00000220\\\@


 We make a living by what we get,
 we make a life by what we give.
                   -- Sir Winston Churchill
 There are more things in heaven and earth, Horatio,
 than are dreamt of in your philosophy.
                   -- Hamlet, Act I, Scene 5
 The chemist is a guest at the physicist's table and
 frequently dines well.
                   -- Richard Bersohn
 Job cpu time:  0 days 19 hours 38 minutes 38.8 seconds.
 File lengths (MBytes):  RWF=   1860 Int=      0 D2E=      0 Chk=     33 Scr=      1
 Normal termination of Gaussian 09 at Wed Jan  1 04:07:56 2014.
