 Entering Gaussian System, Link 0=g09
 Initial command:
 /opt/gaussian/g09/l1.exe /panfs/panfs.cluster/home/shuo/Gau-29190.inp -scrdir=/panfs/panfs.cluster/home/shuo/
 Default is to use a total of  12 processors:
                               12 via shared-memory
                                1 via Linda
 Entering Link 1 = /opt/gaussian/g09/l1.exe PID=     29191.
  
 Copyright (c) 1988,1990,1992,1993,1995,1998,2003,2009,2011,
            Gaussian, Inc.  All Rights Reserved.
  
 This is part of the Gaussian(R) 09 program.  It is based on
 the Gaussian(R) 03 system (copyright 2003, Gaussian, Inc.),
 the Gaussian(R) 98 system (copyright 1998, Gaussian, Inc.),
 the Gaussian(R) 94 system (copyright 1995, Gaussian, Inc.),
 the Gaussian 92(TM) system (copyright 1992, Gaussian, Inc.),
 the Gaussian 90(TM) system (copyright 1990, Gaussian, Inc.),
 the Gaussian 88(TM) system (copyright 1988, Gaussian, Inc.),
 the Gaussian 86(TM) system (copyright 1986, Carnegie Mellon
 University), and the Gaussian 82(TM) system (copyright 1983,
 Carnegie Mellon University). Gaussian is a federally registered
 trademark of Gaussian, Inc.
  
 This software contains proprietary and confidential information,
 including trade secrets, belonging to Gaussian, Inc.
  
 This software is provided under written license and may be
 used, copied, transmitted, or stored only in accord with that
 written license.
  
 The following legend is applicable only to US Government
 contracts under FAR:
  
                    RESTRICTED RIGHTS LEGEND
  
 Use, reproduction and disclosure by the US Government is
 subject to restrictions as set forth in subparagraphs (a)
 and (c) of the Commercial Computer Software - Restricted
 Rights clause in FAR 52.227-19.
  
 Gaussian, Inc.
 340 Quinnipiac St., Bldg. 40, Wallingford CT 06492
  
  
 ---------------------------------------------------------------
 Warning -- This program may not be used in any manner that
 competes with the business of Gaussian, Inc. or will provide
 assistance to any competitor of Gaussian, Inc.  The licensee
 of this program is prohibited from giving any competitor of
 Gaussian, Inc. access to this program.  By using this program,
 the user acknowledges that Gaussian, Inc. is engaged in the
 business of creating and licensing software in the field of
 computational chemistry and represents and warrants to the
 licensee that it is not a competitor of Gaussian, Inc. and that
 it will not use this program in any manner prohibited above.
 ---------------------------------------------------------------
  

 Cite this work as:
 Gaussian 09, Revision C.01,
 M. J. Frisch, G. W. Trucks, H. B. Schlegel, G. E. Scuseria, 
 M. A. Robb, J. R. Cheeseman, G. Scalmani, V. Barone, B. Mennucci, 
 G. A. Petersson, H. Nakatsuji, M. Caricato, X. Li, H. P. Hratchian, 
 A. F. Izmaylov, J. Bloino, G. Zheng, J. L. Sonnenberg, M. Hada, 
 M. Ehara, K. Toyota, R. Fukuda, J. Hasegawa, M. Ishida, T. Nakajima, 
 Y. Honda, O. Kitao, H. Nakai, T. Vreven, J. A. Montgomery, Jr., 
 J. E. Peralta, F. Ogliaro, M. Bearpark, J. J. Heyd, E. Brothers, 
 K. N. Kudin, V. N. Staroverov, T. Keith, R. Kobayashi, J. Normand, 
 K. Raghavachari, A. Rendell, J. C. Burant, S. S. Iyengar, J. Tomasi, 
 M. Cossi, N. Rega, J. M. Millam, M. Klene, J. E. Knox, J. B. Cross, 
 V. Bakken, C. Adamo, J. Jaramillo, R. Gomperts, R. E. Stratmann, 
 O. Yazyev, A. J. Austin, R. Cammi, C. Pomelli, J. W. Ochterski, 
 R. L. Martin, K. Morokuma, V. G. Zakrzewski, G. A. Voth, 
 P. Salvador, J. J. Dannenberg, S. Dapprich, A. D. Daniels, 
 O. Farkas, J. B. Foresman, J. V. Ortiz, J. Cioslowski, 
 and D. J. Fox, Gaussian, Inc., Wallingford CT, 2010.
 
 ******************************************
 Gaussian 09:  EM64L-G09RevC.01 23-Sep-2011
                30-Dec-2013 
 ******************************************
 %chk=90_C23H11N5S3Si.chk
 %NProcShared=12
 Will use up to   12 processors via shared memory.
 %Mem=8000MB
 Default route:  MaxDisk=100GB
 --------------------------------------------
 #B3LYP/6-31++G(d,p) opt scf=direct freq test
 --------------------------------------------
 1/14=-1,18=20,19=15,26=3,38=1/1,3;
 2/9=110,12=2,17=6,18=5,40=1/2;
 3/5=1,6=6,7=1111,11=2,16=1,25=1,30=1,71=1,74=-5/1,2,3;
 4//1;
 5/5=2,38=5/2;
 6/7=2,8=2,9=2,10=2,28=1/1;
 7//1,2,3,16;
 1/14=-1,18=20,19=15/3(2);
 2/9=110/2;
 99//99;
 2/9=110/2;
 3/5=1,6=6,7=1111,11=2,16=1,25=1,30=1,71=1,74=-5/1,2,3;
 4/5=5,16=3/1;
 5/5=2,38=5/2;
 7//1,2,3,16;
 1/14=-1,18=20,19=15/3(-5);
 2/9=110/2;
 6/7=2,8=2,9=2,10=2,19=2,28=1/1;
 99/9=1/99;
 ----------------------------------------------------------------------
 Geom opt of No.90 candidate from the CEPDB database with SMILE code of
  C1ccc2c1c(sc2-c1cnc(s1)-c1nccc2nsnc12)-c1scc2[SiH2]ccc12, HPC, 201312
 27, Shuo Dai, Gaussian09
 ----------------------------------------------------------------------
 Charge =  0 Multiplicity = 1
 Symbolic Z-Matrix:
 C                    -1.38349   1.2292    0.00303 
 C                    -2.18031  -0.05865   0.00235 
 C                    -1.35306  -1.1137    0.00438 
 C                     0.01232  -0.66615   0.0062 
 C                     0.02604   0.74035   0.00296 
 C                     1.31254   1.21856   0.00167 
 S                     2.45338  -0.04237   0.00543 
 C                     1.26721  -1.19172   0.00717 
 C                     1.73878  -2.50607  -0.00265 
 C                     2.9757   -3.09477   0.02056 
 N                     2.93206  -4.48116   0.02151 
 C                     1.66228  -4.84967  -0.01372 
 S                     0.55193  -3.61421  -0.09962 
 C                     1.05402  -6.14785  -0.00861 
 N                     1.88535  -7.21397  -0.00018 
 C                     1.36749  -8.46098  -0.00859 
 C                     0.01882  -8.81109  -0.02614 
 C                    -0.87841  -7.7322   -0.03667 
 N                    -2.21922  -7.81977  -0.0584 
 S                    -2.81212  -6.27774  -0.06612 
 N                    -1.3941   -5.4665   -0.03332 
 C                    -0.37193  -6.35383  -0.02518 
 C                     1.86903   2.52456  -0.00049 
 S                     3.62636   2.72241  -0.00589 
 C                     3.52941   4.40039  -0.00519 
 C                     2.22291   4.75733  -0.0005 
 Si                    1.36008   6.36124   0.00669 
 H                     1.74627   6.95787  -1.28741 
 H                     1.74719   6.9406    1.3082 
 C                    -0.28835   5.48453   0.0092 
 C                    -0.1135    4.15976   0.00839 
 C                     1.25524   3.72979   0.00243 
 H                    -1.61275   1.78167   0.91712 
 H                    -1.61415   1.78636  -0.90788 
 H                    -3.26211  -0.09661   0.00232 
 H                    -1.70654  -2.13743   0.00463 
 H                     3.93308  -2.57687   0.0422 
 H                     2.13784  -9.22557  -0.00159 
 H                    -0.3235   -9.82802  -0.0318 
 H                     4.43546   4.98137  -0.0071 
 H                    -1.23511   6.0019    0.01476 
 H                    -0.9718    3.51495   0.01365 
 

 GradGradGradGradGradGradGradGradGradGradGradGradGradGradGradGradGradGrad
 Berny optimization.
 Initialization pass.
                           ----------------------------
                           !    Initial Parameters    !
                           ! (Angstroms and Degrees)  !
 --------------------------                            --------------------------
 ! Name  Definition              Value          Derivative Info.                !
 --------------------------------------------------------------------------------
 ! R1    R(1,2)                  1.5144         estimate D2E/DX2                !
 ! R2    R(1,5)                  1.4919         estimate D2E/DX2                !
 ! R3    R(1,33)                 1.0924         estimate D2E/DX2                !
 ! R4    R(1,34)                 1.0924         estimate D2E/DX2                !
 ! R5    R(2,3)                  1.3407         estimate D2E/DX2                !
 ! R6    R(2,35)                 1.0825         estimate D2E/DX2                !
 ! R7    R(3,4)                  1.4369         estimate D2E/DX2                !
 ! R8    R(3,36)                 1.083          estimate D2E/DX2                !
 ! R9    R(4,5)                  1.4066         estimate D2E/DX2                !
 ! R10   R(4,8)                  1.3605         estimate D2E/DX2                !
 ! R11   R(5,6)                  1.3725         estimate D2E/DX2                !
 ! R12   R(6,7)                  1.7004         estimate D2E/DX2                !
 ! R13   R(6,23)                 1.4196         estimate D2E/DX2                !
 ! R14   R(7,8)                  1.6517         estimate D2E/DX2                !
 ! R15   R(8,9)                  1.3964         estimate D2E/DX2                !
 ! R16   R(9,10)                 1.3701         estimate D2E/DX2                !
 ! R17   R(9,13)                 1.6267         estimate D2E/DX2                !
 ! R18   R(10,11)                1.3871         estimate D2E/DX2                !
 ! R19   R(10,37)                1.0887         estimate D2E/DX2                !
 ! R20   R(11,12)                1.3226         estimate D2E/DX2                !
 ! R21   R(12,13)                1.6633         estimate D2E/DX2                !
 ! R22   R(12,14)                1.4336         estimate D2E/DX2                !
 ! R23   R(14,15)                1.352          estimate D2E/DX2                !
 ! R24   R(14,22)                1.4408         estimate D2E/DX2                !
 ! R25   R(15,16)                1.3503         estimate D2E/DX2                !
 ! R26   R(16,17)                1.3935         estimate D2E/DX2                !
 ! R27   R(16,38)                1.0854         estimate D2E/DX2                !
 ! R28   R(17,18)                1.4033         estimate D2E/DX2                !
 ! R29   R(17,39)                1.073          estimate D2E/DX2                !
 ! R30   R(18,19)                1.3438         estimate D2E/DX2                !
 ! R31   R(18,22)                1.4685         estimate D2E/DX2                !
 ! R32   R(19,20)                1.6521         estimate D2E/DX2                !
 ! R33   R(20,21)                1.634          estimate D2E/DX2                !
 ! R34   R(21,22)                1.3536         estimate D2E/DX2                !
 ! R35   R(23,24)                1.7684         estimate D2E/DX2                !
 ! R36   R(23,32)                1.3525         estimate D2E/DX2                !
 ! R37   R(24,25)                1.6808         estimate D2E/DX2                !
 ! R38   R(25,26)                1.3544         estimate D2E/DX2                !
 ! R39   R(25,40)                1.0763         estimate D2E/DX2                !
 ! R40   R(26,27)                1.8213         estimate D2E/DX2                !
 ! R41   R(26,32)                1.4115         estimate D2E/DX2                !
 ! R42   R(27,28)                1.4764         estimate D2E/DX2                !
 ! R43   R(27,29)                1.4763         estimate D2E/DX2                !
 ! R44   R(27,30)                1.8671         estimate D2E/DX2                !
 ! R45   R(30,31)                1.3363         estimate D2E/DX2                !
 ! R46   R(30,41)                1.0789         estimate D2E/DX2                !
 ! R47   R(31,32)                1.4347         estimate D2E/DX2                !
 ! R48   R(31,42)                1.0735         estimate D2E/DX2                !
 ! A1    A(2,1,5)              102.6185         estimate D2E/DX2                !
 ! A2    A(2,1,33)             108.6646         estimate D2E/DX2                !
 ! A3    A(2,1,34)             108.7989         estimate D2E/DX2                !
 ! A4    A(5,1,33)             111.3483         estimate D2E/DX2                !
 ! A5    A(5,1,34)             111.5041         estimate D2E/DX2                !
 ! A6    A(33,1,34)            113.2962         estimate D2E/DX2                !
 ! A7    A(1,2,3)              110.1545         estimate D2E/DX2                !
 ! A8    A(1,2,35)             123.7556         estimate D2E/DX2                !
 ! A9    A(3,2,35)             126.0898         estimate D2E/DX2                !
 ! A10   A(2,3,4)              109.9512         estimate D2E/DX2                !
 ! A11   A(2,3,36)             122.8514         estimate D2E/DX2                !
 ! A12   A(4,3,36)             127.1974         estimate D2E/DX2                !
 ! A13   A(3,4,5)              108.707          estimate D2E/DX2                !
 ! A14   A(3,4,8)              139.1269         estimate D2E/DX2                !
 ! A15   A(5,4,8)              112.1659         estimate D2E/DX2                !
 ! A16   A(1,5,4)              108.5685         estimate D2E/DX2                !
 ! A17   A(1,5,6)              140.4817         estimate D2E/DX2                !
 ! A18   A(4,5,6)              110.9498         estimate D2E/DX2                !
 ! A19   A(5,6,7)              111.7466         estimate D2E/DX2                !
 ! A20   A(5,6,23)             133.4698         estimate D2E/DX2                !
 ! A21   A(7,6,23)             114.7836         estimate D2E/DX2                !
 ! A22   A(6,7,8)               91.9594         estimate D2E/DX2                !
 ! A23   A(4,8,7)              113.1783         estimate D2E/DX2                !
 ! A24   A(4,8,9)              132.4604         estimate D2E/DX2                !
 ! A25   A(7,8,9)              114.3584         estimate D2E/DX2                !
 ! A26   A(8,9,10)             135.1695         estimate D2E/DX2                !
 ! A27   A(8,9,13)             113.2801         estimate D2E/DX2                !
 ! A28   A(10,9,13)            111.5314         estimate D2E/DX2                !
 ! A29   A(9,10,11)            113.6458         estimate D2E/DX2                !
 ! A30   A(9,10,37)            126.1465         estimate D2E/DX2                !
 ! A31   A(11,10,37)           120.2068         estimate D2E/DX2                !
 ! A32   A(10,11,12)           107.9788         estimate D2E/DX2                !
 ! A33   A(11,12,13)           115.8044         estimate D2E/DX2                !
 ! A34   A(11,12,14)           131.2635         estimate D2E/DX2                !
 ! A35   A(13,12,14)           112.9265         estimate D2E/DX2                !
 ! A36   A(9,13,12)             90.9088         estimate D2E/DX2                !
 ! A37   A(12,14,15)           116.9492         estimate D2E/DX2                !
 ! A38   A(12,14,22)           123.3194         estimate D2E/DX2                !
 ! A39   A(15,14,22)           119.7284         estimate D2E/DX2                !
 ! A40   A(14,15,16)           119.4979         estimate D2E/DX2                !
 ! A41   A(15,16,17)           127.1061         estimate D2E/DX2                !
 ! A42   A(15,16,38)           112.2294         estimate D2E/DX2                !
 ! A43   A(17,16,38)           120.6645         estimate D2E/DX2                !
 ! A44   A(16,17,18)           115.1982         estimate D2E/DX2                !
 ! A45   A(16,17,39)           123.1579         estimate D2E/DX2                !
 ! A46   A(18,17,39)           121.6438         estimate D2E/DX2                !
 ! A47   A(17,18,19)           126.0129         estimate D2E/DX2                !
 ! A48   A(17,18,22)           120.0707         estimate D2E/DX2                !
 ! A49   A(19,18,22)           113.9164         estimate D2E/DX2                !
 ! A50   A(18,19,20)           107.2967         estimate D2E/DX2                !
 ! A51   A(19,20,21)            98.7349         estimate D2E/DX2                !
 ! A52   A(20,21,22)           109.2686         estimate D2E/DX2                !
 ! A53   A(14,22,18)           118.3982         estimate D2E/DX2                !
 ! A54   A(14,22,21)           130.8207         estimate D2E/DX2                !
 ! A55   A(18,22,21)           110.781          estimate D2E/DX2                !
 ! A56   A(6,23,24)            119.5027         estimate D2E/DX2                !
 ! A57   A(6,23,32)            129.9321         estimate D2E/DX2                !
 ! A58   A(24,23,32)           110.5651         estimate D2E/DX2                !
 ! A59   A(23,24,25)            93.1168         estimate D2E/DX2                !
 ! A60   A(24,25,26)           108.5872         estimate D2E/DX2                !
 ! A61   A(24,25,40)           119.3621         estimate D2E/DX2                !
 ! A62   A(26,25,40)           132.0507         estimate D2E/DX2                !
 ! A63   A(25,26,27)           133.559          estimate D2E/DX2                !
 ! A64   A(25,26,32)           118.001          estimate D2E/DX2                !
 ! A65   A(27,26,32)           108.4399         estimate D2E/DX2                !
 ! A66   A(26,27,28)           103.2086         estimate D2E/DX2                !
 ! A67   A(26,27,29)           102.9946         estimate D2E/DX2                !
 ! A68   A(26,27,30)            90.2724         estimate D2E/DX2                !
 ! A69   A(28,27,29)           123.0632         estimate D2E/DX2                !
 ! A70   A(28,27,30)           114.953          estimate D2E/DX2                !
 ! A71   A(29,27,30)           114.4943         estimate D2E/DX2                !
 ! A72   A(27,30,31)           110.4873         estimate D2E/DX2                !
 ! A73   A(27,30,41)           123.3389         estimate D2E/DX2                !
 ! A74   A(31,30,41)           126.1734         estimate D2E/DX2                !
 ! A75   A(30,31,32)           114.958          estimate D2E/DX2                !
 ! A76   A(30,31,42)           119.3969         estimate D2E/DX2                !
 ! A77   A(32,31,42)           125.645          estimate D2E/DX2                !
 ! A78   A(23,32,26)           109.7299         estimate D2E/DX2                !
 ! A79   A(23,32,31)           134.4279         estimate D2E/DX2                !
 ! A80   A(26,32,31)           115.8421         estimate D2E/DX2                !
 ! D1    D(5,1,2,3)              0.1104         estimate D2E/DX2                !
 ! D2    D(5,1,2,35)           179.9932         estimate D2E/DX2                !
 ! D3    D(33,1,2,3)          -117.8834         estimate D2E/DX2                !
 ! D4    D(33,1,2,35)           61.9995         estimate D2E/DX2                !
 ! D5    D(34,1,2,3)           118.3405         estimate D2E/DX2                !
 ! D6    D(34,1,2,35)          -61.7766         estimate D2E/DX2                !
 ! D7    D(2,1,5,4)             -0.1671         estimate D2E/DX2                !
 ! D8    D(2,1,5,6)            179.8917         estimate D2E/DX2                !
 ! D9    D(33,1,5,4)           115.9118         estimate D2E/DX2                !
 ! D10   D(33,1,5,6)           -64.0295         estimate D2E/DX2                !
 ! D11   D(34,1,5,4)          -116.471          estimate D2E/DX2                !
 ! D12   D(34,1,5,6)            63.5878         estimate D2E/DX2                !
 ! D13   D(1,2,3,4)             -0.0135         estimate D2E/DX2                !
 ! D14   D(1,2,3,36)           179.981          estimate D2E/DX2                !
 ! D15   D(35,2,3,4)          -179.893          estimate D2E/DX2                !
 ! D16   D(35,2,3,36)            0.1015         estimate D2E/DX2                !
 ! D17   D(2,3,4,5)             -0.098          estimate D2E/DX2                !
 ! D18   D(2,3,4,8)           -179.9126         estimate D2E/DX2                !
 ! D19   D(36,3,4,5)           179.9078         estimate D2E/DX2                !
 ! D20   D(36,3,4,8)             0.0931         estimate D2E/DX2                !
 ! D21   D(3,4,5,1)              0.1685         estimate D2E/DX2                !
 ! D22   D(3,4,5,6)           -179.8716         estimate D2E/DX2                !
 ! D23   D(8,4,5,1)           -179.9625         estimate D2E/DX2                !
 ! D24   D(8,4,5,6)             -0.0025         estimate D2E/DX2                !
 ! D25   D(3,4,8,7)            179.8531         estimate D2E/DX2                !
 ! D26   D(3,4,8,9)              0.5198         estimate D2E/DX2                !
 ! D27   D(5,4,8,7)              0.0427         estimate D2E/DX2                !
 ! D28   D(5,4,8,9)           -179.2906         estimate D2E/DX2                !
 ! D29   D(1,5,6,7)            179.9032         estimate D2E/DX2                !
 ! D30   D(1,5,6,23)            -0.008          estimate D2E/DX2                !
 ! D31   D(4,5,6,7)             -0.0372         estimate D2E/DX2                !
 ! D32   D(4,5,6,23)          -179.9484         estimate D2E/DX2                !
 ! D33   D(5,6,7,8)              0.0525         estimate D2E/DX2                !
 ! D34   D(23,6,7,8)           179.9815         estimate D2E/DX2                !
 ! D35   D(5,6,23,24)         -179.8399         estimate D2E/DX2                !
 ! D36   D(5,6,23,32)            0.2427         estimate D2E/DX2                !
 ! D37   D(7,6,23,24)            0.251          estimate D2E/DX2                !
 ! D38   D(7,6,23,32)         -179.6664         estimate D2E/DX2                !
 ! D39   D(6,7,8,4)             -0.0544         estimate D2E/DX2                !
 ! D40   D(6,7,8,9)            179.4057         estimate D2E/DX2                !
 ! D41   D(4,8,9,10)          -178.6417         estimate D2E/DX2                !
 ! D42   D(4,8,9,13)             3.1232         estimate D2E/DX2                !
 ! D43   D(7,8,9,10)             2.0311         estimate D2E/DX2                !
 ! D44   D(7,8,9,13)          -176.204          estimate D2E/DX2                !
 ! D45   D(8,9,10,11)          178.8339         estimate D2E/DX2                !
 ! D46   D(8,9,10,37)           -0.8469         estimate D2E/DX2                !
 ! D47   D(13,9,10,11)          -2.9089         estimate D2E/DX2                !
 ! D48   D(13,9,10,37)         177.4103         estimate D2E/DX2                !
 ! D49   D(8,9,13,12)         -178.0125         estimate D2E/DX2                !
 ! D50   D(10,9,13,12)           3.325          estimate D2E/DX2                !
 ! D51   D(9,10,11,12)           0.575          estimate D2E/DX2                !
 ! D52   D(37,10,11,12)       -179.7233         estimate D2E/DX2                !
 ! D53   D(10,11,12,13)          2.0138         estimate D2E/DX2                !
 ! D54   D(10,11,12,14)       -178.9252         estimate D2E/DX2                !
 ! D55   D(11,12,13,9)          -3.2049         estimate D2E/DX2                !
 ! D56   D(14,12,13,9)         177.5615         estimate D2E/DX2                !
 ! D57   D(11,12,14,15)         -1.9131         estimate D2E/DX2                !
 ! D58   D(11,12,14,22)        178.7128         estimate D2E/DX2                !
 ! D59   D(13,12,14,15)        177.169          estimate D2E/DX2                !
 ! D60   D(13,12,14,22)         -2.2051         estimate D2E/DX2                !
 ! D61   D(12,14,15,16)       -179.3404         estimate D2E/DX2                !
 ! D62   D(22,14,15,16)          0.0574         estimate D2E/DX2                !
 ! D63   D(12,14,22,18)        179.169          estimate D2E/DX2                !
 ! D64   D(12,14,22,21)         -0.7915         estimate D2E/DX2                !
 ! D65   D(15,14,22,18)         -0.1885         estimate D2E/DX2                !
 ! D66   D(15,14,22,21)        179.851          estimate D2E/DX2                !
 ! D67   D(14,15,16,17)          0.0225         estimate D2E/DX2                !
 ! D68   D(14,15,16,38)        179.9327         estimate D2E/DX2                !
 ! D69   D(15,16,17,18)          0.0372         estimate D2E/DX2                !
 ! D70   D(15,16,17,39)       -179.988          estimate D2E/DX2                !
 ! D71   D(38,16,17,18)       -179.8661         estimate D2E/DX2                !
 ! D72   D(38,16,17,39)          0.1087         estimate D2E/DX2                !
 ! D73   D(16,17,18,19)        179.7623         estimate D2E/DX2                !
 ! D74   D(16,17,18,22)         -0.1718         estimate D2E/DX2                !
 ! D75   D(39,17,18,19)         -0.2129         estimate D2E/DX2                !
 ! D76   D(39,17,18,22)        179.853          estimate D2E/DX2                !
 ! D77   D(17,18,19,20)       -179.8662         estimate D2E/DX2                !
 ! D78   D(22,18,19,20)          0.0714         estimate D2E/DX2                !
 ! D79   D(17,18,22,14)          0.2497         estimate D2E/DX2                !
 ! D80   D(17,18,22,21)       -179.7823         estimate D2E/DX2                !
 ! D81   D(19,18,22,14)       -179.692          estimate D2E/DX2                !
 ! D82   D(19,18,22,21)          0.2761         estimate D2E/DX2                !
 ! D83   D(18,19,20,21)         -0.3178         estimate D2E/DX2                !
 ! D84   D(19,20,21,22)          0.4847         estimate D2E/DX2                !
 ! D85   D(20,21,22,14)        179.4751         estimate D2E/DX2                !
 ! D86   D(20,21,22,18)         -0.4877         estimate D2E/DX2                !
 ! D87   D(6,23,24,25)        -179.9654         estimate D2E/DX2                !
 ! D88   D(32,23,24,25)         -0.0331         estimate D2E/DX2                !
 ! D89   D(6,23,32,26)         179.9535         estimate D2E/DX2                !
 ! D90   D(6,23,32,31)          -0.0052         estimate D2E/DX2                !
 ! D91   D(24,23,32,26)          0.0303         estimate D2E/DX2                !
 ! D92   D(24,23,32,31)       -179.9284         estimate D2E/DX2                !
 ! D93   D(23,24,25,26)          0.0248         estimate D2E/DX2                !
 ! D94   D(23,24,25,40)        179.9536         estimate D2E/DX2                !
 ! D95   D(24,25,26,27)        179.835          estimate D2E/DX2                !
 ! D96   D(24,25,26,32)         -0.0123         estimate D2E/DX2                !
 ! D97   D(40,25,26,27)         -0.0814         estimate D2E/DX2                !
 ! D98   D(40,25,26,32)       -179.9288         estimate D2E/DX2                !
 ! D99   D(25,26,27,28)         64.2664         estimate D2E/DX2                !
 ! D100  D(25,26,27,29)        -64.7307         estimate D2E/DX2                !
 ! D101  D(25,26,27,30)       -179.9827         estimate D2E/DX2                !
 ! D102  D(32,26,27,28)       -115.8757         estimate D2E/DX2                !
 ! D103  D(32,26,27,29)        115.1272         estimate D2E/DX2                !
 ! D104  D(32,26,27,30)         -0.1248         estimate D2E/DX2                !
 ! D105  D(25,26,32,23)         -0.0126         estimate D2E/DX2                !
 ! D106  D(25,26,32,31)        179.9546         estimate D2E/DX2                !
 ! D107  D(27,26,32,23)       -179.896          estimate D2E/DX2                !
 ! D108  D(27,26,32,31)          0.0712         estimate D2E/DX2                !
 ! D109  D(26,27,30,31)          0.16           estimate D2E/DX2                !
 ! D110  D(26,27,30,41)        179.9231         estimate D2E/DX2                !
 ! D111  D(28,27,30,31)        104.8884         estimate D2E/DX2                !
 ! D112  D(28,27,30,41)        -75.3485         estimate D2E/DX2                !
 ! D113  D(29,27,30,31)       -104.2742         estimate D2E/DX2                !
 ! D114  D(29,27,30,41)         75.4889         estimate D2E/DX2                !
 ! D115  D(27,30,31,32)         -0.1512         estimate D2E/DX2                !
 ! D116  D(27,30,31,42)        179.7534         estimate D2E/DX2                !
 ! D117  D(41,30,31,32)       -179.906          estimate D2E/DX2                !
 ! D118  D(41,30,31,42)         -0.0014         estimate D2E/DX2                !
 ! D119  D(30,31,32,23)       -179.9876         estimate D2E/DX2                !
 ! D120  D(30,31,32,26)          0.0556         estimate D2E/DX2                !
 ! D121  D(42,31,32,23)          0.1147         estimate D2E/DX2                !
 ! D122  D(42,31,32,26)       -179.8421         estimate D2E/DX2                !
 --------------------------------------------------------------------------------
 Trust Radius=3.00D-01 FncErr=1.00D-07 GrdErr=1.00D-06
 Number of steps in this run=    252 maximum allowed number of steps=    252.
 GradGradGradGradGradGradGradGradGradGradGradGradGradGradGradGradGradGrad

                          Input orientation:                          
 ---------------------------------------------------------------------
 Center     Atomic      Atomic             Coordinates (Angstroms)
 Number     Number       Type             X           Y           Z
 ---------------------------------------------------------------------
      1          6           0       -1.383490    1.229200    0.003030
      2          6           0       -2.180310   -0.058650    0.002350
      3          6           0       -1.353060   -1.113700    0.004380
      4          6           0        0.012320   -0.666150    0.006200
      5          6           0        0.026040    0.740350    0.002960
      6          6           0        1.312540    1.218560    0.001670
      7         16           0        2.453380   -0.042370    0.005430
      8          6           0        1.267210   -1.191720    0.007170
      9          6           0        1.738780   -2.506070   -0.002650
     10          6           0        2.975700   -3.094770    0.020560
     11          7           0        2.932060   -4.481160    0.021510
     12          6           0        1.662280   -4.849670   -0.013720
     13         16           0        0.551930   -3.614210   -0.099620
     14          6           0        1.054020   -6.147850   -0.008610
     15          7           0        1.885350   -7.213970   -0.000180
     16          6           0        1.367490   -8.460980   -0.008590
     17          6           0        0.018820   -8.811090   -0.026140
     18          6           0       -0.878410   -7.732200   -0.036670
     19          7           0       -2.219220   -7.819770   -0.058400
     20         16           0       -2.812120   -6.277740   -0.066120
     21          7           0       -1.394100   -5.466500   -0.033320
     22          6           0       -0.371930   -6.353830   -0.025180
     23          6           0        1.869030    2.524560   -0.000490
     24         16           0        3.626360    2.722410   -0.005890
     25          6           0        3.529410    4.400390   -0.005190
     26          6           0        2.222910    4.757330   -0.000500
     27         14           0        1.360080    6.361240    0.006690
     28          1           0        1.746270    6.957870   -1.287410
     29          1           0        1.747190    6.940600    1.308200
     30          6           0       -0.288350    5.484530    0.009200
     31          6           0       -0.113500    4.159760    0.008390
     32          6           0        1.255240    3.729790    0.002430
     33          1           0       -1.612750    1.781670    0.917120
     34          1           0       -1.614150    1.786360   -0.907880
     35          1           0       -3.262110   -0.096610    0.002320
     36          1           0       -1.706540   -2.137430    0.004630
     37          1           0        3.933080   -2.576870    0.042200
     38          1           0        2.137840   -9.225570   -0.001590
     39          1           0       -0.323500   -9.828020   -0.031800
     40          1           0        4.435460    4.981370   -0.007100
     41          1           0       -1.235110    6.001900    0.014760
     42          1           0       -0.971800    3.514950    0.013650
 ---------------------------------------------------------------------
                    Distance matrix (angstroms):
                    1          2          3          4          5
     1  C    0.000000
     2  C    1.514424   0.000000
     3  C    2.343098   1.340700   0.000000
     4  C    2.353858   2.275236   1.436860   0.000000
     5  C    1.491894   2.346568   2.310719   1.406571   0.000000
     6  C    2.696051   3.719041   3.541873   2.289700   1.372505
     7  S    4.042087   4.633720   3.954331   2.519499   2.550419
     8  C    3.589858   3.628948   2.621433   1.360505   2.296392
     9  C    4.868351   4.620515   3.390902   2.523103   3.670525
    10  C    6.139997   5.983544   4.760574   3.831452   4.838280
    11  N    7.157690   6.759829   5.449985   4.804104   5.975740
    12  C    6.799239   6.141631   4.801049   4.497177   5.824593
    13  S    5.216801   4.485258   3.145211   2.998906   4.387400
    14  C    7.769328   6.894880   5.580042   5.579820   6.964494
    15  N    9.053864   8.229715   6.906563   6.810450   8.168736
    16  C   10.073113   9.120644   7.834800   7.911768   9.298607
    17  C   10.137788   9.024533   7.818747   8.145007   9.551487
    18  C    8.975710   7.783305   6.635625   7.122099   8.520781
    19  N    9.087688   7.761455   6.762067   7.493879   8.849893
    20  S    7.641984   6.251476   5.366669   6.282725   7.570569
    21  N    6.695807   5.464818   4.353157   5.002293   6.367346
    22  C    7.650254   6.549831   5.331271   5.700731   7.105390
    23  C    3.500979   4.803138   4.859920   3.691618   2.565157
    24  S    5.227653   6.438306   6.285735   4.954167   4.109859
    25  C    5.847487   7.244584   7.365039   6.167648   5.066514
    26  C    5.045179   6.525490   6.874342   5.856696   4.578469
    27  Si   5.819366   7.331396   7.952098   7.155464   5.777030
    28  H    6.654194   8.143283   8.742128   7.925004   6.578891
    29  H    6.642644   8.131421   8.728301   7.909970   6.565753
    30  C    4.393996   5.857167   6.683582   6.158025   4.754590
    31  C    3.193914   4.697523   5.417186   4.827550   3.422260
    32  C    3.635361   5.114223   5.501148   4.568277   3.232288
    33  H    1.092403   2.132066   3.046917   3.076110   2.146082
    34  H    1.092423   2.133804   3.051350   3.081518   2.148020
    35  H    2.299345   1.082466   2.163088   3.323595   3.392998
    36  H    3.382094   2.132086   1.083038   2.262553   3.359085
    37  H    6.538625   6.611850   5.485032   4.361709   5.125471
    38  H   11.031863  10.133058   8.831130   8.819386  10.187212
    39  H   11.107966   9.944320   8.775003   9.168101  10.574206
    40  H    6.923804   8.316869   8.405770   7.173481   6.117952
    41  H    4.775020   6.133826   7.116585   6.783734   5.410596
    42  H    2.322553   3.772432   4.644335   4.295363   2.948594
                    6          7          8          9         10
     6  C    0.000000
     7  S    1.700434   0.000000
     8  C    2.410712   1.651668   0.000000
     9  C    3.748942   2.565256   1.396421   0.000000
    10  C    4.622907   3.096804   2.557482   1.370065   0.000000
    11  N    5.925373   4.464555   3.686780   2.307700   1.387077
    12  C    6.078320   4.871995   3.679282   2.344874   2.192241
    13  S    4.893307   4.047788   2.528139   1.626650   2.481718
    14  C    7.370952   6.263808   4.960738   3.705603   3.607631
    15  N    8.451963   7.194063   6.053895   4.710182   4.261115
    16  C    9.679701   8.488365   7.269969   5.966477   5.602089
    17  C   10.112782   9.100469   7.721035   6.535449   6.435964
    18  C    9.215087   8.380697   6.883566   5.844936   6.030190
    19  N    9.704038   9.073324   7.489362   6.626030   7.022753
    20  S    8.556397   8.161522   6.520269   5.911025   6.605882
    21  N    7.212292   6.650247   5.035668   4.310455   4.972239
    22  C    7.757529   6.915045   5.416198   4.388720   4.672279
    23  C    1.419620   2.632609   3.764702   5.032316   5.727306
    24  S    2.759599   3.003335   4.570139   5.558774   5.853515
    25  C    3.877964   4.571222   6.032362   7.134813   7.515629
    26  C    3.653994   4.805234   6.025331   7.279517   7.888131
    27  Si   5.142902   6.496270   7.553531   8.875398   9.593047
    28  H    5.898265   7.153656   8.265667   9.550750  10.211653
    29  H    5.885379   7.138472   8.249708   9.537189  10.191953
    30  C    4.556469   6.169580   6.855077   8.243730   9.179245
    31  C    3.268684   4.924102   5.526726   6.918407   7.884891
    32  C    2.511884   3.957871   4.921527   6.254581   7.038106
    33  H    3.116482   4.548815   4.238305   5.519370   6.755543
    34  H    3.116920   4.552273   4.243644   5.521461   6.764182
    35  H    4.759947   5.715748   4.659831   5.551074   6.920952
    36  H    4.514147   4.657705   3.120507   3.464993   4.779134
    37  H    4.612392   2.935056   3.004452   2.195900   1.088699
    38  H   10.476688   9.188622   8.080892   6.731339   6.187827
    39  H   11.167125  10.172089   8.781660   7.606892   7.498274
    40  H    4.889933   5.400626   6.938664   7.958257   8.207052
    41  H    5.419505   7.080836   7.616419   9.012762  10.023989
    42  H    3.239099   4.938264   5.212097   6.603044   7.698779
                   11         12         13         14         15
    11  N    0.000000
    12  C    1.322642   0.000000
    13  S    2.536000   1.663315   0.000000
    14  C    2.511135   1.433624   2.584513   0.000000
    15  N    2.926486   2.374839   3.840074   1.351959   0.000000
    16  C    4.276418   3.623325   4.915751   2.334274   1.350290
    17  C    5.218959   4.288818   5.224669   2.857410   2.456705
    18  C    5.009224   3.842475   4.359779   2.499047   2.812163
    19  N    6.139087   4.887692   5.036636   3.675853   4.149443
    20  S    6.019218   4.697061   4.290961   3.868749   4.790313
    21  N    4.437292   3.118064   2.687454   2.541287   3.716119
    22  C    3.798081   2.529948   2.892158   1.440845   2.415736
    23  C    7.085946   7.377140   6.279258   8.710626   9.738544
    24  S    7.237004   7.822664   7.043696   9.235716  10.087755
    25  C    8.901655   9.436623   8.550328  10.834802  11.730146
    26  C    9.265693   9.623353   8.537253  10.967649  11.976058
    27  Si  10.955774  11.215001  10.008697  12.512843  13.585370
    28  H   11.574575  11.876335  10.705427  13.186146  14.230859
    29  H   11.554916  11.864449  10.715158  13.172775  14.215583
    30  C   10.473117  10.516709   9.138106  11.709592  12.883205
    31  C    9.161938   9.182794   7.803145  10.373534  11.548039
    32  C    8.380441   8.589125   7.378306   9.879696  10.961885
    33  H    7.789766   7.454325   5.902128   8.417002   9.695343
    34  H    7.798307   7.454623   5.874636   8.418997   9.699297
    35  H    7.588965   6.844082   5.189490   7.432806   8.783687
    36  H    5.197111   4.324989   2.700451   4.868710   6.218758
    37  H    2.151462   3.213297   3.539543   4.587316   5.069289
    38  H    4.810483   4.401682   5.831988   3.262986   2.027384
    39  H    6.260226   5.359815   6.275541   3.929599   3.422466
    40  H    9.581258  10.214691   9.432622  11.631581  12.459110
    41  H   11.280953  11.231752   9.781419  12.363539  13.579275
    42  H    8.898200   8.769606   7.291057   9.872900  11.102847
                   16         17         18         19         20
    16  C    0.000000
    17  C    1.393483   0.000000
    18  C    2.361350   1.403259   0.000000
    19  N    3.643915   2.447974   1.343842   0.000000
    20  S    4.715823   3.799169   2.419826   1.652104   0.000000
    21  N    4.073561   3.630796   2.323649   2.493859   1.634003
    22  C    2.732387   2.488134   1.468522   2.358509   2.441719
    23  C   10.996986  11.485682  10.618421  11.123053   9.969852
    24  S   11.409238  12.084551  11.383882  12.054506  11.066181
    25  C   13.041808  13.669963  12.908509  13.504884  12.419387
    26  C   13.245963  13.746297  12.868871  13.338640  12.129658
    27  Si  14.822230  15.231535  14.270171  14.625890  13.310010
    28  H   15.476427  15.913359  14.975028  15.349730  14.051756
    29  H   15.462431  15.902310  14.966413  15.344984  14.049932
    30  C   14.043481  14.298963  13.229975  13.443855  12.030215
    31  C   12.707348  12.971571  11.916620  12.163374  10.780979
    32  C   12.191292  12.601715  11.658954  12.061008  10.802721
    33  H   10.707504  10.759104   9.589718   9.669907   8.207274
    34  H   10.710130  10.758718   9.586621   9.662580   8.195938
    35  H    9.560126   9.311685   7.999111   7.793491   6.197866
    36  H    7.031154   6.893153   5.655878   5.705769   4.285963
    37  H    6.419313   7.361494   7.052240   8.083868   7.694537
    38  H    1.085397   2.159315   3.365880   4.578589   5.761594
    39  H    2.174577   1.073015   2.168043   2.761798   4.335769
    40  H   13.788010  14.482369  13.779439  14.427633  13.390237
    41  H   14.695202  14.866025  13.738828  13.856853  12.380754
    42  H   12.202281  12.365847  11.247650  11.403382   9.964433
                   21         22         23         24         25
    21  N    0.000000
    22  C    1.353607   0.000000
    23  C    8.631694   9.156873   0.000000
    24  S    9.605416   9.917904   1.768441   0.000000
    25  C   11.027115  11.440022   2.505119   1.680779   0.000000
    26  C   10.844839  11.410157   2.260640   2.471963   1.354389
    27  Si  12.144239  12.832532   3.870297   4.286871   2.924221
    28  H   12.876321  13.538144   4.617951   4.807926   3.371110
    29  H   12.868703  13.528135   4.607486   4.801171   3.369565
    30  C   11.006796  11.838705   3.662759   4.791084   3.968735
    31  C    9.711156  10.516819   2.569899   4.006586   3.650874
    32  C    9.570373  10.214100   1.352526   2.576256   2.370994
    33  H    7.313488   8.283352   3.676505   5.402334   5.843814
    34  H    7.308711   8.281604   3.674349   5.399326   5.839881
    35  H    5.685635   6.892510   5.761869   7.442981   8.145416
    36  H    3.343915   4.422680   5.875277   7.215121   8.376059
    37  H    6.060900   5.727397   5.503337   5.308367   6.989088
    38  H    5.158121   3.813973  11.753204  12.040346  13.696834
    39  H    4.490996   3.474534  12.545693  13.157331  14.740871
    40  H   11.964215  12.312517   3.552819   2.399488   1.076322
    41  H   11.469603  12.385909   4.661310   5.864245   5.026518
    42  H    8.991495   9.887071   3.008552   4.666002   4.587510
                   26         27         28         29         30
    26  C    0.000000
    27  Si   1.821278   0.000000
    28  H    2.593395   1.476416   0.000000
    29  H    2.589531   1.476293   2.595668   0.000000
    30  C    2.614448   1.867069   2.826943   2.819745   0.000000
    31  C    2.411634   2.649142   3.601008   3.589533   1.336259
    32  C    1.411465   2.633541   3.510740   3.500907   2.337055
    33  H    4.940533   5.535256   6.552558   6.169011   4.036029
    34  H    4.936905   5.532812   6.179076   6.540322   4.034259
    35  H    7.324356   7.941567   8.747169   8.736174   6.323956
    36  H    7.935888   9.035018   9.814059   9.799907   7.752777
    37  H    7.531069   9.301150   9.872247   9.846985   9.099875
    38  H   13.983159  15.606205  16.239162  16.223847  14.908842
    39  H   14.805999  16.276611  16.959558  16.949040  15.312645
    40  H    2.223874   3.370785   3.574561   3.577065   4.750560
    41  H    3.675199   2.619962   3.390893   3.383527   1.078915
    42  H    3.427810   3.679549   4.575408   4.561123   2.084795
                   31         32         33         34         35
    31  C    0.000000
    32  C    1.434698   0.000000
    33  H    2.954463   3.585693   0.000000
    34  H    2.953731   3.583153   1.825007   0.000000
    35  H    5.294381   5.920117   2.661801   2.662670   0.000000
    36  H    6.495567   6.572398   4.025019   4.029558   2.566077
    37  H    7.858635   6.851742   7.107643   7.121249   7.610784
    38  H   13.573345  12.985390  11.664917  11.668821  10.606478
    39  H   13.989414  13.649462  11.719536  11.718665  10.165478
    40  H    4.622588   3.417652   6.904571   6.900527   9.221635
    41  H    2.156740   3.371124   4.332113   4.331941   6.426563
    42  H    1.073539   2.237407   2.057021   2.061518   4.276566
                   36         37         38         39         40
    36  H    0.000000
    37  H    5.656839   0.000000
    38  H    8.063562   6.886945   0.000000
    39  H    7.814045   8.408515   2.534177   0.000000
    40  H    9.402213   7.575078  14.391533  15.555267   0.000000
    41  H    8.152977  10.015300  15.596567  15.856215   5.761712
    42  H    5.699941   7.821057  13.114532  13.358788   5.602614
                   41         42
    41  H    0.000000
    42  H    2.500851   0.000000
 Stoichiometry    C21H12N4S4Si
 Framework group  C1[X(C21H12N4S4Si)]
 Deg. of freedom   120
 Full point group                 C1      NOp   1
 Largest Abelian subgroup         C1      NOp   1
 Largest concise Abelian subgroup C1      NOp   1
                         Standard orientation:                         
 ---------------------------------------------------------------------
 Center     Atomic      Atomic             Coordinates (Angstroms)
 Number     Number       Type             X           Y           Z
 ---------------------------------------------------------------------
      1          6           0        2.188606    2.503307    0.020960
      2          6           0        0.784709    3.071202    0.027777
      3          6           0       -0.115496    2.077669    0.028245
      4          6           0        0.556178    0.807481    0.021794
      5          6           0        1.944780    1.031485    0.014824
      6          6           0        2.633345   -0.155765    0.005594
      7         16           0        1.583174   -1.493156    0.006694
      8          6           0        0.250052   -0.518129    0.017598
      9          6           0       -0.965826   -1.204826    0.008742
     10          6           0       -1.337133   -2.523490    0.027044
     11          7           0       -2.710973   -2.714597    0.031827
     12          6           0       -3.288716   -1.525131    0.004166
     13         16           0       -2.258784   -0.221708   -0.079166
     14          6           0       -4.670937   -1.144857    0.015818
     15          7           0       -5.581342   -2.144311    0.022694
     16          6           0       -6.897909   -1.844434    0.020223
     17          6           0       -7.470776   -0.574187    0.010604
     18          6           0       -6.558920    0.492386    0.001939
     19          7           0       -6.871705    1.799240   -0.012583
     20         16           0       -5.451965    2.644053   -0.021228
     21          7           0       -4.412829    1.383251    0.002080
     22          6           0       -5.114790    0.225893    0.007207
     23          6           0        4.014542   -0.483706   -0.002860
     24         16           0        4.506260   -2.182344   -0.017922
     25          6           0        6.143768   -1.803435   -0.021082
     26          6           0        6.274992   -0.455459   -0.010519
     27         14           0        7.710197    0.665784   -0.003009
     28          1           0        8.359010    0.391968   -1.300650
     29          1           0        8.351079    0.375967    1.294957
     30          6           0        6.567748    2.142463    0.010362
     31          6           0        5.291529    1.746420    0.012087
     32          6           0        5.098829    0.324772    0.000120
     33          1           0        2.697576    2.818278    0.934791
     34          1           0        2.695680    2.829012   -0.890183
     35          1           0        0.564630    4.131044    0.033478
     36          1           0       -1.184206    2.253193    0.032998
     37          1           0       -0.664942   -3.379755    0.042353
     38          1           0       -7.521417   -2.732859    0.025201
     39          1           0       -8.530920   -0.408486    0.009371
     40          1           0        6.869385   -2.598345   -0.029219
     41          1           0        6.917843    3.162957    0.019504
     42          1           0        4.511074    2.483472    0.023492
 ---------------------------------------------------------------------
 Rotational constants (GHZ):      0.3678514      0.0487553      0.0430891
 Standard basis: 6-31++G(d,p) (6D, 7F)
 There are   662 symmetry adapted basis functions of A   symmetry.
 Integral buffers will be    131072 words long.
 Raffenetti 2 integral format.
 Two-electron integral symmetry is turned on.
   662 basis functions,  1176 primitive gaussians,   662 cartesian basis functions
   122 alpha electrons      122 beta electrons
       nuclear repulsion energy      3431.1144028323 Hartrees.
 NAtoms=   42 NActive=   42 NUniq=   42 SFac= 1.00D+00 NAtFMM=   60 NAOKFM=F Big=F
 One-electron integrals computed using PRISM.
 NBasis=   662 RedAO= T  NBF=   662
 NBsUse=   652 1.00D-06 NBFU=   652
 Harris functional with IExCor=  402 diagonalized for initial guess.
 ExpMin= 3.31D-02 ExpMax= 2.19D+04 ExpMxC= 3.30D+03 IAcc=3 IRadAn=         5 AccDes= 0.00D+00
 HarFok:  IExCor=  402 AccDes= 0.00D+00 IRadAn=         5 IDoV= 1
 ScaDFX=  1.000000  1.000000  1.000000  1.000000
 FoFCou: FMM=F IPFlag=           0 FMFlag=      100000 FMFlg1=           0
         NFxFlg=           0 DoJE=T BraDBF=F KetDBF=T FulRan=T
         Omega=  0.000000  0.000000  1.000000  0.000000  0.000000 ICntrl=     500 IOpCl=  0
         NMat0=    1 NMatS0=    1 NMatT0=    0 NMatD0=    1 NMtDS0=    0 NMtDT0=    0
         I1Cent=           4 NGrid=           0.
 Petite list used in FoFCou.
 Initial guess orbital symmetries:
       Occupied  (A) (A) (A) (A) (A) (A) (A) (A) (A) (A) (A) (A)
                 (A) (A) (A) (A) (A) (A) (A) (A) (A) (A) (A) (A)
                 (A) (A) (A) (A) (A) (A) (A) (A) (A) (A) (A) (A)
                 (A) (A) (A) (A) (A) (A) (A) (A) (A) (A) (A) (A)
                 (A) (A) (A) (A) (A) (A) (A) (A) (A) (A) (A) (A)
                 (A) (A) (A) (A) (A) (A) (A) (A) (A) (A) (A) (A)
                 (A) (A) (A) (A) (A) (A) (A) (A) (A) (A) (A) (A)
                 (A) (A) (A) (A) (A) (A) (A) (A) (A) (A) (A) (A)
                 (A) (A) (A) (A) (A) (A) (A) (A) (A) (A) (A) (A)
                 (A) (A) (A) (A) (A) (A) (A) (A) (A) (A) (A) (A)
                 (A) (A)
       Virtual   (A) (A) (A) (A) (A) (A) (A) (A) (A) (A) (A) (A)
                 (A) (A) (A) (A) (A) (A) (A) (A) (A) (A) (A) (A)
                 (A) (A) (A) (A) (A) (A) (A) (A) (A) (A) (A) (A)
                 (A) (A) (A) (A) (A) (A) (A) (A) (A) (A) (A) (A)
                 (A) (A) (A) (A) (A) (A) (A) (A) (A) (A) (A) (A)
                 (A) (A) (A) (A) (A) (A) (A) (A) (A) (A) (A) (A)
                 (A) (A) (A) (A) (A) (A) (A) (A) (A) (A) (A) (A)
                 (A) (A) (A) (A) (A) (A) (A) (A) (A) (A) (A) (A)
                 (A) (A) (A) (A) (A) (A) (A) (A) (A) (A) (A) (A)
                 (A) (A) (A) (A) (A) (A) (A) (A) (A) (A) (A) (A)
                 (A) (A) (A) (A) (A) (A) (A) (A) (A) (A) (A) (A)
                 (A) (A) (A) (A) (A) (A) (A) (A) (A) (A) (A) (A)
                 (A) (A) (A) (A) (A) (A) (A) (A) (A) (A) (A) (A)
                 (A) (A) (A) (A) (A) (A) (A) (A) (A) (A) (A) (A)
                 (A) (A) (A) (A) (A) (A) (A) (A) (A) (A) (A) (A)
                 (A) (A) (A) (A) (A) (A) (A) (A) (A) (A) (A) (A)
                 (A) (A) (A) (A) (A) (A) (A) (A) (A) (A) (A) (A)
                 (A) (A) (A) (A) (A) (A) (A) (A) (A) (A) (A) (A)
                 (A) (A) (A) (A) (A) (A) (A) (A) (A) (A) (A) (A)
                 (A) (A) (A) (A) (A) (A) (A) (A) (A) (A) (A) (A)
                 (A) (A) (A) (A) (A) (A) (A) (A) (A) (A) (A) (A)
                 (A) (A) (A) (A) (A) (A) (A) (A) (A) (A) (A) (A)
                 (A) (A) (A) (A) (A) (A) (A) (A) (A) (A) (A) (A)
                 (A) (A) (A) (A) (A) (A) (A) (A) (A) (A) (A) (A)
                 (A) (A) (A) (A) (A) (A) (A) (A) (A) (A) (A) (A)
                 (A) (A) (A) (A) (A) (A) (A) (A) (A) (A) (A) (A)
                 (A) (A) (A) (A) (A) (A) (A) (A) (A) (A) (A) (A)
                 (A) (A) (A) (A) (A) (A) (A) (A) (A) (A) (A) (A)
                 (A) (A) (A) (A) (A) (A) (A) (A) (A) (A) (A) (A)
                 (A) (A) (A) (A) (A) (A) (A) (A) (A) (A) (A) (A)
                 (A) (A) (A) (A) (A) (A) (A) (A) (A) (A) (A) (A)
                 (A) (A) (A) (A) (A) (A) (A) (A) (A) (A) (A) (A)
                 (A) (A) (A) (A) (A) (A) (A) (A) (A) (A) (A) (A)
                 (A) (A) (A) (A) (A) (A) (A) (A) (A) (A) (A) (A)
                 (A) (A) (A) (A) (A) (A) (A) (A) (A) (A) (A) (A)
                 (A) (A) (A) (A) (A) (A) (A) (A) (A) (A) (A) (A)
                 (A) (A) (A) (A) (A) (A) (A) (A) (A) (A) (A) (A)
                 (A) (A) (A) (A) (A) (A) (A) (A) (A) (A) (A) (A)
                 (A) (A) (A) (A) (A) (A) (A) (A) (A) (A) (A) (A)
                 (A) (A) (A) (A) (A) (A) (A) (A) (A) (A) (A) (A)
                 (A) (A) (A) (A) (A) (A) (A) (A) (A) (A) (A) (A)
                 (A) (A) (A) (A) (A) (A) (A) (A) (A) (A) (A) (A)
                 (A) (A) (A) (A) (A) (A) (A) (A) (A) (A) (A) (A)
                 (A) (A) (A) (A) (A) (A) (A) (A) (A) (A) (A) (A)
                 (A) (A)
 The electronic state of the initial guess is 1-A.
 Requested convergence on RMS density matrix=1.00D-08 within 128 cycles.
 Requested convergence on MAX density matrix=1.00D-06.
 Requested convergence on             energy=1.00D-06.
 No special actions if energy rises.
 EnCoef did     4 forward-backward iterations
 EnCoef did   100 forward-backward iterations
 Restarting incremental Fock formation.
 SCF Done:  E(RB3LYP) =  -2908.61093127     A.U. after   25 cycles
             Convg  =    0.6400D-08             -V/T =  2.0049

 **********************************************************************

            Population analysis using the SCF density.

 **********************************************************************

 Orbital symmetries:
       Occupied  (A) (A) (A) (A) (A) (A) (A) (A) (A) (A) (A) (A)
                 (A) (A) (A) (A) (A) (A) (A) (A) (A) (A) (A) (A)
                 (A) (A) (A) (A) (A) (A) (A) (A) (A) (A) (A) (A)
                 (A) (A) (A) (A) (A) (A) (A) (A) (A) (A) (A) (A)
                 (A) (A) (A) (A) (A) (A) (A) (A) (A) (A) (A) (A)
                 (A) (A) (A) (A) (A) (A) (A) (A) (A) (A) (A) (A)
                 (A) (A) (A) (A) (A) (A) (A) (A) (A) (A) (A) (A)
                 (A) (A) (A) (A) (A) (A) (A) (A) (A) (A) (A) (A)
                 (A) (A) (A) (A) (A) (A) (A) (A) (A) (A) (A) (A)
                 (A) (A) (A) (A) (A) (A) (A) (A) (A) (A) (A) (A)
                 (A) (A)
       Virtual   (A) (A) (A) (A) (A) (A) (A) (A) (A) (A) (A) (A)
                 (A) (A) (A) (A) (A) (A) (A) (A) (A) (A) (A) (A)
                 (A) (A) (A) (A) (A) (A) (A) (A) (A) (A) (A) (A)
                 (A) (A) (A) (A) (A) (A) (A) (A) (A) (A) (A) (A)
                 (A) (A) (A) (A) (A) (A) (A) (A) (A) (A) (A) (A)
                 (A) (A) (A) (A) (A) (A) (A) (A) (A) (A) (A) (A)
                 (A) (A) (A) (A) (A) (A) (A) (A) (A) (A) (A) (A)
                 (A) (A) (A) (A) (A) (A) (A) (A) (A) (A) (A) (A)
                 (A) (A) (A) (A) (A) (A) (A) (A) (A) (A) (A) (A)
                 (A) (A) (A) (A) (A) (A) (A) (A) (A) (A) (A) (A)
                 (A) (A) (A) (A) (A) (A) (A) (A) (A) (A) (A) (A)
                 (A) (A) (A) (A) (A) (A) (A) (A) (A) (A) (A) (A)
                 (A) (A) (A) (A) (A) (A) (A) (A) (A) (A) (A) (A)
                 (A) (A) (A) (A) (A) (A) (A) (A) (A) (A) (A) (A)
                 (A) (A) (A) (A) (A) (A) (A) (A) (A) (A) (A) (A)
                 (A) (A) (A) (A) (A) (A) (A) (A) (A) (A) (A) (A)
                 (A) (A) (A) (A) (A) (A) (A) (A) (A) (A) (A) (A)
                 (A) (A) (A) (A) (A) (A) (A) (A) (A) (A) (A) (A)
                 (A) (A) (A) (A) (A) (A) (A) (A) (A) (A) (A) (A)
                 (A) (A) (A) (A) (A) (A) (A) (A) (A) (A) (A) (A)
                 (A) (A) (A) (A) (A) (A) (A) (A) (A) (A) (A) (A)
                 (A) (A) (A) (A) (A) (A) (A) (A) (A) (A) (A) (A)
                 (A) (A) (A) (A) (A) (A) (A) (A) (A) (A) (A) (A)
                 (A) (A) (A) (A) (A) (A) (A) (A) (A) (A) (A) (A)
                 (A) (A) (A) (A) (A) (A) (A) (A) (A) (A) (A) (A)
                 (A) (A) (A) (A) (A) (A) (A) (A) (A) (A) (A) (A)
                 (A) (A) (A) (A) (A) (A) (A) (A) (A) (A) (A) (A)
                 (A) (A) (A) (A) (A) (A) (A) (A) (A) (A) (A) (A)
                 (A) (A) (A) (A) (A) (A) (A) (A) (A) (A) (A) (A)
                 (A) (A) (A) (A) (A) (A) (A) (A) (A) (A) (A) (A)
                 (A) (A) (A) (A) (A) (A) (A) (A) (A) (A) (A) (A)
                 (A) (A) (A) (A) (A) (A) (A) (A) (A) (A) (A) (A)
                 (A) (A) (A) (A) (A) (A) (A) (A) (A) (A) (A) (A)
                 (A) (A) (A) (A) (A) (A) (A) (A) (A) (A) (A) (A)
                 (A) (A) (A) (A) (A) (A) (A) (A) (A) (A) (A) (A)
                 (A) (A) (A) (A) (A) (A) (A) (A) (A) (A) (A) (A)
                 (A) (A) (A) (A) (A) (A) (A) (A) (A) (A) (A) (A)
                 (A) (A) (A) (A) (A) (A) (A) (A) (A) (A) (A) (A)
                 (A) (A) (A) (A) (A) (A) (A) (A) (A) (A) (A) (A)
                 (A) (A) (A) (A) (A) (A) (A) (A) (A) (A) (A) (A)
                 (A) (A) (A) (A) (A) (A) (A) (A) (A) (A) (A) (A)
                 (A) (A) (A) (A) (A) (A) (A) (A) (A) (A) (A) (A)
                 (A) (A) (A) (A) (A) (A) (A) (A) (A) (A) (A) (A)
                 (A) (A) (A) (A) (A) (A) (A) (A) (A) (A) (A) (A)
                 (A) (A)
 The electronic state is 1-A.
 Alpha  occ. eigenvalues --  -89.00155 -88.91914 -88.91697 -88.91592 -66.12942
 Alpha  occ. eigenvalues --  -14.39745 -14.38975 -14.35384 -14.35190 -10.27130
 Alpha  occ. eigenvalues --  -10.26913 -10.26563 -10.25425 -10.24255 -10.23768
 Alpha  occ. eigenvalues --  -10.23517 -10.23234 -10.23084 -10.22946 -10.22346
 Alpha  occ. eigenvalues --  -10.21884 -10.21860 -10.21470 -10.21105 -10.21077
 Alpha  occ. eigenvalues --  -10.20908 -10.20762 -10.20534 -10.18867 -10.17554
 Alpha  occ. eigenvalues --   -8.05410  -7.98221  -7.98135  -7.97787  -6.01973
 Alpha  occ. eigenvalues --   -6.01383  -6.01180  -5.94647  -5.94497  -5.94232
 Alpha  occ. eigenvalues --   -5.94219  -5.94076  -5.93891  -5.93861  -5.93812
 Alpha  occ. eigenvalues --   -5.93480  -5.28036  -3.63936  -3.63853  -3.63809
 Alpha  occ. eigenvalues --   -1.03818  -0.99026  -0.95506  -0.94015  -0.91037
 Alpha  occ. eigenvalues --   -0.90845  -0.86799  -0.84611  -0.82443  -0.81948
 Alpha  occ. eigenvalues --   -0.81248  -0.78565  -0.75431  -0.73913  -0.73790
 Alpha  occ. eigenvalues --   -0.72135  -0.70118  -0.68585  -0.65075  -0.63787
 Alpha  occ. eigenvalues --   -0.63122  -0.62065  -0.59654  -0.59099  -0.58032
 Alpha  occ. eigenvalues --   -0.56489  -0.55409  -0.54244  -0.53199  -0.52643
 Alpha  occ. eigenvalues --   -0.51862  -0.50521  -0.48414  -0.47959  -0.47954
 Alpha  occ. eigenvalues --   -0.47530  -0.45711  -0.45199  -0.44686  -0.43926
 Alpha  occ. eigenvalues --   -0.43509  -0.43309  -0.42616  -0.42430  -0.41132
 Alpha  occ. eigenvalues --   -0.40941  -0.40615  -0.40319  -0.39516  -0.39095
 Alpha  occ. eigenvalues --   -0.38420  -0.37520  -0.37101  -0.36510  -0.35501
 Alpha  occ. eigenvalues --   -0.34735  -0.34270  -0.32785  -0.32735  -0.32314
 Alpha  occ. eigenvalues --   -0.31448  -0.31237  -0.30054  -0.29890  -0.28754
 Alpha  occ. eigenvalues --   -0.28635  -0.27617  -0.27451  -0.24917  -0.24017
 Alpha  occ. eigenvalues --   -0.23926  -0.19667
 Alpha virt. eigenvalues --   -0.12293  -0.07798  -0.05205  -0.03628  -0.03111
 Alpha virt. eigenvalues --   -0.02651  -0.02095  -0.01909  -0.01462  -0.01094
 Alpha virt. eigenvalues --   -0.00354  -0.00008   0.00685   0.00897   0.00983
 Alpha virt. eigenvalues --    0.01113   0.01514   0.01549   0.01901   0.02332
 Alpha virt. eigenvalues --    0.02427   0.02627   0.03153   0.03842   0.03969
 Alpha virt. eigenvalues --    0.04091   0.04720   0.04817   0.04975   0.05148
 Alpha virt. eigenvalues --    0.05344   0.05673   0.06180   0.06380   0.06629
 Alpha virt. eigenvalues --    0.06737   0.06901   0.07326   0.07934   0.08099
 Alpha virt. eigenvalues --    0.08355   0.08423   0.09254   0.09347   0.09528
 Alpha virt. eigenvalues --    0.09929   0.10055   0.10277   0.10599   0.10663
 Alpha virt. eigenvalues --    0.10761   0.10972   0.11108   0.11320   0.11447
 Alpha virt. eigenvalues --    0.11614   0.11673   0.12057   0.12131   0.12350
 Alpha virt. eigenvalues --    0.12581   0.12641   0.12917   0.13481   0.13697
 Alpha virt. eigenvalues --    0.13934   0.14164   0.14171   0.14362   0.14719
 Alpha virt. eigenvalues --    0.14803   0.14952   0.15151   0.15418   0.15898
 Alpha virt. eigenvalues --    0.15981   0.16037   0.16234   0.16422   0.16535
 Alpha virt. eigenvalues --    0.16939   0.17139   0.17247   0.17445   0.17531
 Alpha virt. eigenvalues --    0.18159   0.18251   0.18409   0.18616   0.18765
 Alpha virt. eigenvalues --    0.19069   0.19296   0.19501   0.20198   0.20792
 Alpha virt. eigenvalues --    0.20863   0.20994   0.21336   0.21511   0.21688
 Alpha virt. eigenvalues --    0.21906   0.22096   0.22556   0.22733   0.22857
 Alpha virt. eigenvalues --    0.23191   0.23417   0.23539   0.23637   0.23817
 Alpha virt. eigenvalues --    0.23996   0.24481   0.24507   0.24759   0.24792
 Alpha virt. eigenvalues --    0.25546   0.25665   0.25850   0.26423   0.26613
 Alpha virt. eigenvalues --    0.26924   0.27034   0.27120   0.27281   0.27511
 Alpha virt. eigenvalues --    0.28157   0.28276   0.28467   0.28615   0.28848
 Alpha virt. eigenvalues --    0.29041   0.29638   0.29886   0.30223   0.30540
 Alpha virt. eigenvalues --    0.30926   0.31233   0.31381   0.31503   0.31779
 Alpha virt. eigenvalues --    0.32213   0.32521   0.32873   0.33158   0.33266
 Alpha virt. eigenvalues --    0.33486   0.34226   0.34346   0.34584   0.35196
 Alpha virt. eigenvalues --    0.35686   0.35757   0.36214   0.36405   0.36562
 Alpha virt. eigenvalues --    0.37037   0.37328   0.37615   0.38483   0.38566
 Alpha virt. eigenvalues --    0.39102   0.39905   0.40140   0.40521   0.41548
 Alpha virt. eigenvalues --    0.42126   0.42209   0.42737   0.43463   0.44100
 Alpha virt. eigenvalues --    0.44497   0.44894   0.46003   0.46874   0.47677
 Alpha virt. eigenvalues --    0.48342   0.48618   0.49090   0.49604   0.49978
 Alpha virt. eigenvalues --    0.51135   0.51383   0.51627   0.52596   0.54417
 Alpha virt. eigenvalues --    0.54868   0.55155   0.55833   0.57203   0.58328
 Alpha virt. eigenvalues --    0.58647   0.59808   0.59959   0.60963   0.61916
 Alpha virt. eigenvalues --    0.62182   0.63918   0.64498   0.64797   0.65397
 Alpha virt. eigenvalues --    0.65720   0.66068   0.66186   0.66480   0.66895
 Alpha virt. eigenvalues --    0.67038   0.67499   0.68245   0.68575   0.68600
 Alpha virt. eigenvalues --    0.68971   0.69864   0.70143   0.70547   0.71455
 Alpha virt. eigenvalues --    0.71916   0.72157   0.72346   0.72838   0.72943
 Alpha virt. eigenvalues --    0.72988   0.74146   0.75036   0.75637   0.75812
 Alpha virt. eigenvalues --    0.76632   0.77030   0.77758   0.78008   0.78592
 Alpha virt. eigenvalues --    0.78602   0.79267   0.79927   0.79988   0.80879
 Alpha virt. eigenvalues --    0.81206   0.81334   0.81661   0.82541   0.83469
 Alpha virt. eigenvalues --    0.84000   0.84083   0.84414   0.85523   0.86267
 Alpha virt. eigenvalues --    0.88715   0.88830   0.89717   0.90153   0.90264
 Alpha virt. eigenvalues --    0.90641   0.91455   0.92619   0.93279   0.93881
 Alpha virt. eigenvalues --    0.94353   0.94992   0.95420   0.96187   0.96372
 Alpha virt. eigenvalues --    0.97320   0.98176   0.98832   0.98900   0.99253
 Alpha virt. eigenvalues --    1.00257   1.00581   1.01028   1.01861   1.02158
 Alpha virt. eigenvalues --    1.02975   1.03729   1.03825   1.04135   1.05101
 Alpha virt. eigenvalues --    1.05800   1.06523   1.07949   1.08346   1.08676
 Alpha virt. eigenvalues --    1.09366   1.09789   1.09932   1.11064   1.12495
 Alpha virt. eigenvalues --    1.12556   1.13088   1.13534   1.14581   1.15968
 Alpha virt. eigenvalues --    1.16328   1.17230   1.17535   1.17714   1.18118
 Alpha virt. eigenvalues --    1.18988   1.19379   1.20019   1.20429   1.21160
 Alpha virt. eigenvalues --    1.21471   1.21757   1.22587   1.23268   1.23926
 Alpha virt. eigenvalues --    1.24363   1.24615   1.25044   1.25691   1.26319
 Alpha virt. eigenvalues --    1.27507   1.28804   1.29285   1.29320   1.30485
 Alpha virt. eigenvalues --    1.31047   1.31090   1.31533   1.32690   1.32824
 Alpha virt. eigenvalues --    1.33716   1.34111   1.35474   1.36653   1.36971
 Alpha virt. eigenvalues --    1.37704   1.38016   1.38402   1.39033   1.39840
 Alpha virt. eigenvalues --    1.40303   1.41651   1.42326   1.43256   1.44578
 Alpha virt. eigenvalues --    1.45017   1.46112   1.46597   1.48388   1.48944
 Alpha virt. eigenvalues --    1.50953   1.51921   1.52352   1.52897   1.55259
 Alpha virt. eigenvalues --    1.56583   1.57104   1.59642   1.62082   1.64916
 Alpha virt. eigenvalues --    1.65089   1.67334   1.67986   1.69834   1.70995
 Alpha virt. eigenvalues --    1.72331   1.73625   1.74921   1.75602   1.75746
 Alpha virt. eigenvalues --    1.76209   1.76637   1.78501   1.79827   1.81622
 Alpha virt. eigenvalues --    1.82420   1.82938   1.84121   1.84661   1.86434
 Alpha virt. eigenvalues --    1.87704   1.88251   1.89656   1.90012   1.90540
 Alpha virt. eigenvalues --    1.91676   1.91829   1.92788   1.94562   1.95765
 Alpha virt. eigenvalues --    1.96083   1.96555   1.97520   1.98076   1.99477
 Alpha virt. eigenvalues --    2.01031   2.01917   2.02996   2.03042   2.04708
 Alpha virt. eigenvalues --    2.06247   2.06294   2.07567   2.09004   2.09937
 Alpha virt. eigenvalues --    2.12063   2.12204   2.14209   2.14357   2.15328
 Alpha virt. eigenvalues --    2.16162   2.16220   2.16948   2.18466   2.18789
 Alpha virt. eigenvalues --    2.18946   2.21920   2.22029   2.22930   2.23909
 Alpha virt. eigenvalues --    2.24487   2.25781   2.28453   2.28605   2.29178
 Alpha virt. eigenvalues --    2.29830   2.31536   2.32264   2.33183   2.33670
 Alpha virt. eigenvalues --    2.34259   2.34688   2.36061   2.37340   2.38676
 Alpha virt. eigenvalues --    2.39263   2.39835   2.41497   2.42289   2.43659
 Alpha virt. eigenvalues --    2.44090   2.44109   2.45619   2.46070   2.46935
 Alpha virt. eigenvalues --    2.47032   2.47442   2.47923   2.49626   2.50889
 Alpha virt. eigenvalues --    2.52415   2.53601   2.54469   2.55321   2.55693
 Alpha virt. eigenvalues --    2.58339   2.58891   2.59309   2.60277   2.62331
 Alpha virt. eigenvalues --    2.62958   2.64271   2.64910   2.65719   2.66515
 Alpha virt. eigenvalues --    2.67165   2.68837   2.68961   2.70144   2.71139
 Alpha virt. eigenvalues --    2.71285   2.71999   2.72857   2.74534   2.76108
 Alpha virt. eigenvalues --    2.76840   2.79355   2.79686   2.81244   2.82356
 Alpha virt. eigenvalues --    2.83811   2.84923   2.88037   2.90476   2.91943
 Alpha virt. eigenvalues --    2.93712   2.97985   2.99855   3.03668   3.06492
 Alpha virt. eigenvalues --    3.07067   3.08211   3.09215   3.10494   3.13210
 Alpha virt. eigenvalues --    3.15712   3.18121   3.26398   3.27010   3.32606
 Alpha virt. eigenvalues --    3.34124   3.35388   3.35841   3.39264   3.43450
 Alpha virt. eigenvalues --    3.45077   3.52416   3.57235   3.69747   3.71224
 Alpha virt. eigenvalues --    3.72420   3.96012   3.98229   4.03957   4.04947
 Alpha virt. eigenvalues --    4.13504   4.20036   4.29087   4.29903   4.33271
 Alpha virt. eigenvalues --    4.33946   4.35634   4.36398   4.37610   4.38595
 Alpha virt. eigenvalues --    4.39000   4.40422   4.42615   4.44209   4.48337
 Alpha virt. eigenvalues --    4.51304   4.54865   4.56537   4.57734   4.65521
 Alpha virt. eigenvalues --    4.68234   4.74683   4.80735   4.83000   4.87289
          Condensed to atoms (all electrons):
              1          2          3          4          5          6
     1  C    9.640891  -0.750567  -1.327649  -1.033474  -1.466205   1.067173
     2  C   -0.750567  11.530936  -3.286310   0.156227   0.483284  -0.681139
     3  C   -1.327649  -3.286310  13.197103  -3.053137  -2.281020   0.070207
     4  C   -1.033474   0.156227  -3.053137  11.937610   1.824222  -1.032438
     5  C   -1.466205   0.483284  -2.281020   1.824222  11.050043  -1.855116
     6  C    1.067173  -0.681139   0.070207  -1.032438  -1.855116  12.235260
     7  S    0.137457  -0.120338   0.646815  -0.761758  -1.267262   0.801278
     8  C   -0.026426  -2.051827   3.495792  -2.118456  -2.597363  -1.921229
     9  C   -0.042351   0.435070  -0.185243  -0.228978  -0.563486   1.076975
    10  C   -0.028367   0.391374  -0.208092  -2.015615   1.213790  -1.423500
    11  N    0.000359   0.007815   0.002820   0.042441  -0.001104   0.026983
    12  C    0.053466  -0.036143  -0.509171   0.120097   0.358371  -0.059903
    13  S   -0.037761  -0.405920  -0.123843   1.190220   0.247630  -0.583350
    14  C   -0.020943  -0.072882   0.146314  -0.358138  -0.083839   0.010797
    15  N    0.000009   0.001125   0.001451   0.008386   0.000228   0.000477
    16  C    0.000168  -0.000742   0.015056  -0.047510  -0.008363   0.002931
    17  C   -0.000206  -0.001206  -0.034053   0.081250   0.009613  -0.002946
    18  C    0.020436   0.011318   0.024557  -0.103198  -0.016545   0.002352
    19  N   -0.000293   0.001207   0.002787  -0.000616   0.000592  -0.000064
    20  S    0.001018   0.003959   0.018758  -0.002668  -0.003599  -0.000634
    21  N   -0.008359  -0.003022   0.009449  -0.003306  -0.002140   0.000305
    22  C    0.036655   0.128304  -0.285279   0.452324   0.182012  -0.104319
    23  C    0.079818  -0.008348   0.181568   0.019228  -0.424523  -0.640845
    24  S   -0.150056   0.005644   0.029997   0.133639   0.038035  -0.132744
    25  C    0.121954  -0.046327   0.020267  -0.152158  -0.089198   0.522217
    26  C   -0.399144   0.015101  -0.020784   0.229057   0.210354  -0.372273
    27  Si  -0.020416  -0.021146   0.015849   0.016091   0.075490  -0.081142
    28  H    0.001797   0.000600  -0.000337  -0.000730  -0.004073   0.007133
    29  H    0.001441   0.000698  -0.000519  -0.000466  -0.004086   0.005006
    30  C   -0.174125   0.175181  -0.193691   0.176992  -0.191376  -0.480864
    31  C    0.333734  -0.466779   0.088358  -0.250276  -1.009587   0.943548
    32  C   -0.674375   0.365718  -0.145081   0.512885   1.748811  -1.252457
    33  H    0.383783   0.097991  -0.051436   0.040913  -0.169093   0.000683
    34  H    0.356423   0.033584   0.000643   0.045684  -0.127671  -0.004268
    35  H   -0.088989   0.444271  -0.156089   0.069438   0.055955  -0.004951
    36  H    0.209136  -0.093708   0.284920  -0.103700  -0.051473   0.008892
    37  H    0.001430   0.004323  -0.012920  -0.048865   0.032636  -0.054187
    38  H   -0.000001  -0.000026   0.000122  -0.000912  -0.000110   0.000053
    39  H   -0.000006   0.000001  -0.000413   0.001112   0.000120  -0.000042
    40  H    0.003677   0.000214   0.000084  -0.000891  -0.001178   0.005096
    41  H   -0.021741   0.003088  -0.003345   0.001689   0.031463  -0.028050
    42  H    0.019305  -0.000248  -0.027084  -0.053033  -0.095586   0.048929
              7          8          9         10         11         12
     1  C    0.137457  -0.026426  -0.042351  -0.028367   0.000359   0.053466
     2  C   -0.120338  -2.051827   0.435070   0.391374   0.007815  -0.036143
     3  C    0.646815   3.495792  -0.185243  -0.208092   0.002820  -0.509171
     4  C   -0.761758  -2.118456  -0.228978  -2.015615   0.042441   0.120097
     5  C   -1.267262  -2.597363  -0.563486   1.213790  -0.001104   0.358371
     6  C    0.801278  -1.921229   1.076975  -1.423500   0.026983  -0.059903
     7  S   18.809316   0.811006   1.081039  -1.311678   0.086612  -0.550181
     8  C    0.811006  13.802731  -0.485687  -1.123428   0.041396  -0.232673
     9  C    1.081039  -0.485687  17.444913  -8.428995   1.112628  -1.741883
    10  C   -1.311678  -1.123428  -8.428995  20.636344  -1.215548  -1.289371
    11  N    0.086612   0.041396   1.112628  -1.215548   6.932327   0.422583
    12  C   -0.550181  -0.232673  -1.741883  -1.289371   0.422583  12.883811
    13  S   -0.791101   0.085160  -1.353181  -1.350593   0.023903  -0.020792
    14  C    0.001107   0.356625  -0.639198   0.495744  -0.242003   1.830636
    15  N    0.002431   0.000263   0.061428  -0.099957   0.056313  -0.087111
    16  C    0.014846   0.054067   0.085873  -0.071751  -0.052746  -0.373028
    17  C   -0.011022  -0.071782  -0.022897  -0.032292   0.020781   0.036713
    18  C   -0.000613   0.007618  -0.456245  -0.084691  -0.020855  -3.465646
    19  N   -0.000016   0.000227   0.004206   0.002041   0.000571   0.100809
    20  S   -0.002149   0.003060  -0.027955  -0.013111   0.004940   0.046008
    21  N   -0.003377   0.017720   0.059263  -0.033576   0.006883  -0.066034
    22  C   -0.157548  -1.006539  -0.509396   0.793922  -0.040982  -0.605207
    23  C    0.365612   0.737517  -0.090602   0.132403   0.001232  -0.022567
    24  S   -0.601468  -0.319853  -0.013705  -0.081290   0.003584   0.001341
    25  C    0.370335  -0.084493   0.010592   0.001750  -0.000125   0.000283
    26  C   -0.387986   0.008973  -0.036432  -0.010101   0.000156  -0.001593
    27  Si  -0.046356  -0.010490  -0.000771  -0.000487   0.000000  -0.000268
    28  H    0.001977   0.001117  -0.000026  -0.000009  -0.000000   0.000005
    29  H    0.001741   0.000960  -0.000028   0.000032   0.000000   0.000002
    30  C   -0.027672  -0.191775   0.025086   0.002943   0.000030   0.001111
    31  C    0.089430   0.331931   0.025785   0.032070   0.000075   0.000835
    32  C   -0.610827  -1.034349  -0.002498  -0.107097   0.000941  -0.005789
    33  H   -0.013751  -0.044036   0.021846   0.007850   0.000124  -0.001099
    34  H   -0.007578  -0.035059   0.013372   0.003220   0.000016   0.001006
    35  H    0.000773  -0.023556  -0.014753  -0.005314   0.000095   0.001513
    36  H    0.006501  -0.028442   0.016470   0.064376  -0.004858   0.024344
    37  H   -0.032571  -0.048027  -0.505089   0.937915  -0.123274  -0.040569
    38  H    0.000268   0.000498  -0.003830   0.002152  -0.003605  -0.057445
    39  H   -0.000160  -0.001409   0.001478   0.000762   0.000647   0.008147
    40  H    0.002758  -0.003934   0.000494   0.000668  -0.000002   0.000075
    41  H   -0.000166  -0.003185  -0.000084  -0.000115   0.000000   0.000020
    42  H    0.015508   0.046372  -0.013557  -0.003353  -0.000042   0.000037
             13         14         15         16         17         18
     1  C   -0.037761  -0.020943   0.000009   0.000168  -0.000206   0.020436
     2  C   -0.405920  -0.072882   0.001125  -0.000742  -0.001206   0.011318
     3  C   -0.123843   0.146314   0.001451   0.015056  -0.034053   0.024557
     4  C    1.190220  -0.358138   0.008386  -0.047510   0.081250  -0.103198
     5  C    0.247630  -0.083839   0.000228  -0.008363   0.009613  -0.016545
     6  C   -0.583350   0.010797   0.000477   0.002931  -0.002946   0.002352
     7  S   -0.791101   0.001107   0.002431   0.014846  -0.011022  -0.000613
     8  C    0.085160   0.356625   0.000263   0.054067  -0.071782   0.007618
     9  C   -1.353181  -0.639198   0.061428   0.085873  -0.022897  -0.456245
    10  C   -1.350593   0.495744  -0.099957  -0.071751  -0.032292  -0.084691
    11  N    0.023903  -0.242003   0.056313  -0.052746   0.020781  -0.020855
    12  C   -0.020792   1.830636  -0.087111  -0.373028   0.036713  -3.465646
    13  S   22.341286   0.171293   0.102689  -0.250004   0.299120  -2.082395
    14  C    0.171293  13.607054   0.334722  -1.730657   2.756774  -6.309963
    15  N    0.102689   0.334722   7.000147  -0.599704   0.536712  -0.288329
    16  C   -0.250004  -1.730657  -0.599704   9.498548  -5.060688   4.070506
    17  C    0.299120   2.756774   0.536712  -5.060688  19.252672  -6.109063
    18  C   -2.082395  -6.309963  -0.288329   4.070506  -6.109063  30.911623
    19  N    0.021264   0.179678  -0.001044   0.028480  -0.493520  -0.379977
    20  S    0.187719   0.102460   0.008621  -0.071247  -0.167253  -0.959539
    21  N   -0.023570  -0.537304   0.022960   0.137055   0.009821   1.272547
    22  C   -2.025810  -3.305173   0.111827  -0.241274  -4.475335  -9.383901
    23  C    0.025419  -0.000199  -0.000018  -0.000081   0.000088  -0.000183
    24  S   -0.057236  -0.000023   0.000056   0.000047  -0.000014  -0.000028
    25  C   -0.005330  -0.000033   0.000000   0.000001  -0.000001  -0.000007
    26  C    0.000293   0.000034  -0.000000  -0.000000   0.000000   0.000012
    27  Si  -0.000751   0.000011  -0.000000   0.000000  -0.000000  -0.000001
    28  H    0.000035  -0.000000  -0.000000  -0.000000   0.000000   0.000000
    29  H    0.000011  -0.000000   0.000000  -0.000000   0.000000   0.000000
    30  C   -0.001916  -0.000046   0.000000  -0.000000  -0.000000   0.000006
    31  C    0.013761  -0.000092  -0.000002  -0.000002  -0.000001   0.000010
    32  C   -0.059340   0.000064   0.000001   0.000018  -0.000021   0.000085
    33  H    0.000463   0.000273   0.000002  -0.000005   0.000001  -0.000250
    34  H   -0.000275   0.000521   0.000003  -0.000002   0.000003  -0.000144
    35  H    0.004893  -0.001529   0.000010  -0.000131   0.000190  -0.000930
    36  H   -0.221258  -0.072434  -0.001064   0.006678  -0.007969   0.099781
    37  H    0.057527   0.011495  -0.000537  -0.000680   0.000751   0.000996
    38  H   -0.012658  -0.072428  -0.162571   0.754872  -0.528041   0.241944
    39  H   -0.002499   0.066169   0.024849  -0.281020   0.721187  -0.244404
    40  H   -0.000112   0.000000   0.000000   0.000000  -0.000000  -0.000000
    41  H   -0.000082  -0.000001   0.000000  -0.000000  -0.000000   0.000000
    42  H    0.002303  -0.000215  -0.000001  -0.000001   0.000002   0.000060
             19         20         21         22         23         24
     1  C   -0.000293   0.001018  -0.008359   0.036655   0.079818  -0.150056
     2  C    0.001207   0.003959  -0.003022   0.128304  -0.008348   0.005644
     3  C    0.002787   0.018758   0.009449  -0.285279   0.181568   0.029997
     4  C   -0.000616  -0.002668  -0.003306   0.452324   0.019228   0.133639
     5  C    0.000592  -0.003599  -0.002140   0.182012  -0.424523   0.038035
     6  C   -0.000064  -0.000634   0.000305  -0.104319  -0.640845  -0.132744
     7  S   -0.000016  -0.002149  -0.003377  -0.157548   0.365612  -0.601468
     8  C    0.000227   0.003060   0.017720  -1.006539   0.737517  -0.319853
     9  C    0.004206  -0.027955   0.059263  -0.509396  -0.090602  -0.013705
    10  C    0.002041  -0.013111  -0.033576   0.793922   0.132403  -0.081290
    11  N    0.000571   0.004940   0.006883  -0.040982   0.001232   0.003584
    12  C    0.100809   0.046008  -0.066034  -0.605207  -0.022567   0.001341
    13  S    0.021264   0.187719  -0.023570  -2.025810   0.025419  -0.057236
    14  C    0.179678   0.102460  -0.537304  -3.305173  -0.000199  -0.000023
    15  N   -0.001044   0.008621   0.022960   0.111827  -0.000018   0.000056
    16  C    0.028480  -0.071247   0.137055  -0.241274  -0.000081   0.000047
    17  C   -0.493520  -0.167253   0.009821  -4.475335   0.000088  -0.000014
    18  C   -0.379977  -0.959539   1.272547  -9.383901  -0.000183  -0.000028
    19  N    7.398520   0.081804  -0.153749   0.588009   0.000002  -0.000000
    20  S    0.081804  15.670766  -0.200884   0.428846  -0.000010  -0.000020
    21  N   -0.153749  -0.200884   7.792411  -0.874166  -0.000083  -0.000062
    22  C    0.588009   0.428846  -0.874166  24.995224   0.002870  -0.001552
    23  C    0.000002  -0.000010  -0.000083   0.002870   8.464671  -0.772070
    24  S   -0.000000  -0.000020  -0.000062  -0.001552  -0.772070  17.325451
    25  C    0.000000  -0.000002   0.000004  -0.000245   1.328351  -1.255032
    26  C   -0.000000   0.000002  -0.000012   0.000296  -2.205278   0.941253
    27  Si   0.000000  -0.000000   0.000000  -0.000024   0.070402   0.019801
    28  H   -0.000000   0.000000   0.000000   0.000000   0.010063   0.001064
[...]
 -0.00000382,0.00001280,0.00005287,0.00001226,0.00000190,0.00000003,-0.
 00007372,0.00002896,0.00040253,0.00001246,0.00001640,-0.00006222,0.000
 09779,0.00110569,0.00639927,-0.00250975,0.00305029,-0.00094019,-0.0058
 9356,0.00491350,-0.04350376,0.00184224,-0.00089153,0.00704378,0.000627
 55,0.00099679,0.00849542,0.00009348,0.00000036,0.00095250,-0.00001955,
 -0.00015458,-0.00141821,-0.00003976,-0.00006065,-0.00037855,0.00004099
 ,0.00005295,-0.00023945,-0.00000388,-0.00000168,0.00000116,0.00000060,
 -0.00000043,0.00000040,-0.00000051,0.00000305,-0.00000030,0.00000204,0
 .,-0.00000204,-0.00000061,-0.00000128,0.00000287,0.00000005,0.00000047
 ,-0.00000071,0.00000005,0.00000028,-0.00000063,0.00000049,0.00000069,-
 0.00000122,-0.00000100,-0.00000031,-0.00000025,0.00000056,-0.00000144,
 -0.00000056,0.00000017,0.00000004,0.,0.00000016,0.00000092,-0.00000013
 ,-0.00000065,0.00000015,0.00000075,0.00000036,0.00000035,0.00000196,0.
 00000029,0.00000067,-0.00001080,0.00600948,-0.00866465,0.02726867,0.00
 000150,-0.00000545,0.00000042,0.00000948,0.00001113,0.00000246,0.00000
 615,-0.00001317,-0.00000105,-0.00003749,0.00001848,-0.00000791,-0.0000
 1836,-0.00001396,-0.00000091,0.00001549,-0.00001142,0.00000224,0.00001
 181,0.00000946,-0.00000064,0.00002881,-0.00003568,0.00001251,-0.000041
 74,-0.00002947,0.00000027,0.00012633,-0.00002516,-0.00000264,0.0000893
 4,0.00001896,0.00000412,0.00004025,-0.00029090,-0.00002931,-0.00005053
 ,-0.00008286,0.00000277,-0.00189579,0.00137284,-0.00006391,-0.00456681
 ,-0.00270017,0.00063760,0.00431632,-0.02860492,0.00263786,-0.06265034,
 -0.03613967,0.00431698,0.00786993,0.02568453,-0.00259863,0.00242920,-0
 .00152352,0.00000594,0.00033837,0.00058964,-0.00008471,-0.00081986,0.0
 0179927,-0.00012069,-0.00372785,0.00069571,0.00020024,0.00000876,0.000
 00562,-0.00000548,0.00000354,-0.00000189,0.00000024,-0.00000317,-0.000
 00777,0.00000027,-0.00000255,-0.00000666,0.00000292,0.00000263,0.00001
 482,0.00000309,-0.00000018,-0.00000409,-0.00000009,-0.00000105,-0.0000
 0348,-0.00000116,0.00000131,-0.00000700,-0.00000299,-0.00000527,0.0000
 0196,0.00000370,-0.00000404,0.00000427,0.00000173,0.00000033,-0.000001
 25,-0.00000049,-0.00000075,-0.00000135,0.00000047,0.00000118,-0.000000
 85,0.00000033,-0.00000232,-0.00000044,0.00000129,-0.00000275,-0.000007
 37,0.00000209,0.00070630,0.00049289,-0.00019491,0.05782425,0.00000130,
 -0.00000090,0.00000033,-0.00000582,-0.00000171,-0.00000071,0.00000307,
 0.00000874,0.00000145,0.00001619,-0.00001545,0.00000314,0.00000672,0.0
 0000461,0.00000119,-0.00000946,0.00000299,-0.00000325,-0.00000591,-0.0
 0000852,0.00000598,-0.00002148,0.00002823,0.00000918,0.00012340,-0.000
 01111,-0.00001395,-0.00006698,0.00011911,-0.00002223,-0.00009743,-0.00
 017442,0.00004370,-0.00002096,0.00002612,-0.00016253,0.00001252,-0.000
 01435,-0.00001442,0.00028376,0.00057625,-0.00004321,-0.00216784,0.0011
 4884,0.00073969,0.00235364,-0.00665328,0.00071075,-0.03597697,-0.34175
 063,0.03034743,-0.00486019,-0.01368888,0.00170117,-0.00093185,0.001290
 06,-0.00030867,0.00042792,-0.00039980,-0.00003300,0.00006328,-0.000646
 15,0.00013685,0.00233320,0.00098654,0.00031886,0.00000356,0.00000238,-
 0.00000266,0.00000125,-0.00000088,-0.00000142,-0.00000079,0.00000064,0
 .00000028,0.00000007,-0.00000099,-0.00000017,0.00000098,0.00000466,0.0
 0000171,-0.00000019,-0.00000104,-0.00000020,-0.00000051,-0.00000108,-0
 .00000051,-0.00000018,-0.00000168,-0.00000158,-0.00000081,0.00000113,0
 .00000153,-0.00000195,-0.00000212,0.00000113,-0.00000067,-0.00000066,-
 0.00000058,-0.00000101,-0.00000038,0.00000010,0.00000008,0.00000057,-0
 .00000057,-0.00000298,0.00000021,-0.00000218,-0.00000617,-0.00000301,0
 .00000333,-0.00025077,0.00044101,-0.00042031,0.03879935,0.35873569,-0.
 00000041,-0.00000086,0.00000278,0.00000258,0.00000118,-0.00000364,-0.0
 0000003,-0.00000011,0.00000123,-0.00000866,0.00000253,-0.00000601,-0.0
 0000725,-0.00000591,-0.00000123,0.00001415,-0.00000725,0.00000108,-0.0
 0000957,0.00001395,0.00001864,0.00002081,-0.00000434,0.00011210,-0.000
 01430,0.00001182,-0.00006476,-0.00000106,-0.00002900,-0.00008645,0.000
 02425,0.00004937,0.00022713,-0.00005729,-0.00016736,-0.00174059,-0.000
 01328,-0.00001737,-0.00017794,0.00003821,-0.00006708,0.00026145,0.0005
 8415,0.00076142,0.00816300,-0.00030832,0.00162855,0.00145700,0.0043041
 2,0.03035116,-0.03598309,0.00030117,0.00080716,0.00265909,-0.00004606,
 -0.00029833,-0.00224095,-0.00006975,-0.00003505,-0.00060384,0.00004610
 ,0.00008729,0.00080650,0.00003848,0.00035135,0.00500813,0.00000067,0.0
 0000438,-0.00000873,0.00000002,-0.00000110,-0.00000015,-0.00000138,0.0
 0000288,0.00000130,0.00000349,-0.00000078,-0.00000221,-0.00000044,0.00
 000019,0.00000388,0.00000006,-0.00000003,-0.00000087,-0.00000003,-0.00
 000004,-0.00000088,-0.00000025,-0.00000057,-0.00000145,-0.00000084,-0.
 00000019,-0.00000017,-0.00000194,-0.00000249,-0.00000085,0.00000082,0.
 00000002,0.00000015,-0.00000074,0.00000018,-0.00000032,-0.00000032,0.0
 0000042,-0.00000002,0.,0.00000010,0.00000578,0.00000303,0.00000416,0.0
 0002736,-0.00011864,-0.00044438,-0.00403808,-0.00472255,-0.03299592,0.
 02620413,-0.00003601,0.00005275,0.00003176,0.00001267,0.00000091,-0.00
 000240,0.00001606,0.00004440,-0.00000320,0.00020462,-0.00006968,0.0000
 8384,-0.00000393,0.00044305,-0.00006045,0.00129183,-0.00069882,0.00047
 369,0.00002293,-0.00000133,0.00004950,-0.00019305,-0.00013710,-0.00003
 484,0.00000694,0.00007361,-0.00003260,0.00001930,-0.00002127,0.0000028
 5,-0.00000785,0.00001103,-0.00000297,0.00001040,-0.00006209,0.00000560
 ,-0.00001671,0.00001929,0.00000126,0.00001316,0.00005108,-0.00000554,0
 .00001532,-0.00002813,0.00000183,-0.00000287,0.00001606,-0.00000071,-0
 .00000231,-0.00000841,-0.00000097,0.00000093,-0.00000449,0.00000355,0.
 00000375,-0.00000928,-0.00000026,-0.00001276,0.00000627,0.00000004,0.0
 0000911,-0.00000038,-0.00000032,-0.00001284,0.00000161,-0.00000271,0.0
 0021062,0.00282192,0.00062748,0.00287918,0.00379288,-0.00255813,-0.193
 05721,-0.13712505,0.08313862,-0.00825222,-0.01410950,0.00214531,-0.000
 75178,-0.00007462,-0.00118243,-0.00016696,0.00036233,0.00015576,0.0000
 9400,-0.00011222,-0.00012124,0.00006708,-0.00004661,0.00009420,-0.0001
 5344,-0.00123061,0.00015623,0.00002589,0.00095786,0.00588817,-0.000013
 60,-0.00002090,-0.00002025,-0.00000917,0.00000190,-0.00002776,-0.00000
 106,0.00000084,0.00000114,0.00001546,0.00000032,0.00000417,0.00000446,
 -0.00000012,0.00000511,0.00000098,-0.00000125,0.00000019,-0.00000038,0
 .00000039,0.00000029,0.19818678,0.00001526,-0.00000094,0.00000932,-0.0
 0003374,0.00001141,-0.00000506,0.00004136,-0.00004205,-0.00001098,-0.0
 0010818,-0.00009561,-0.00018880,0.00019443,-0.00027927,0.00030900,-0.0
 0163885,0.00025711,0.00055186,-0.00007520,0.00022161,-0.00015905,-0.00
 002178,0.00000405,0.00003963,-0.00004667,0.00004597,0.00004001,0.00001
 492,-0.00001570,-0.00000065,0.00001305,0.00000002,0.00000503,-0.000025
 75,-0.00003704,0.00000025,0.00001104,0.00000003,0.00000185,0.00001779,
 0.00004839,-0.00000879,0.00001361,-0.00002690,0.00000255,-0.00000800,0
 .00001254,0.00000046,0.00000202,-0.00000818,0.00000025,-0.00000213,-0.
 00000219,0.00000159,0.00000420,-0.00001154,0.00000059,-0.00000597,0.00
 000976,-0.00000105,0.00000281,-0.00000628,0.00000168,-0.00001331,-0.00
 000203,-0.00000159,0.00200922,-0.00452785,-0.00282330,-0.01420245,-0.0
 1216441,0.00775352,-0.13867805,-0.17047941,0.06071217,0.00657399,0.009
 57290,-0.00216855,0.00016919,0.00042135,0.00063582,0.00003631,-0.00016
 872,-0.00002835,-0.00007896,0.00000811,0.00004749,-0.00013978,-0.00008
 001,0.00003230,0.00009102,0.00075902,0.00001302,0.00078486,0.00107194,
 -0.00244101,-0.00001745,0.00001881,0.00000577,-0.00000705,-0.00000686,
 0.00000048,-0.00000710,-0.00000329,-0.00000095,-0.00001908,-0.00000286
 ,-0.00000255,-0.00000761,0.00000329,-0.00000351,0.00000117,-0.00000218
 ,0.00000013,-0.00000068,-0.00000032,-0.00000020,0.14492029,0.17552312,
 -0.00002855,0.00008438,0.00005986,-0.00001236,0.00002037,-0.00000689,0
 .00006226,0.00003093,-0.00000584,0.00025641,-0.00020538,-0.00003470,0.
 00010926,0.00033994,0.00008489,0.00023496,-0.00079456,0.00166757,0.000
 00547,0.00019052,0.00002670,-0.00037548,-0.00030658,-0.00005658,-0.000
 03233,0.00020369,-0.00004699,0.00005914,-0.00006044,0.00000919,-0.0000
 0283,0.00002364,-0.00000505,-0.00000286,-0.00016647,0.00001734,-0.0000
 2375,0.00003770,0.00000414,0.00003625,0.00015504,-0.00002302,0.0000462
 7,-0.00008451,0.00000566,-0.00001238,0.00004650,-0.00000222,-0.0000009
 2,-0.00002220,0.00000163,-0.00000599,-0.00001655,0.00000178,0.00001358
 ,-0.00002775,0.00000140,-0.00003404,0.00001846,0.00000020,0.00002194,-
 0.00000196,-0.00000107,-0.00003340,0.00000006,0.00000261,0.00083764,-0
 .00248905,-0.00113299,-0.00745571,-0.00551634,0.00196800,0.08219247,0.
 05909796,-0.06808892,0.00792718,0.01272042,-0.00212616,-0.00115885,0.0
 0094952,-0.00121837,-0.00018906,0.00022613,0.00016008,0.00012340,-0.00
 044861,-0.00031932,0.00013962,-0.00010867,0.00004936,0.00044807,0.0008
 2740,0.00041026,0.00582673,-0.00242412,0.00300027,-0.00008544,-0.00002
 081,-0.00003825,-0.00002279,0.00000861,-0.00004954,-0.00000722,-0.0000
 0215,-0.00000086,0.00000651,-0.00000303,0.00000451,-0.00000074,0.00000
 262,0.00000972,0.00000354,-0.00000447,0.00000062,-0.00000209,-0.000000
 09,0.00000030,-0.08886551,-0.06224684,0.06616927,0.00002726,-0.0000423
 8,-0.00000209,0.00000843,-0.00001499,-0.00001073,-0.00000036,0.0000036
 1,0.00000063,0.00003031,0.00000252,0.00002342,0.00000194,0.00005063,-0
 .00009572,0.00003514,-0.00014127,0.00012356,-0.00001631,0.00003399,0.0
 0002080,-0.00003323,-0.00000111,-0.00001680,0.00002257,-0.00002333,-0.
 00000183,-0.00001558,0.00000991,-0.00000159,-0.00000459,-0.00000483,-0
 .00000173,0.00001362,0.00002012,-0.00000365,-0.00000114,0.00000124,0.0
 0000146,-0.00000675,-0.00002569,0.00000565,-0.00000696,0.00001394,-0.0
 0000297,0.00000255,-0.00000707,0.00000046,-0.00000125,0.00000342,-0.00
 000144,0.00000248,0.00000278,0.00000215,-0.00000236,0.00000558,-0.0000
 0197,0.00000465,-0.00000368,0.00000179,-0.00000234,0.00000147,-0.00000
 180,0.00000563,0.00000079,-0.00000167,-0.00003732,0.00003933,0.0003479
 3,-0.00048776,0.00056177,-0.00054762,0.00078992,0.00014171,0.00047979,
 -0.00166577,-0.00056771,0.00093256,-0.00239028,0.00431756,0.00392894,-
 0.00040881,-0.00045768,0.00022625,-0.00020480,-0.00041317,-0.00039185,
 -0.20217607,0.04324744,0.15366245,0.00075746,-0.00313405,0.00177277,0.
 00462615,-0.00093283,0.00462878,0.00003333,0.00002715,0.00004684,-0.00
 000150,0.00000570,-0.00000006,-0.00000025,-0.00000114,-0.00000075,0.00
 000275,0.00000247,0.00000353,0.00000389,-0.00000171,0.00000247,-0.0000
 0060,0.00000074,0.00000038,0.00000053,0.00000034,0.00000053,-0.0000062
 1,0.00001025,-0.00000379,0.20328048,0.00001263,-0.00001693,-0.00001613
 ,-0.00002188,0.00000693,0.00000798,0.00000769,-0.00000743,0.00000834,0
 .00000163,-0.00002778,0.00001521,0.00003681,0.00000639,0.00004798,-0.0
 0001573,0.00015531,-0.00002877,-0.00001592,-0.00001996,0.00001100,-0.0
 0000728,-0.00002380,-0.00000606,-0.00000036,0.00000464,-0.00000488,-0.
 00000014,0.00000216,-0.00000076,-0.00000669,-0.00000319,0.00000036,0.0
 0000622,-0.00001134,0.00000177,-0.00000055,-0.00000025,-0.00000024,-0.
 00000009,0.00000297,-0.00000047,0.00000048,-0.00000116,0.00000084,0.00
 000067,0.00000009,-0.00000020,-0.00000001,-0.00000077,0.00000031,0.000
 00006,0.00000002,-0.00000069,-0.00000041,0.00000078,0.00000061,-0.0000
 0145,-0.00000270,-0.00000079,0.00000053,0.00000178,0.00000129,0.000000
 49,0.00000051,-0.00000042,0.00070997,0.00086602,-0.00047839,0.00049876
 ,0.00034469,0.00004220,0.00027393,0.00064307,-0.00035262,-0.00329128,-
 0.00139619,0.00221582,-0.00688697,0.00405232,0.00674543,0.00022747,-0.
 00067947,0.00012705,-0.00019294,-0.00044942,-0.00033990,0.03020551,-0.
 05600030,-0.03194906,0.02337491,-0.00207740,-0.02100825,-0.00157514,-0
 .00506471,-0.00280205,-0.00000893,0.00001995,-0.00003744,-0.00000322,0
 .00001508,0.00001724,-0.00000341,-0.00000191,-0.00000447,-0.00000169,-
 0.00000187,-0.00000556,-0.00000106,0.00000056,0.00000058,-0.00000050,0
 .00000014,-0.00000010,-0.00000006,-0.00000003,-0.00000015,0.00003652,0
 .00000616,-0.00000986,-0.04405774,0.05826735,0.00006531,-0.00006541,-0
 .00004196,-0.00002521,-0.00000731,-0.00000473,0.00000880,0.00000303,0.
 00000651,0.00002197,0.00002923,0.00001732,0.00000974,-0.00001711,-0.00
 005971,0.00010859,-0.00005506,0.00011724,-0.00005378,0.00005241,-0.000
 01878,-0.00002369,-0.00008549,0.00000668,-0.00001778,0.00004628,-0.000
 01637,0.00001832,-0.00001643,0.00000415,-0.00000416,0.00000771,-0.0000
 0134,-0.00000253,-0.00004944,0.00000498,-0.00000273,0.00000929,0.00000
 134,0.00001334,0.00004692,-0.00000617,0.00001127,-0.00002414,0.0000017
 5,-0.00000363,0.00001351,-0.00000096,-0.00000013,-0.00000683,0.0000008
 5,-0.00000249,-0.00000572,0.00000038,0.00000382,-0.00001055,0.00000067
 ,-0.00000991,0.00000461,0.00000035,0.00000669,0.00000018,-0.00000071,-
 0.00001105,0.00000125,0.00000051,0.00060775,0.00013983,-0.00006557,-0.
 00048901,-0.00000042,-0.00085370,0.00043295,-0.00032189,0.00081956,0.0
 0008885,0.00020539,-0.00026905,0.00075835,-0.00261766,-0.00061873,-0.0
 0018856,0.00034278,-0.00008092,0.00032939,0.00024501,-0.00033313,0.150
 66712,-0.04259504,-0.16544856,0.00875496,0.00072718,-0.00313247,0.0042
 7774,-0.00329283,0.00616807,0.00003473,0.00001147,0.00006833,0.0000055
 2,0.00000534,-0.00000975,-0.00000998,-0.00001157,-0.00000897,-0.000002
 28,-0.00000156,-0.00000229,-0.00000223,0.00000096,0.00000096,0.0000011
 1,-0.00000113,0.00000018,-0.00000062,-0.00000002,0.00000013,-0.0000052
 0,-0.00000185,-0.00003068,-0.16141441,0.04615542,0.16731433,-0.0000497
 4,-0.00041286,-0.00015281,-0.00002153,-0.00001054,-0.00010828,-0.00002
 549,-0.00001804,0.00002622,0.00007324,0.00019818,-0.00010442,0.0002082
 5,0.00024325,0.00000915,-0.00017891,-0.00018504,-0.00007140,-0.0000742
 5,0.00013775,-0.00003394,0.00005662,0.00002102,-0.00000358,-0.00000371
 ,0.00003992,0.00002770,0.00000906,-0.00002197,-0.00000374,0.00000894,0
 .00000760,0.00000184,-0.00001623,-0.00002068,0.00000228,0.00000688,0.0
 0000961,0.00000653,0.00001372,0.00003575,-0.00000921,0.00000760,-0.000
 01779,-0.00000048,-0.00000587,0.00000978,-0.00000020,0.00000227,-0.000
 00470,0.00000141,-0.00000434,-0.00000474,0.00000018,0.00000368,-0.0000
 0935,-0.00000026,-0.00000419,0.00000569,0.00000138,0.00000343,-0.00000
 223,-0.00000226,-0.00000949,-0.00000054,0.00000233,0.00047434,-0.00048
 762,-0.00097389,-0.00042786,-0.00001566,0.00029732,-0.00034531,-0.0010
 5075,0.00014441,-0.00137709,0.00108689,0.00325427,0.00269398,0.0000938
 7,0.00470540,-0.00075418,-0.00057988,0.00004379,0.00094552,0.00064052,
 -0.00087539,0.01020148,0.00435582,0.00273999,-0.13948120,-0.12271070,0
 .05117507,-0.00765409,-0.01806904,0.00429105,0.00009243,-0.00030888,-0
 .00048229,-0.00004661,0.00004703,-0.00000347,-0.00001604,-0.00002578,-
 0.00001748,-0.00000912,-0.00000613,0.00001541,-0.00000429,0.00000088,0
 .00000152,0.00000111,-0.00000119,0.00000068,-0.00000059,-0.00000010,0.
 00000018,-0.00041111,0.00021100,0.00000538,-0.00217884,0.00069917,-0.0
 0395696,0.13829752,-0.00044911,-0.00027219,-0.00024779,0.00021139,-0.0
 0000317,-0.00013993,-0.00009039,-0.00012668,0.00001248,-0.00001536,-0.
 00013052,-0.00005271,-0.00036729,-0.00010034,-0.00037849,0.00012091,0.
 00013791,0.00004248,0.00008249,0.00000266,0.00006897,-0.00004404,0.000
 06882,-0.00001561,0.00002186,-0.00004936,-0.00000567,-0.00001690,0.000
 01301,0.00000306,0.00001218,-0.00000754,-0.00000530,-0.00000187,0.0000
 5577,-0.00000407,0.00000044,-0.00000749,-0.00000330,-0.00001513,-0.000
 04111,0.00000594,-0.00000867,0.00002078,-0.00000209,0.00000284,-0.0000
 1118,0.00000083,0.00000166,0.00000752,-0.00000066,-0.00000007,0.000003
 98,-0.00000157,-0.00000249,0.00000877,-0.00000084,0.00000983,-0.000001
 51,0.00000106,-0.00000571,-0.00000109,-0.00000142,0.00001129,-0.000001
 93,0.00000320,-0.00027937,0.00004605,0.00034734,-0.00005758,0.00007426
 ,0.00005267,0.00019191,0.00036597,-0.00003909,0.00126527,0.00017712,-0
 .00131123,0.00033923,-0.00209978,-0.00295034,-0.00018884,-0.00009505,0
 .00033124,-0.00080554,-0.00047007,0.00052252,-0.01725887,-0.01867524,0
 .00628617,-0.12393732,-0.22439669,0.05864665,0.00352024,0.00647523,-0.
 00218317,0.00012623,-0.00004728,-0.00035048,0.00002079,0.00001527,-0.0
 0001331,0.00000054,-0.00000194,0.00001504,0.00000908,-0.00000733,0.000
 04192,0.00000388,-0.00000178,0.00000081,-0.00000077,0.00000097,0.00000
 004,0.00000031,-0.00000040,0.00000038,0.00014656,-0.00003193,-0.000023
 45,0.00132593,0.00138971,0.00113964,0.13612047,0.23771782,0.00017014,-
 0.00017931,-0.00045528,-0.00028854,-0.00013143,0.00014073,0.00006673,0
 .00018712,-0.00002593,0.00000204,-0.00020159,0.00012988,0.00029915,-0.
 00048976,0.00005762,0.00035793,0.00001227,-0.00009487,-0.00017880,0.00
 002993,0.00006313,-0.00007699,0.00010075,-0.00005131,0.00002011,-0.000
 13710,-0.00002413,-0.00003910,0.00006549,-0.00000412,-0.00003961,-0.00
 002379,-0.00000629,0.00004442,0.00006827,-0.00001529,0.00000917,-0.000
 01649,0.00001103,-0.00002527,-0.00009134,0.00001752,-0.00002808,0.0000
 5015,-0.00000571,0.00001073,-0.00002511,0.00000179,-0.00000140,0.00001
 327,-0.00000332,0.00000466,0.00000909,0.00000205,-0.00000924,0.0000181
 4,-0.00000356,0.00001687,-0.00001533,0.00000442,-0.00001030,0.00000588
 ,-0.00000549,0.00002137,0.00000316,-0.00000136,-0.00091936,0.00049696,
 0.00011978,0.00037951,-0.00002585,-0.00019386,0.00046849,0.00094107,0.
 00016051,0.00317747,-0.00155567,-0.00075410,0.00444403,-0.00287720,0.0
 0383850,-0.00149202,-0.00074879,0.00062102,0.00039828,0.00074424,-0.00
 060764,-0.00274965,-0.01176369,0.01109150,0.05138952,0.05813539,-0.069
 68989,0.00914586,0.01567385,-0.00075354,-0.00097872,-0.00020624,-0.000
 43462,-0.00000378,0.00007867,0.00005522,0.00002988,0.00004014,0.000010
 26,-0.00001222,0.00002789,-0.00003580,0.00000538,-0.00000130,0.0000078
 7,-0.00000266,0.00000368,0.00000023,0.00000124,0.00000038,0.00000109,0
 .00005684,-0.00007172,-0.00046791,-0.00371066,0.00164788,-0.00352975,-
 0.05995342,-0.05979196,0.06082960\\0.00000121,-0.00000219,0.00000369,-
 0.00000268,0.00000115,0.00000560,-0.00000041,0.00000052,0.00000405,0.0
 0000237,0.00000007,-0.00000714,-0.00000255,-0.00000107,-0.00000633,0.0
 0000104,-0.00000339,0.00000483,-0.00000125,0.00000070,-0.00000137,-0.0
 0000105,0.00000180,0.00000455,0.00000190,0.00000128,0.00000025,0.00000
 066,0.00000218,-0.00000364,-0.00000227,-0.00000175,-0.00000353,0.00000
 129,-0.00000107,-0.00000083,-0.00000226,-0.00000118,0.00000038,0.00000
 040,-0.00000099,-0.00000096,0.00000033,0.00000291,0.00000050,-0.000000
 35,-0.00000234,-0.00000176,0.00000034,0.00000090,-0.00000095,0.0000007
 8,-0.00000004,0.00000093,-0.00000059,0.00000067,0.00000096,-0.00000123
 ,-0.00000023,0.00000206,-0.00000003,-0.00000121,0.00000274,0.00000249,
 0.00000053,-0.00000289,-0.00000215,0.00000120,0.00000770,0.00000071,-0
 .00000007,-0.00000454,0.00000330,0.00000090,0.00000119,-0.00000904,0.0
 0000097,-0.00000629,0.00000570,-0.00000038,-0.00000092,-0.00000046,0.0
 0000018,0.00000113,0.00000121,-0.00000102,-0.00000021,0.00000148,0.000
 00052,0.00000204,0.00000320,0.00000169,0.00000389,0.00000128,-0.000001
 01,-0.00000787,0.00000111,0.00000201,0.00000321,-0.00000384,0.00000107
 ,0.00000136,-0.00000095,0.00000021,0.00000272,-0.00000028,-0.00000056,
 0.00000180,-0.00000085,0.00000127,-0.00000329,0.00000025,0.00000029,-0
 .00000304,0.00000041,-0.00000018,-0.00000074,-0.00000077,0.00000039,-0
 .00000165,0.00000225,-0.00000178,0.00000238,-0.00000068,-0.00000293,0.
 00000002\\\@


 NO SCIENCE HAS EVER MADE MORE RAPID PROGRESS IN A
 SHORTER TIME THAN CHEMISTRY.
   -- MARTIN HEINRICH KLOPROTH, 1791
 (FIRST PROFESSOR OF CHEMISTRY AT THE UNIVERSITY OF BERLIN)
 Job cpu time:  1 days  0 hours 38 minutes 56.3 seconds.
 File lengths (MBytes):  RWF=   2004 Int=      0 D2E=      0 Chk=     32 Scr=      1
 Normal termination of Gaussian 09 at Mon Dec 30 11:55:53 2013.
