 Entering Gaussian System, Link 0=g09
 Initial command:
 /opt/gaussian/g09/l1.exe /panfs/panfs.cluster/home/shuo/Gau-8997.inp -scrdir=/panfs/panfs.cluster/home/shuo/
 Default is to use a total of  12 processors:
                               12 via shared-memory
                                1 via Linda
 Entering Link 1 = /opt/gaussian/g09/l1.exe PID=      8998.
  
 Copyright (c) 1988,1990,1992,1993,1995,1998,2003,2009,2011,
            Gaussian, Inc.  All Rights Reserved.
  
 This is part of the Gaussian(R) 09 program.  It is based on
 the Gaussian(R) 03 system (copyright 2003, Gaussian, Inc.),
 the Gaussian(R) 98 system (copyright 1998, Gaussian, Inc.),
 the Gaussian(R) 94 system (copyright 1995, Gaussian, Inc.),
 the Gaussian 92(TM) system (copyright 1992, Gaussian, Inc.),
 the Gaussian 90(TM) system (copyright 1990, Gaussian, Inc.),
 the Gaussian 88(TM) system (copyright 1988, Gaussian, Inc.),
 the Gaussian 86(TM) system (copyright 1986, Carnegie Mellon
 University), and the Gaussian 82(TM) system (copyright 1983,
 Carnegie Mellon University). Gaussian is a federally registered
 trademark of Gaussian, Inc.
  
 This software contains proprietary and confidential information,
 including trade secrets, belonging to Gaussian, Inc.
  
 This software is provided under written license and may be
 used, copied, transmitted, or stored only in accord with that
 written license.
  
 The following legend is applicable only to US Government
 contracts under FAR:
  
                    RESTRICTED RIGHTS LEGEND
  
 Use, reproduction and disclosure by the US Government is
 subject to restrictions as set forth in subparagraphs (a)
 and (c) of the Commercial Computer Software - Restricted
 Rights clause in FAR 52.227-19.
  
 Gaussian, Inc.
 340 Quinnipiac St., Bldg. 40, Wallingford CT 06492
  
  
 ---------------------------------------------------------------
 Warning -- This program may not be used in any manner that
 competes with the business of Gaussian, Inc. or will provide
 assistance to any competitor of Gaussian, Inc.  The licensee
 of this program is prohibited from giving any competitor of
 Gaussian, Inc. access to this program.  By using this program,
 the user acknowledges that Gaussian, Inc. is engaged in the
 business of creating and licensing software in the field of
 computational chemistry and represents and warrants to the
 licensee that it is not a competitor of Gaussian, Inc. and that
 it will not use this program in any manner prohibited above.
 ---------------------------------------------------------------
  

 Cite this work as:
 Gaussian 09, Revision C.01,
 M. J. Frisch, G. W. Trucks, H. B. Schlegel, G. E. Scuseria, 
 M. A. Robb, J. R. Cheeseman, G. Scalmani, V. Barone, B. Mennucci, 
 G. A. Petersson, H. Nakatsuji, M. Caricato, X. Li, H. P. Hratchian, 
 A. F. Izmaylov, J. Bloino, G. Zheng, J. L. Sonnenberg, M. Hada, 
 M. Ehara, K. Toyota, R. Fukuda, J. Hasegawa, M. Ishida, T. Nakajima, 
 Y. Honda, O. Kitao, H. Nakai, T. Vreven, J. A. Montgomery, Jr., 
 J. E. Peralta, F. Ogliaro, M. Bearpark, J. J. Heyd, E. Brothers, 
 K. N. Kudin, V. N. Staroverov, T. Keith, R. Kobayashi, J. Normand, 
 K. Raghavachari, A. Rendell, J. C. Burant, S. S. Iyengar, J. Tomasi, 
 M. Cossi, N. Rega, J. M. Millam, M. Klene, J. E. Knox, J. B. Cross, 
 V. Bakken, C. Adamo, J. Jaramillo, R. Gomperts, R. E. Stratmann, 
 O. Yazyev, A. J. Austin, R. Cammi, C. Pomelli, J. W. Ochterski, 
 R. L. Martin, K. Morokuma, V. G. Zakrzewski, G. A. Voth, 
 P. Salvador, J. J. Dannenberg, S. Dapprich, A. D. Daniels, 
 O. Farkas, J. B. Foresman, J. V. Ortiz, J. Cioslowski, 
 and D. J. Fox, Gaussian, Inc., Wallingford CT, 2010.
 
 ******************************************
 Gaussian 09:  EM64L-G09RevC.01 23-Sep-2011
                29-Dec-2013 
 ******************************************
 %chk=76_C25H15N5SSi2.chk
 %NProcShared=12
 Will use up to   12 processors via shared memory.
 %Mem=8000MB
 Default route:  MaxDisk=100GB
 --------------------------------------------
 #B3LYP/6-31++G(d,p) opt scf=direct freq test
 --------------------------------------------
 1/14=-1,18=20,19=15,26=3,38=1/1,3;
 2/9=110,12=2,17=6,18=5,40=1/2;
 3/5=1,6=6,7=1111,11=2,16=1,25=1,30=1,71=1,74=-5/1,2,3;
 4//1;
 5/5=2,38=5/2;
 6/7=2,8=2,9=2,10=2,28=1/1;
 7//1,2,3,16;
 1/14=-1,18=20,19=15/3(2);
 2/9=110/2;
 99//99;
 2/9=110/2;
 3/5=1,6=6,7=1111,11=2,16=1,25=1,30=1,71=1,74=-5/1,2,3;
 4/5=5,16=3/1;
 5/5=2,38=5/2;
 7//1,2,3,16;
 1/14=-1,18=20,19=15/3(-5);
 2/9=110/2;
 6/7=2,8=2,9=2,10=2,19=2,28=1/1;
 99/9=1/99;
 ----------------------------------------------------------------------
 Geom opt of No.76 candidate from the CEPDB database with SMILE code of
  [SiH2]1ccc2c1csc2-c1sc(-c2sc(c3[SiH2]ccc23)-c2ncncn2)c2nccnc12, HPC, 
 20131227, Shuo Dai, Gaussian09
 ----------------------------------------------------------------------
 Charge =  0 Multiplicity = 1
 Symbolic Z-Matrix:
 Si                   -1.64115   1.69007   0.00458 
 H                    -1.70888   2.40585  -1.2853 
 H                    -1.70387   2.38617   1.30532 
 C                    -2.40751  -0.00448   0.00008 
 C                    -1.461    -0.94037  -0.00234 
 C                    -0.11345  -0.4452   -0.00081 
 C                     0.0296    0.96268   0.00006 
 C                     1.28884   1.46369   0.0003 
 S                     2.38092   0.1812    0.00459 
 C                     1.09684  -1.04637   0.00135 
 C                     1.42848  -2.43483   0.00031 
 S                     3.07393  -2.74635  -0.01197 
 C                     2.88338  -4.38756  -0.01242 
 C                     4.08192  -5.12057  -0.02395 
 S                     3.90504  -6.79866  -0.02037 
 C                     5.56688  -7.0584   -0.03958 
 C                     6.22017  -5.8659   -0.04541 
 Si                    7.97742  -5.35974  -0.05896 
 H                     8.54305  -5.8348   -1.34178 
 H                     8.55356  -5.82447   1.22273 
 C                     7.46546  -3.56088  -0.05658 
 C                     6.12015  -3.45478  -0.04401 
 C                     5.40524  -4.71934  -0.0373 
 C                     5.99049  -8.42342  -0.04383 
 N                     7.29576  -8.62187  -0.05085 
 C                     7.60296  -9.9034   -0.05304 
 N                     6.74759  -10.92896  -0.04803 
 C                     5.46624  -10.58363  -0.04096 
 N                     5.02716  -9.3487   -0.03916 
 C                     1.5587   -4.76171  -0.00144 
 N                     1.08933  -6.04639   0.00178 
 C                    -0.25885  -6.10931   0.01009 
 C                    -1.08516  -4.99741   0.01466 
 N                    -0.64691  -3.72118   0.01427 
 C                     0.70762  -3.60813   0.00519 
 H                    -3.4712   -0.19153   0.00193 
 H                    -1.74225  -1.98116  -0.00422 
 H                     1.65334   2.47793   0.00096 
 H                     8.18729  -2.75878  -0.06175 
 H                     5.6654   -2.46967  -0.03866 
 H                     8.65958  -10.12491  -0.05987 
 H                     4.71008  -11.35789  -0.03618 
 H                    -0.67862  -7.10983   0.01311 
 H                    -2.16471  -5.10772   0.01847 
 

 GradGradGradGradGradGradGradGradGradGradGradGradGradGradGradGradGradGrad
 Berny optimization.
 Initialization pass.
                           ----------------------------
                           !    Initial Parameters    !
                           ! (Angstroms and Degrees)  !
 --------------------------                            --------------------------
 ! Name  Definition              Value          Derivative Info.                !
 --------------------------------------------------------------------------------
 ! R1    R(1,2)                  1.4767         estimate D2E/DX2                !
 ! R2    R(1,3)                  1.4766         estimate D2E/DX2                !
 ! R3    R(1,4)                  1.8598         estimate D2E/DX2                !
 ! R4    R(1,7)                  1.8222         estimate D2E/DX2                !
 ! R5    R(4,5)                  1.3311         estimate D2E/DX2                !
 ! R6    R(4,36)                 1.08           estimate D2E/DX2                !
 ! R7    R(5,6)                  1.4356         estimate D2E/DX2                !
 ! R8    R(5,37)                 1.0781         estimate D2E/DX2                !
 ! R9    R(6,7)                  1.4151         estimate D2E/DX2                !
 ! R10   R(6,10)                 1.3514         estimate D2E/DX2                !
 ! R11   R(7,8)                  1.3552         estimate D2E/DX2                !
 ! R12   R(8,9)                  1.6845         estimate D2E/DX2                !
 ! R13   R(8,38)                 1.0777         estimate D2E/DX2                !
 ! R14   R(9,10)                 1.7765         estimate D2E/DX2                !
 ! R15   R(10,11)                1.4275         estimate D2E/DX2                !
 ! R16   R(11,12)                1.6747         estimate D2E/DX2                !
 ! R17   R(11,35)                1.3771         estimate D2E/DX2                !
 ! R18   R(12,13)                1.6522         estimate D2E/DX2                !
 ! R19   R(13,14)                1.405          estimate D2E/DX2                !
 ! R20   R(13,30)                1.3765         estimate D2E/DX2                !
 ! R21   R(14,15)                1.6874         estimate D2E/DX2                !
 ! R22   R(14,23)                1.3829         estimate D2E/DX2                !
 ! R23   R(15,16)                1.6821         estimate D2E/DX2                !
 ! R24   R(16,17)                1.3597         estimate D2E/DX2                !
 ! R25   R(16,24)                1.4292         estimate D2E/DX2                !
 ! R26   R(17,18)                1.8287         estimate D2E/DX2                !
 ! R27   R(17,23)                1.4067         estimate D2E/DX2                !
 ! R28   R(18,19)                1.4803         estimate D2E/DX2                !
 ! R29   R(18,20)                1.4801         estimate D2E/DX2                !
 ! R30   R(18,21)                1.8703         estimate D2E/DX2                !
 ! R31   R(21,22)                1.3495         estimate D2E/DX2                !
 ! R32   R(21,39)                1.0791         estimate D2E/DX2                !
 ! R33   R(22,23)                1.4527         estimate D2E/DX2                !
 ! R34   R(22,40)                1.085          estimate D2E/DX2                !
 ! R35   R(24,25)                1.3203         estimate D2E/DX2                !
 ! R36   R(24,29)                1.3357         estimate D2E/DX2                !
 ! R37   R(25,26)                1.3178         estimate D2E/DX2                !
 ! R38   R(26,27)                1.3355         estimate D2E/DX2                !
 ! R39   R(26,41)                1.0796         estimate D2E/DX2                !
 ! R40   R(27,28)                1.3271         estimate D2E/DX2                !
 ! R41   R(28,29)                1.3107         estimate D2E/DX2                !
 ! R42   R(28,42)                1.0823         estimate D2E/DX2                !
 ! R43   R(30,31)                1.3677         estimate D2E/DX2                !
 ! R44   R(30,35)                1.4336         estimate D2E/DX2                !
 ! R45   R(31,32)                1.3497         estimate D2E/DX2                !
 ! R46   R(32,33)                1.3853         estimate D2E/DX2                !
 ! R47   R(32,43)                1.085          estimate D2E/DX2                !
 ! R48   R(33,34)                1.3494         estimate D2E/DX2                !
 ! R49   R(33,44)                1.0852         estimate D2E/DX2                !
 ! R50   R(34,35)                1.3593         estimate D2E/DX2                !
 ! A1    A(2,1,3)              122.6147         estimate D2E/DX2                !
 ! A2    A(2,1,4)              114.8743         estimate D2E/DX2                !
 ! A3    A(2,1,7)              103.4955         estimate D2E/DX2                !
 ! A4    A(3,1,4)              114.4663         estimate D2E/DX2                !
 ! A5    A(3,1,7)              103.2562         estimate D2E/DX2                !
 ! A6    A(4,1,7)               90.8078         estimate D2E/DX2                !
 ! A7    A(1,4,5)              110.3421         estimate D2E/DX2                !
 ! A8    A(1,4,36)             124.3079         estimate D2E/DX2                !
 ! A9    A(5,4,36)             125.3498         estimate D2E/DX2                !
 ! A10   A(4,5,6)              115.1467         estimate D2E/DX2                !
 ! A11   A(4,5,37)             119.5551         estimate D2E/DX2                !
 ! A12   A(6,5,37)             125.2981         estimate D2E/DX2                !
 ! A13   A(5,6,7)              115.9781         estimate D2E/DX2                !
 ! A14   A(5,6,10)             133.4094         estimate D2E/DX2                !
 ! A15   A(7,6,10)             110.6125         estimate D2E/DX2                !
 ! A16   A(1,7,6)              107.725          estimate D2E/DX2                !
 ! A17   A(1,7,8)              134.7771         estimate D2E/DX2                !
 ! A18   A(6,7,8)              117.4977         estimate D2E/DX2                !
 ! A19   A(7,8,9)              108.7194         estimate D2E/DX2                !
 ! A20   A(7,8,38)             131.4635         estimate D2E/DX2                !
 ! A21   A(9,8,38)             119.8168         estimate D2E/DX2                !
 ! A22   A(8,9,10)              93.2954         estimate D2E/DX2                !
 ! A23   A(6,10,9)             109.8747         estimate D2E/DX2                !
 ! A24   A(6,10,11)            129.8478         estimate D2E/DX2                !
 ! A25   A(9,10,11)            120.2775         estimate D2E/DX2                !
 ! A26   A(10,11,12)           114.1538         estimate D2E/DX2                !
 ! A27   A(10,11,35)           134.9997         estimate D2E/DX2                !
 ! A28   A(12,11,35)           110.8464         estimate D2E/DX2                !
 ! A29   A(11,12,13)            94.0979         estimate D2E/DX2                !
 ! A30   A(12,13,14)           114.826          estimate D2E/DX2                !
 ! A31   A(12,13,30)           112.3938         estimate D2E/DX2                !
 ! A32   A(14,13,30)           132.7802         estimate D2E/DX2                !
 ! A33   A(13,14,15)           115.4302         estimate D2E/DX2                !
 ! A34   A(13,14,23)           131.6853         estimate D2E/DX2                !
 ! A35   A(15,14,23)           112.8844         estimate D2E/DX2                !
 ! A36   A(14,15,16)            92.8646         estimate D2E/DX2                !
 ! A37   A(15,16,17)           109.8335         estimate D2E/DX2                !
 ! A38   A(15,16,24)           116.1243         estimate D2E/DX2                !
 ! A39   A(17,16,24)           134.0421         estimate D2E/DX2                !
 ! A40   A(16,17,18)           134.7844         estimate D2E/DX2                !
 ! A41   A(16,17,23)           115.8786         estimate D2E/DX2                !
 ! A42   A(18,17,23)           109.3369         estimate D2E/DX2                !
 ! A43   A(17,18,19)           106.5448         estimate D2E/DX2                !
 ! A44   A(17,18,20)           106.3033         estimate D2E/DX2                !
 ! A45   A(17,18,21)            90.1815         estimate D2E/DX2                !
 ! A46   A(19,18,20)           120.0619         estimate D2E/DX2                !
 ! A47   A(19,18,21)           114.4793         estimate D2E/DX2                !
 ! A48   A(20,18,21)           114.0446         estimate D2E/DX2                !
 ! A49   A(18,21,22)           110.3957         estimate D2E/DX2                !
 ! A50   A(18,21,39)           122.1278         estimate D2E/DX2                !
 ! A51   A(22,21,39)           127.4763         estimate D2E/DX2                !
 ! A52   A(21,22,23)           114.9732         estimate D2E/DX2                !
 ! A53   A(21,22,40)           119.2898         estimate D2E/DX2                !
 ! A54   A(23,22,40)           125.737          estimate D2E/DX2                !
 ! A55   A(14,23,17)           108.5386         estimate D2E/DX2                !
 ! A56   A(14,23,22)           136.3489         estimate D2E/DX2                !
 ! A57   A(17,23,22)           115.1125         estimate D2E/DX2                !
 ! A58   A(16,24,25)           115.8862         estimate D2E/DX2                !
 ! A59   A(16,24,29)           116.604          estimate D2E/DX2                !
 ! A60   A(25,24,29)           127.5097         estimate D2E/DX2                !
 ! A61   A(24,25,26)           112.1253         estimate D2E/DX2                !
 ! A62   A(25,26,27)           126.6891         estimate D2E/DX2                !
 ! A63   A(25,26,41)           115.3203         estimate D2E/DX2                !
 ! A64   A(27,26,41)           117.9905         estimate D2E/DX2                !
 ! A65   A(26,27,28)           114.7474         estimate D2E/DX2                !
 ! A66   A(27,28,29)           124.6559         estimate D2E/DX2                !
 ! A67   A(27,28,42)           119.2401         estimate D2E/DX2                !
 ! A68   A(29,28,42)           116.104          estimate D2E/DX2                !
 ! A69   A(24,29,28)           114.2725         estimate D2E/DX2                !
 ! A70   A(13,30,31)           125.8422         estimate D2E/DX2                !
 ! A71   A(13,30,35)           110.6481         estimate D2E/DX2                !
 ! A72   A(31,30,35)           123.5096         estimate D2E/DX2                !
 ! A73   A(30,31,32)           112.7427         estimate D2E/DX2                !
 ! A74   A(31,32,33)           123.9463         estimate D2E/DX2                !
 ! A75   A(31,32,43)           115.4331         estimate D2E/DX2                !
 ! A76   A(33,32,43)           120.6206         estimate D2E/DX2                !
 ! A77   A(32,33,34)           124.4296         estimate D2E/DX2                !
 ! A78   A(32,33,44)           120.784          estimate D2E/DX2                !
 ! A79   A(34,33,44)           114.7864         estimate D2E/DX2                !
 ! A80   A(33,34,35)           113.7226         estimate D2E/DX2                !
 ! A81   A(11,35,30)           112.0137         estimate D2E/DX2                !
 ! A82   A(11,35,34)           126.3374         estimate D2E/DX2                !
 ! A83   A(30,35,34)           121.6489         estimate D2E/DX2                !
 ! D1    D(2,1,4,5)            105.3797         estimate D2E/DX2                !
 ! D2    D(2,1,4,36)           -74.774          estimate D2E/DX2                !
 ! D3    D(3,1,4,5)           -104.8889         estimate D2E/DX2                !
 ! D4    D(3,1,4,36)            74.9574         estimate D2E/DX2                !
 ! D5    D(7,1,4,5)              0.0844         estimate D2E/DX2                !
 ! D6    D(7,1,4,36)           179.9307         estimate D2E/DX2                !
 ! D7    D(2,1,7,6)           -115.998          estimate D2E/DX2                !
 ! D8    D(2,1,7,8)             64.1658         estimate D2E/DX2                !
 ! D9    D(3,1,7,6)            115.2461         estimate D2E/DX2                !
 ! D10   D(3,1,7,8)            -64.5902         estimate D2E/DX2                !
 ! D11   D(4,1,7,6)             -0.1491         estimate D2E/DX2                !
 ! D12   D(4,1,7,8)           -179.9853         estimate D2E/DX2                !
 ! D13   D(1,4,5,6)              0.0071         estimate D2E/DX2                !
 ! D14   D(1,4,5,37)           179.9466         estimate D2E/DX2                !
 ! D15   D(36,4,5,6)          -179.8372         estimate D2E/DX2                !
 ! D16   D(36,4,5,37)            0.1022         estimate D2E/DX2                !
 ! D17   D(4,5,6,7)             -0.1343         estimate D2E/DX2                !
 ! D18   D(4,5,6,10)           179.788          estimate D2E/DX2                !
 ! D19   D(37,5,6,7)           179.9302         estimate D2E/DX2                !
 ! D20   D(37,5,6,10)           -0.1475         estimate D2E/DX2                !
 ! D21   D(5,6,7,1)              0.1887         estimate D2E/DX2                !
 ! D22   D(5,6,7,8)           -179.9423         estimate D2E/DX2                !
 ! D23   D(10,6,7,1)          -179.751          estimate D2E/DX2                !
 ! D24   D(10,6,7,8)             0.118          estimate D2E/DX2                !
 ! D25   D(5,6,10,9)          -179.9194         estimate D2E/DX2                !
 ! D26   D(5,6,10,11)            0.1334         estimate D2E/DX2                !
 ! D27   D(7,6,10,9)             0.0059         estimate D2E/DX2                !
 ! D28   D(7,6,10,11)         -179.9413         estimate D2E/DX2                !
 ! D29   D(1,7,8,9)            179.6391         estimate D2E/DX2                !
 ! D30   D(1,7,8,38)            -0.1724         estimate D2E/DX2                !
 ! D31   D(6,7,8,9)             -0.1851         estimate D2E/DX2                !
 ! D32   D(6,7,8,38)          -179.9966         estimate D2E/DX2                !
 ! D33   D(7,8,9,10)             0.1518         estimate D2E/DX2                !
 ! D34   D(38,8,9,10)          179.989          estimate D2E/DX2                !
 ! D35   D(8,9,10,6)            -0.0926         estimate D2E/DX2                !
 ! D36   D(8,9,10,11)          179.8605         estimate D2E/DX2                !
 ! D37   D(6,10,11,12)         179.4042         estimate D2E/DX2                !
 ! D38   D(6,10,11,35)          -0.483          estimate D2E/DX2                !
 ! D39   D(9,10,11,12)          -0.5384         estimate D2E/DX2                !
 ! D40   D(9,10,11,35)         179.5745         estimate D2E/DX2                !
 ! D41   D(10,11,12,13)       -179.8718         estimate D2E/DX2                !
 ! D42   D(35,11,12,13)          0.0428         estimate D2E/DX2                !
 ! D43   D(10,11,35,30)        179.8942         estimate D2E/DX2                !
 ! D44   D(10,11,35,34)         -0.0637         estimate D2E/DX2                !
 ! D45   D(12,11,35,30)          0.0043         estimate D2E/DX2                !
 ! D46   D(12,11,35,34)       -179.9535         estimate D2E/DX2                !
 ! D47   D(11,12,13,14)        179.9092         estimate D2E/DX2                !
 ! D48   D(11,12,13,30)         -0.0806         estimate D2E/DX2                !
 ! D49   D(12,13,14,15)        179.8421         estimate D2E/DX2                !
 ! D50   D(12,13,14,23)         -0.1216         estimate D2E/DX2                !
 ! D51   D(30,13,14,15)         -0.1706         estimate D2E/DX2                !
 ! D52   D(30,13,14,23)        179.8656         estimate D2E/DX2                !
 ! D53   D(12,13,30,31)       -179.9585         estimate D2E/DX2                !
 ! D54   D(12,13,30,35)          0.0942         estimate D2E/DX2                !
 ! D55   D(14,13,30,31)          0.054          estimate D2E/DX2                !
 ! D56   D(14,13,30,35)       -179.8932         estimate D2E/DX2                !
 ! D57   D(13,14,15,16)        179.9172         estimate D2E/DX2                !
 ! D58   D(23,14,15,16)         -0.1122         estimate D2E/DX2                !
 ! D59   D(13,14,23,17)       -179.9741         estimate D2E/DX2                !
 ! D60   D(13,14,23,22)          0.0593         estimate D2E/DX2                !
 ! D61   D(15,14,23,17)          0.0614         estimate D2E/DX2                !
 ! D62   D(15,14,23,22)       -179.9051         estimate D2E/DX2                !
 ! D63   D(14,15,16,17)          0.1293         estimate D2E/DX2                !
 ! D64   D(14,15,16,24)       -179.9767         estimate D2E/DX2                !
 ! D65   D(15,16,17,18)        179.7473         estimate D2E/DX2                !
 ! D66   D(15,16,17,23)         -0.1207         estimate D2E/DX2                !
 ! D67   D(24,16,17,18)         -0.1203         estimate D2E/DX2                !
 ! D68   D(24,16,17,23)       -179.9883         estimate D2E/DX2                !
 ! D69   D(15,16,24,25)       -179.6107         estimate D2E/DX2                !
 ! D70   D(15,16,24,29)          0.3359         estimate D2E/DX2                !
 ! D71   D(17,16,24,25)          0.2506         estimate D2E/DX2                !
 ! D72   D(17,16,24,29)       -179.8028         estimate D2E/DX2                !
 ! D73   D(16,17,18,19)         64.3279         estimate D2E/DX2                !
 ! D74   D(16,17,18,20)        -64.822          estimate D2E/DX2                !
 ! D75   D(16,17,18,21)        179.999          estimate D2E/DX2                !
 ! D76   D(23,17,18,19)       -115.798          estimate D2E/DX2                !
 ! D77   D(23,17,18,20)        115.0521         estimate D2E/DX2                !
 ! D78   D(23,17,18,21)         -0.1268         estimate D2E/DX2                !
 ! D79   D(16,17,23,14)          0.0393         estimate D2E/DX2                !
 ! D80   D(16,17,23,22)       -179.9862         estimate D2E/DX2                !
 ! D81   D(18,17,23,14)       -179.8614         estimate D2E/DX2                !
 ! D82   D(18,17,23,22)          0.1131         estimate D2E/DX2                !
 ! D83   D(17,18,21,22)          0.1175         estimate D2E/DX2                !
 ! D84   D(17,18,21,39)        179.9452         estimate D2E/DX2                !
 ! D85   D(19,18,21,22)        108.4382         estimate D2E/DX2                !
 ! D86   D(19,18,21,39)        -71.7341         estimate D2E/DX2                !
 ! D87   D(20,18,21,22)       -107.8701         estimate D2E/DX2                !
 ! D88   D(20,18,21,39)         71.9576         estimate D2E/DX2                !
 ! D89   D(18,21,22,23)         -0.0772         estimate D2E/DX2                !
 ! D90   D(18,21,22,40)        179.8548         estimate D2E/DX2                !
 ! D91   D(39,21,22,23)       -179.8934         estimate D2E/DX2                !
 ! D92   D(39,21,22,40)          0.0387         estimate D2E/DX2                !
 ! D93   D(21,22,23,14)        179.9415         estimate D2E/DX2                !
 ! D94   D(21,22,23,17)         -0.0234         estimate D2E/DX2                !
 ! D95   D(40,22,23,14)          0.0146         estimate D2E/DX2                !
 ! D96   D(40,22,23,17)       -179.9504         estimate D2E/DX2                !
 ! D97   D(16,24,25,26)        179.9374         estimate D2E/DX2                !
 ! D98   D(29,24,25,26)         -0.0024         estimate D2E/DX2                !
 ! D99   D(16,24,29,28)       -179.8858         estimate D2E/DX2                !
 ! D100  D(25,24,29,28)          0.0536         estimate D2E/DX2                !
 ! D101  D(24,25,26,27)         -0.0488         estimate D2E/DX2                !
 ! D102  D(24,25,26,41)        179.9342         estimate D2E/DX2                !
 ! D103  D(25,26,27,28)          0.0419         estimate D2E/DX2                !
 ! D104  D(41,26,27,28)       -179.9408         estimate D2E/DX2                !
 ! D105  D(26,27,28,29)          0.0194         estimate D2E/DX2                !
 ! D106  D(26,27,28,42)       -179.9768         estimate D2E/DX2                !
 ! D107  D(27,28,29,24)         -0.0615         estimate D2E/DX2                !
 ! D108  D(42,28,29,24)        179.9349         estimate D2E/DX2                !
 ! D109  D(13,30,31,32)       -179.8596         estimate D2E/DX2                !
 ! D110  D(35,30,31,32)          0.0811         estimate D2E/DX2                !
 ! D111  D(13,30,35,11)         -0.0624         estimate D2E/DX2                !
 ! D112  D(13,30,35,34)        179.8977         estimate D2E/DX2                !
 ! D113  D(31,30,35,11)        179.9889         estimate D2E/DX2                !
 ! D114  D(31,30,35,34)         -0.051          estimate D2E/DX2                !
 ! D115  D(30,31,32,33)          0.0112         estimate D2E/DX2                !
 ! D116  D(30,31,32,43)       -179.9896         estimate D2E/DX2                !
 ! D117  D(31,32,33,34)         -0.1484         estimate D2E/DX2                !
 ! D118  D(31,32,33,44)        179.8235         estimate D2E/DX2                !
 ! D119  D(43,32,33,34)        179.8524         estimate D2E/DX2                !
 ! D120  D(43,32,33,44)         -0.1756         estimate D2E/DX2                !
 ! D121  D(32,33,34,35)          0.1703         estimate D2E/DX2                !
 ! D122  D(44,33,34,35)       -179.8031         estimate D2E/DX2                !
 ! D123  D(33,34,35,11)        179.8794         estimate D2E/DX2                !
 ! D124  D(33,34,35,30)         -0.0747         estimate D2E/DX2                !
 --------------------------------------------------------------------------------
 Trust Radius=3.00D-01 FncErr=1.00D-07 GrdErr=1.00D-06
 Number of steps in this run=    264 maximum allowed number of steps=    264.
 GradGradGradGradGradGradGradGradGradGradGradGradGradGradGradGradGradGrad

                          Input orientation:                          
 ---------------------------------------------------------------------
 Center     Atomic      Atomic             Coordinates (Angstroms)
 Number     Number       Type             X           Y           Z
 ---------------------------------------------------------------------
      1         14           0       -1.641150    1.690070    0.004580
      2          1           0       -1.708880    2.405850   -1.285300
      3          1           0       -1.703870    2.386170    1.305320
      4          6           0       -2.407510   -0.004480    0.000080
      5          6           0       -1.461000   -0.940370   -0.002340
      6          6           0       -0.113450   -0.445200   -0.000810
      7          6           0        0.029600    0.962680    0.000060
      8          6           0        1.288840    1.463690    0.000300
      9         16           0        2.380920    0.181200    0.004590
     10          6           0        1.096840   -1.046370    0.001350
     11          6           0        1.428480   -2.434830    0.000310
     12         16           0        3.073930   -2.746350   -0.011970
     13          6           0        2.883380   -4.387560   -0.012420
     14          6           0        4.081920   -5.120570   -0.023950
     15         16           0        3.905040   -6.798660   -0.020370
     16          6           0        5.566880   -7.058400   -0.039580
     17          6           0        6.220170   -5.865900   -0.045410
     18         14           0        7.977420   -5.359740   -0.058960
     19          1           0        8.543050   -5.834800   -1.341780
     20          1           0        8.553560   -5.824470    1.222730
     21          6           0        7.465460   -3.560880   -0.056580
     22          6           0        6.120150   -3.454780   -0.044010
     23          6           0        5.405240   -4.719340   -0.037300
     24          6           0        5.990490   -8.423420   -0.043830
     25          7           0        7.295760   -8.621870   -0.050850
     26          6           0        7.602960   -9.903400   -0.053040
     27          7           0        6.747590  -10.928960   -0.048030
     28          6           0        5.466240  -10.583630   -0.040960
     29          7           0        5.027160   -9.348700   -0.039160
     30          6           0        1.558700   -4.761710   -0.001440
     31          7           0        1.089330   -6.046390    0.001780
     32          6           0       -0.258850   -6.109310    0.010090
     33          6           0       -1.085160   -4.997410    0.014660
     34          7           0       -0.646910   -3.721180    0.014270
     35          6           0        0.707620   -3.608130    0.005190
     36          1           0       -3.471200   -0.191530    0.001930
     37          1           0       -1.742250   -1.981160   -0.004220
     38          1           0        1.653340    2.477930    0.000960
     39          1           0        8.187290   -2.758780   -0.061750
     40          1           0        5.665400   -2.469670   -0.038660
     41          1           0        8.659580  -10.124910   -0.059870
     42          1           0        4.710080  -11.357890   -0.036180
     43          1           0       -0.678620   -7.109830    0.013110
     44          1           0       -2.164710   -5.107720    0.018470
 ---------------------------------------------------------------------
                    Distance matrix (angstroms):
                    1          2          3          4          5
     1  Si   0.000000
     2  H    1.476726   0.000000
     3  H    1.476622   2.590700   0.000000
     4  C    1.859792   2.819570   2.813178   0.000000
     5  C    2.636611   3.592300   3.582573   1.331081   0.000000
     6  C    2.625505   3.510527   3.500295   2.336011   1.435649
     7  C    1.822230   2.599462   2.595177   2.622004   2.417332
     8  C    2.938726   3.395108   3.392692   3.977251   3.652551
     9  S    4.295781   4.831081   4.820716   4.792031   4.002289
    10  C    3.871008   4.630913   4.618078   3.655955   2.560038
    11  C    5.141736   5.909992   5.895482   4.541081   3.253077
    12  S    6.474108   7.144355   7.134801   6.128962   4.881316
    13  C    7.576889   8.298162   8.286297   6.870594   5.545887
    14  C    8.896019   9.579737   9.570448   8.263635   6.942514
    15  S   10.139989  10.855374  10.843359   9.274135   7.944449
    16  C   11.335492  12.002522  11.994685  10.646608   9.317874
    17  C   10.903923  11.525147  11.520050  10.430493   9.124860
    18  Si  11.925634  12.475284  12.473482  11.684565  10.421987
    19  H   12.733981  13.153462  13.401151  12.478301  11.217422
    20  H   12.723377  13.392015  13.139113  12.470454  11.209221
    21  C   10.512210  11.012726  11.013573  10.494128   9.303317
    22  C    9.311800   9.858068   9.856606   9.199321   7.987354
    23  C    9.525435  10.145765  10.140530   9.125260   7.837544
    24  C   12.669923  13.345210  13.336814  11.891463  10.560420
    25  N   13.645788  14.290487  14.283189  12.977498  11.648547
    26  C   14.827860  15.483748  15.475650  14.078386  12.747307
    27  N   15.153008  15.838557  15.828816  14.253506  12.928842
    28  C   14.183116  14.891518  14.880815  13.187723  11.873526
    29  N   12.896616  13.605019  13.594910  11.941118  10.620621
    30  C    7.201704   7.981184   7.965185   6.193711   4.870444
    31  N    8.204166   8.995939   8.978265   6.980872   5.707507
    32  C    7.920929   8.734333   8.714292   6.471923   5.306907
    33  C    6.710560   7.542359   7.521028   5.165092   4.074447
    34  N    5.501839   6.352728   6.331169   4.112636   2.897572
    35  C    5.795485   6.608539   6.590695   4.763439   3.438010
    36  H    2.624787   3.392509   3.386269   1.080013   2.145154
    37  H    3.672632   4.570354   4.559599   2.085630   1.078123
    38  H    3.387388   3.600581   3.602865   4.759502   4.624273
    39  H   10.788647  11.229633  11.232740  10.947136   9.818332
    40  H    8.407793   8.927755   8.927015   8.441003   7.288735
    41  H   15.674915  16.310322  16.303127  14.996906  13.666939
    42  H   14.511686  15.238238  15.226213  13.400049  12.108183
    43  H    8.852388   9.658958   9.638203   7.312676   6.218890
    44  H    6.817936   7.639459   7.617529   5.109046   4.226399
                    6          7          8          9         10
     6  C    0.000000
     7  C    1.415129   0.000000
     8  C    2.368603   1.355248   0.000000
     9  S    2.571826   2.477789   1.684470   0.000000
    10  C    1.351374   2.274925   2.517393   1.776457   0.000000
    11  C    2.517176   3.674226   3.901020   2.784021   1.427518
    12  S    3.931260   4.798437   4.572869   3.008502   2.607488
    13  C    4.952103   6.063768   6.064639   4.596338   3.788861
    14  C    6.281779   7.309433   7.152228   5.568032   5.050787
    15  S    7.517652   8.675128   8.666681   7.144369   6.401195
    16  C    8.717916   9.746834   9.535682   7.909747   7.491825
    17  C    8.336709   9.217089   8.834195   7.163083   7.034100
    18  Si   9.466692  10.155999   9.555093   7.875714   8.121033
    19  H   10.284988  10.976570  10.377509   8.716468   8.954278
    20  H   10.273785  10.964407  10.362807   8.697898   8.940061
    21  C    8.194538   8.703897   7.962423   6.313434   6.847294
    22  C    6.922226   7.524008   6.894553   5.215798   5.571009
    23  C    6.980368   7.822036   7.428056   5.758781   5.661671
    24  C   10.045493  11.119038  10.948169   9.331175   8.852724
    25  N   11.034348  12.027605  11.739004  10.082300   9.788643
    26  C   12.206689  13.245010  13.003142  11.356592  10.989974
    27  N   12.529378  13.658141  13.541716  11.937597  11.384156
    28  C   11.572481  12.762289  12.751090  11.198341  10.490604
    29  N   10.281034  11.458695  11.440471   9.890576   9.185736
    30  C    4.629076   5.925098   6.231246   5.010832   3.743938
    31  N    5.728876   7.088730   7.512730   6.360117   5.000026
    32  C    5.665986   7.077877   7.729539   6.821945   5.241310
    33  C    4.654791   6.063462   6.883451   6.231518   4.513537
    34  N    3.319164   4.732485   5.534456   4.939273   3.193030
    35  C    3.267770   4.620827   5.105017   4.142337   2.591162
    36  H    3.367320   3.686164   5.039617   5.863978   4.647337
    37  H    2.238789   3.435937   4.588520   4.655793   2.989029
    38  H    3.415588   2.220927   1.077749   2.409223   3.567966
    39  H    8.617346   8.966660   8.088369   6.508596   7.294574
    40  H    6.123318   6.598846   5.884481   4.220994   4.785303
    41  H   13.063932  14.050438  13.734157  12.068207  11.816035
    42  H   11.931240  13.179706  13.270235  11.771884  10.926315
    43  H    6.688565   8.103528   8.796380   7.906957   6.318065
    44  H    5.093833   6.454850   7.423663   6.973924   5.208893
                   11         12         13         14         15
    11  C    0.000000
    12  S    1.674724   0.000000
    13  C    2.435170   1.652235   0.000000
    14  C    3.775517   2.579362   1.404968   0.000000
    15  S    5.017648   4.136669   2.618636   1.687390   0.000000
    16  C    6.205268   4.980897   3.786198   2.441421   1.682125
    17  C    5.893609   4.430749   3.649760   2.264529   2.496096
    18  Si   7.172672   5.556638   5.186188   3.902992   4.319289
    19  H    7.998632   6.420140   5.991124   4.706217   4.917956
    20  H    7.984406   6.405127   5.978398   4.695237   4.909489
    21  C    6.141364   4.466653   4.656265   3.725861   4.812600
    22  C    4.801461   3.127676   3.368643   2.632421   4.011085
    23  C    4.586395   3.054233   2.543713   1.382874   2.564071
    24  C    7.528419   6.382512   5.093455   3.814689   2.643766
    25  N    8.526843   7.235129   6.115550   4.752746   3.849936
    26  C    9.690541   8.469779   7.259516   5.939195   4.828570
    27  N   10.022251   8.969514   7.597585   6.390913   5.014004
    28  C    9.094402   8.194324   6.712918   5.635748   4.094358
    29  N    7.794463   6.885265   5.404574   4.332527   2.786074
    30  C    2.330522   2.521450   1.376549   2.548711   3.107223
    31  N    3.627450   3.850856   2.443468   3.132635   2.914554
    32  C    4.043387   4.734703   3.583091   4.452084   4.220677
    33  C    3.589625   4.729272   4.015216   5.168692   5.305452
    34  N    2.441748   3.846509   3.592732   4.931692   5.494755
    35  C    1.377061   2.518409   2.311223   3.697868   4.517038
    36  H    5.388809   7.026096   7.614956   9.019187   9.902706
    37  H    3.203024   4.876594   5.214142   6.616437   7.422968
    38  H    4.917903   5.413995   6.974821   7.977207   9.545980
    39  H    6.766854   5.113617   5.548587   4.736406   5.887275
    40  H    4.237242   2.606335   3.379146   3.087863   4.673260
    41  H   10.556030   9.254454   8.141494   6.782306   5.802685
    42  H    9.507430   8.765626   7.205754   6.268883   4.629786
    43  H    5.127929   5.755191   4.483219   5.159580   4.594332
    44  H    4.478357   5.746333   5.099294   6.246787   6.301004
                   16         17         18         19         20
    16  C    0.000000
    17  C    1.359735   0.000000
    18  Si   2.948987   1.828745   0.000000
    19  H    3.471384   2.660322   1.480286   0.000000
    20  H    3.469332   2.656051   1.480081   2.564552   0.000000
    21  C    3.979641   2.619922   1.870296   2.825536   2.818587
    22  C    3.645848   2.413194   2.660554   3.635814   3.625127
    23  C    2.344639   1.406690   2.650791   3.576558   3.566638
    24  C    1.429246   2.567813   3.651610   3.860206   3.863683
    25  N    2.331007   2.958428   3.332599   3.315116   3.321071
    26  C    3.498547   4.267736   4.559068   4.370140   4.378230
    27  N    4.046651   5.090457   5.703404   5.554091   5.561670
    28  C    3.526667   4.777594   5.796152   5.806055   5.811890
    29  N    2.353035   3.681468   4.961474   5.138657   5.142768
    30  C    4.619713   4.790665   6.446776   7.192300   7.180259
    31  N    4.590678   5.134230   6.922497   7.576798   7.566683
    32  C    5.902742   6.483828   8.270597   8.909341   8.900011
    33  C    6.964213   7.357019   9.070119   9.759282   9.749276
    34  N    7.053448   7.194454   8.778913   9.526890   9.514875
    35  C    5.959763   5.957205   7.478118   8.256292   8.243382
    36  H   11.350882  11.230466  12.561250  13.341449  13.334737
    37  H    8.899607   8.859629  10.290276  11.064674  11.058035
    38  H   10.308202   9.511971  10.071080  10.879914  10.864419
    39  H    5.035253   3.677502   2.609415   3.350663   3.344024
    40  H    4.589788   3.441249   3.701129   4.615527   4.602962
    41  H    4.355306   4.908166   4.813750   4.479053   4.488885
    42  H    4.384031   5.695824   6.830361   6.848414   6.853899
    43  H    6.245934   7.010285   8.831480   9.407477   9.399387
    44  H    7.974083   8.419331  10.145556  10.818274  10.809500
                   21         22         23         24         25
    21  C    0.000000
    22  C    1.349546   0.000000
    23  C    2.363664   1.452671   0.000000
    24  C    5.081338   4.970331   3.750036   0.000000
    25  N    5.063838   5.299144   4.336357   1.320288   0.000000
    26  C    6.344011   6.616911   5.630693   2.188718   1.317838
    27  N    7.402973   7.500471   6.353062   2.617432   2.371321
    28  C    7.301790   7.158779   5.864608   2.222916   2.682488
    29  N    6.280483   5.994409   4.644774   1.335728   2.382218
    30  C    6.027839   4.745177   3.846940   5.748972   6.914993
    31  N    6.843698   5.659301   4.515492   5.447359   6.719795
    32  C    8.134120   6.909493   5.832339   6.664253   7.961709
    33  C    8.670744   7.368829   6.496562   7.861666   9.131310
    34  N    8.114263   6.772552   6.134126   8.134465   9.333114
    35  C    6.758287   5.414925   4.827445   7.148296   8.279150
    36  H   11.444058  10.131382   9.964627  12.541518  13.674825
    37  H    9.342386   7.999405   7.654106  10.064768  11.215473
    38  H    8.381603   7.426403   8.116583  11.732532  12.451713
    39  H    1.079087   2.181238   3.403556   6.075722   5.930495
    40  H    2.105060   1.085020   2.264663   5.962621   6.364573
    41  H    6.671763   7.137198   6.309630   3.165338   2.029585
    42  H    8.269577   8.027920   6.674848   3.201659   3.764540
    43  H    8.884027   7.719192   6.536845   6.797484   8.116717
    44  H    9.753898   8.448374   7.580112   8.803694  10.092301
                   26         27         28         29         30
    26  C    0.000000
    27  N    1.335461   0.000000
    28  C    2.242416   1.327087   0.000000
    29  N    2.634887   2.336061   1.310666   0.000000
    30  C    7.935535   8.059884   7.011789   5.750836   0.000000
    31  N    7.570133   7.473813   6.304420   5.139400   1.367743
    32  C    8.729671   8.504270   7.266278   6.199837   2.262664
    33  C    9.977813   9.825436   8.609866   7.503138   2.654394
    34  N   10.309449  10.326403   9.190586   7.991677   2.438783
    35  C    9.336998   9.490976   8.444181   7.184326   1.433572
    36  H   14.729578  14.822907  13.706765  12.493101   6.796061
    37  H   12.251417  12.334603  11.223465  10.005337   4.315986
    38  H   13.736747  14.342192  13.606775  12.298514   7.240259
    39  H    7.168480   8.296069   8.284493   7.308487   6.924852
    40  H    7.682102   8.528236   8.116404   6.908575   4.703171
    41  H    1.079611   2.074209   3.226175   3.714486   8.898867
    42  H    3.237990   2.082203   1.082257   2.034058   7.310403
    43  H    8.740308   8.350933   7.059002   6.129535   3.243375
    44  H   10.881684  10.645203   9.392578   8.349385   3.739505
                   31         32         33         34         35
    31  N    0.000000
    32  C    1.349673   0.000000
    33  C    2.414318   1.385327   0.000000
    34  N    2.901945   2.419457   1.349380   0.000000
    35  C    2.467960   2.681416   2.268094   1.359270   0.000000
    36  H    7.421443   6.733452   5.365616   4.520530   5.397750
    37  H    4.954188   4.386605   3.087052   2.056157   2.940915
    38  H    8.542958   8.797570   7.961173   6.612132   6.159101
    39  H    7.822624   9.086721   9.539163   8.886793   7.528037
    40  H    5.808182   6.953136   7.208493   6.435397   5.087003
    41  H    8.599233   9.781019  11.011665  11.297080  10.281358
    42  H    6.428320   7.227724   8.604830   9.328410   8.722395
    43  H    2.063172   1.085014   2.151185   3.388799   3.766116
    44  H    3.386762   2.153034   1.085178   2.055779   3.240251
                   36         37         38         39         40
    36  H    0.000000
    37  H    2.488389   0.000000
    38  H    5.778142   5.604778   0.000000
    39  H   11.937974   9.960109   8.373743   0.000000
    40  H    9.416423   7.423820   6.370003   2.538513   0.000000
    41  H   15.679020  13.210671  14.419524   7.381255   8.219992
    42  H   13.842774  11.382295  14.169508   9.275577   8.939413
    43  H    7.460664   5.237830   9.867286   9.876315   7.860048
    44  H    5.086857   3.155054   8.492344  10.615454   8.262759
                   41         42         43         44
    41  H    0.000000
    42  H    4.137554   0.000000
    43  H    9.813155   6.861963   0.000000
    44  H   11.930783   9.291413   2.493379   0.000000
 Stoichiometry    C21H13N5S3Si2
 Framework group  C1[X(C21H13N5S3Si2)]
 Deg. of freedom   126
 Full point group                 C1      NOp   1
 Largest Abelian subgroup         C1      NOp   1
 Largest concise Abelian subgroup C1      NOp   1
                         Standard orientation:                         
 ---------------------------------------------------------------------
 Center     Atomic      Atomic             Coordinates (Angstroms)
 Number     Number       Type             X           Y           Z
 ---------------------------------------------------------------------
      1         14           0       -7.439377   -0.139249    0.011128
      2          1           0       -8.026200   -0.552736    1.301626
      3          1           0       -8.019931   -0.530548   -1.288971
      4          6           0       -6.629874    1.535100    0.020536
      5          6           0       -5.304837    1.408469    0.016138
      6          6           0       -4.821207    0.056777    0.005357
      7          6           0       -5.810166   -0.955423    0.003843
      8          6           0       -5.387615   -2.243082   -0.005032
      9         16           0       -3.703267   -2.259251   -0.017240
     10          6           0       -3.584042   -0.486839   -0.005373
     11          6           0       -2.305735    0.148564   -0.006987
     12         16           0       -1.011912   -0.914791   -0.006232
     13          6           0        0.125696    0.283427   -0.004866
     14          6           0        1.456590   -0.166737   -0.001857
     15         16           0        2.631249    1.044648   -0.004625
     16          6           0        3.895865   -0.064512    0.002959
     17          6           0        3.399295   -1.330329    0.004541
     18         14           0        4.137158   -3.003609    0.005992
     19          1           0        4.870305   -3.139905    1.284727
     20          1           0        4.857186   -3.141309   -1.279791
     21          6           0        2.428259   -3.763653    0.007623
     22          6           0        1.484483   -2.799002    0.004438
     23          6           0        1.996865   -1.439696    0.002387
     24          6           0        5.215143    0.485259    0.003921
     25          7           0        6.204114   -0.389438    0.001810
     26          6           0        7.384685    0.196179    0.001544
     27          7           0        7.623598    1.510096    0.002228
     28          6           0        6.537218    2.272287    0.004159
     29          7           0        5.307889    1.817762    0.005722
     30          6           0       -0.436225    1.540060   -0.006723
     31          7           0        0.248996    2.723780   -0.006998
     32          6           0       -0.566865    3.798949   -0.005945
     33          6           0       -1.949969    3.720514   -0.004488
     34          7           0       -2.648663    2.566111   -0.006829
     35          6           0       -1.867207    1.453933   -0.007144
     36          1           0       -7.168083    2.471438    0.026040
     37          1           0       -4.686220    2.291446    0.019715
     38          1           0       -5.932489   -3.172946   -0.007975
     39          1           0        2.275275   -4.831841    0.007971
     40          1           0        0.436847   -3.081355    0.002498
     41          1           0        8.231983   -0.472884    0.000967
     42          1           0        6.646831    3.348979    0.004446
     43          1           0       -0.067965    4.762460   -0.006294
     44          1           0       -2.557256    4.619848   -0.000816
 ---------------------------------------------------------------------
 Rotational constants (GHZ):      0.2826216      0.0550595      0.0461386
 Standard basis: 6-31++G(d,p) (6D, 7F)
 There are   687 symmetry adapted basis functions of A   symmetry.
 Integral buffers will be    131072 words long.
 Raffenetti 2 integral format.
 Two-electron integral symmetry is turned on.
   687 basis functions,  1216 primitive gaussians,   687 cartesian basis functions
   125 alpha electrons      125 beta electrons
       nuclear repulsion energy      3628.2913620009 Hartrees.
 NAtoms=   44 NActive=   44 NUniq=   44 SFac= 1.00D+00 NAtFMM=   60 NAOKFM=F Big=F
 One-electron integrals computed using PRISM.
 NBasis=   687 RedAO= T  NBF=   687
 NBsUse=   676 1.00D-06 NBFU=   676
 Harris functional with IExCor=  402 diagonalized for initial guess.
 ExpMin= 3.31D-02 ExpMax= 2.19D+04 ExpMxC= 3.30D+03 IAcc=3 IRadAn=         5 AccDes= 0.00D+00
 HarFok:  IExCor=  402 AccDes= 0.00D+00 IRadAn=         5 IDoV= 1
 ScaDFX=  1.000000  1.000000  1.000000  1.000000
 FoFCou: FMM=F IPFlag=           0 FMFlag=      100000 FMFlg1=           0
         NFxFlg=           0 DoJE=T BraDBF=F KetDBF=T FulRan=T
         Omega=  0.000000  0.000000  1.000000  0.000000  0.000000 ICntrl=     500 IOpCl=  0
         NMat0=    1 NMatS0=    1 NMatT0=    0 NMatD0=    1 NMtDS0=    0 NMtDT0=    0
         I1Cent=           4 NGrid=           0.
 Petite list used in FoFCou.
 Initial guess orbital symmetries:
       Occupied  (A) (A) (A) (A) (A) (A) (A) (A) (A) (A) (A) (A)
                 (A) (A) (A) (A) (A) (A) (A) (A) (A) (A) (A) (A)
                 (A) (A) (A) (A) (A) (A) (A) (A) (A) (A) (A) (A)
                 (A) (A) (A) (A) (A) (A) (A) (A) (A) (A) (A) (A)
                 (A) (A) (A) (A) (A) (A) (A) (A) (A) (A) (A) (A)
                 (A) (A) (A) (A) (A) (A) (A) (A) (A) (A) (A) (A)
                 (A) (A) (A) (A) (A) (A) (A) (A) (A) (A) (A) (A)
                 (A) (A) (A) (A) (A) (A) (A) (A) (A) (A) (A) (A)
                 (A) (A) (A) (A) (A) (A) (A) (A) (A) (A) (A) (A)
                 (A) (A) (A) (A) (A) (A) (A) (A) (A) (A) (A) (A)
                 (A) (A) (A) (A) (A)
       Virtual   (A) (A) (A) (A) (A) (A) (A) (A) (A) (A) (A) (A)
                 (A) (A) (A) (A) (A) (A) (A) (A) (A) (A) (A) (A)
                 (A) (A) (A) (A) (A) (A) (A) (A) (A) (A) (A) (A)
                 (A) (A) (A) (A) (A) (A) (A) (A) (A) (A) (A) (A)
                 (A) (A) (A) (A) (A) (A) (A) (A) (A) (A) (A) (A)
                 (A) (A) (A) (A) (A) (A) (A) (A) (A) (A) (A) (A)
                 (A) (A) (A) (A) (A) (A) (A) (A) (A) (A) (A) (A)
                 (A) (A) (A) (A) (A) (A) (A) (A) (A) (A) (A) (A)
                 (A) (A) (A) (A) (A) (A) (A) (A) (A) (A) (A) (A)
                 (A) (A) (A) (A) (A) (A) (A) (A) (A) (A) (A) (A)
                 (A) (A) (A) (A) (A) (A) (A) (A) (A) (A) (A) (A)
                 (A) (A) (A) (A) (A) (A) (A) (A) (A) (A) (A) (A)
                 (A) (A) (A) (A) (A) (A) (A) (A) (A) (A) (A) (A)
                 (A) (A) (A) (A) (A) (A) (A) (A) (A) (A) (A) (A)
                 (A) (A) (A) (A) (A) (A) (A) (A) (A) (A) (A) (A)
                 (A) (A) (A) (A) (A) (A) (A) (A) (A) (A) (A) (A)
                 (A) (A) (A) (A) (A) (A) (A) (A) (A) (A) (A) (A)
                 (A) (A) (A) (A) (A) (A) (A) (A) (A) (A) (A) (A)
                 (A) (A) (A) (A) (A) (A) (A) (A) (A) (A) (A) (A)
                 (A) (A) (A) (A) (A) (A) (A) (A) (A) (A) (A) (A)
                 (A) (A) (A) (A) (A) (A) (A) (A) (A) (A) (A) (A)
                 (A) (A) (A) (A) (A) (A) (A) (A) (A) (A) (A) (A)
                 (A) (A) (A) (A) (A) (A) (A) (A) (A) (A) (A) (A)
                 (A) (A) (A) (A) (A) (A) (A) (A) (A) (A) (A) (A)
                 (A) (A) (A) (A) (A) (A) (A) (A) (A) (A) (A) (A)
                 (A) (A) (A) (A) (A) (A) (A) (A) (A) (A) (A) (A)
                 (A) (A) (A) (A) (A) (A) (A) (A) (A) (A) (A) (A)
                 (A) (A) (A) (A) (A) (A) (A) (A) (A) (A) (A) (A)
                 (A) (A) (A) (A) (A) (A) (A) (A) (A) (A) (A) (A)
                 (A) (A) (A) (A) (A) (A) (A) (A) (A) (A) (A) (A)
                 (A) (A) (A) (A) (A) (A) (A) (A) (A) (A) (A) (A)
                 (A) (A) (A) (A) (A) (A) (A) (A) (A) (A) (A) (A)
                 (A) (A) (A) (A) (A) (A) (A) (A) (A) (A) (A) (A)
                 (A) (A) (A) (A) (A) (A) (A) (A) (A) (A) (A) (A)
                 (A) (A) (A) (A) (A) (A) (A) (A) (A) (A) (A) (A)
                 (A) (A) (A) (A) (A) (A) (A) (A) (A) (A) (A) (A)
                 (A) (A) (A) (A) (A) (A) (A) (A) (A) (A) (A) (A)
                 (A) (A) (A) (A) (A) (A) (A) (A) (A) (A) (A) (A)
                 (A) (A) (A) (A) (A) (A) (A) (A) (A) (A) (A) (A)
                 (A) (A) (A) (A) (A) (A) (A) (A) (A) (A) (A) (A)
                 (A) (A) (A) (A) (A) (A) (A) (A) (A) (A) (A) (A)
                 (A) (A) (A) (A) (A) (A) (A) (A) (A) (A) (A) (A)
                 (A) (A) (A) (A) (A) (A) (A) (A) (A) (A) (A) (A)
                 (A) (A) (A) (A) (A) (A) (A) (A) (A) (A) (A) (A)
                 (A) (A) (A) (A) (A) (A) (A) (A) (A) (A) (A) (A)
                 (A) (A) (A) (A) (A) (A) (A) (A) (A) (A) (A)
 The electronic state of the initial guess is 1-A.
 Requested convergence on RMS density matrix=1.00D-08 within 128 cycles.
 Requested convergence on MAX density matrix=1.00D-06.
 Requested convergence on             energy=1.00D-06.
 No special actions if energy rises.
 SCF Done:  E(RB3LYP) =  -2855.30401265     A.U. after   17 cycles
             Convg  =    0.5633D-08             -V/T =  2.0049

 **********************************************************************

            Population analysis using the SCF density.

 **********************************************************************

 Orbital symmetries:
       Occupied  (A) (A) (A) (A) (A) (A) (A) (A) (A) (A) (A) (A)
                 (A) (A) (A) (A) (A) (A) (A) (A) (A) (A) (A) (A)
                 (A) (A) (A) (A) (A) (A) (A) (A) (A) (A) (A) (A)
                 (A) (A) (A) (A) (A) (A) (A) (A) (A) (A) (A) (A)
                 (A) (A) (A) (A) (A) (A) (A) (A) (A) (A) (A) (A)
                 (A) (A) (A) (A) (A) (A) (A) (A) (A) (A) (A) (A)
                 (A) (A) (A) (A) (A) (A) (A) (A) (A) (A) (A) (A)
                 (A) (A) (A) (A) (A) (A) (A) (A) (A) (A) (A) (A)
                 (A) (A) (A) (A) (A) (A) (A) (A) (A) (A) (A) (A)
                 (A) (A) (A) (A) (A) (A) (A) (A) (A) (A) (A) (A)
                 (A) (A) (A) (A) (A)
       Virtual   (A) (A) (A) (A) (A) (A) (A) (A) (A) (A) (A) (A)
                 (A) (A) (A) (A) (A) (A) (A) (A) (A) (A) (A) (A)
                 (A) (A) (A) (A) (A) (A) (A) (A) (A) (A) (A) (A)
                 (A) (A) (A) (A) (A) (A) (A) (A) (A) (A) (A) (A)
                 (A) (A) (A) (A) (A) (A) (A) (A) (A) (A) (A) (A)
                 (A) (A) (A) (A) (A) (A) (A) (A) (A) (A) (A) (A)
                 (A) (A) (A) (A) (A) (A) (A) (A) (A) (A) (A) (A)
                 (A) (A) (A) (A) (A) (A) (A) (A) (A) (A) (A) (A)
                 (A) (A) (A) (A) (A) (A) (A) (A) (A) (A) (A) (A)
                 (A) (A) (A) (A) (A) (A) (A) (A) (A) (A) (A) (A)
                 (A) (A) (A) (A) (A) (A) (A) (A) (A) (A) (A) (A)
                 (A) (A) (A) (A) (A) (A) (A) (A) (A) (A) (A) (A)
                 (A) (A) (A) (A) (A) (A) (A) (A) (A) (A) (A) (A)
                 (A) (A) (A) (A) (A) (A) (A) (A) (A) (A) (A) (A)
                 (A) (A) (A) (A) (A) (A) (A) (A) (A) (A) (A) (A)
                 (A) (A) (A) (A) (A) (A) (A) (A) (A) (A) (A) (A)
                 (A) (A) (A) (A) (A) (A) (A) (A) (A) (A) (A) (A)
                 (A) (A) (A) (A) (A) (A) (A) (A) (A) (A) (A) (A)
                 (A) (A) (A) (A) (A) (A) (A) (A) (A) (A) (A) (A)
                 (A) (A) (A) (A) (A) (A) (A) (A) (A) (A) (A) (A)
                 (A) (A) (A) (A) (A) (A) (A) (A) (A) (A) (A) (A)
                 (A) (A) (A) (A) (A) (A) (A) (A) (A) (A) (A) (A)
                 (A) (A) (A) (A) (A) (A) (A) (A) (A) (A) (A) (A)
                 (A) (A) (A) (A) (A) (A) (A) (A) (A) (A) (A) (A)
                 (A) (A) (A) (A) (A) (A) (A) (A) (A) (A) (A) (A)
                 (A) (A) (A) (A) (A) (A) (A) (A) (A) (A) (A) (A)
                 (A) (A) (A) (A) (A) (A) (A) (A) (A) (A) (A) (A)
                 (A) (A) (A) (A) (A) (A) (A) (A) (A) (A) (A) (A)
                 (A) (A) (A) (A) (A) (A) (A) (A) (A) (A) (A) (A)
                 (A) (A) (A) (A) (A) (A) (A) (A) (A) (A) (A) (A)
                 (A) (A) (A) (A) (A) (A) (A) (A) (A) (A) (A) (A)
                 (A) (A) (A) (A) (A) (A) (A) (A) (A) (A) (A) (A)
                 (A) (A) (A) (A) (A) (A) (A) (A) (A) (A) (A) (A)
                 (A) (A) (A) (A) (A) (A) (A) (A) (A) (A) (A) (A)
                 (A) (A) (A) (A) (A) (A) (A) (A) (A) (A) (A) (A)
                 (A) (A) (A) (A) (A) (A) (A) (A) (A) (A) (A) (A)
                 (A) (A) (A) (A) (A) (A) (A) (A) (A) (A) (A) (A)
                 (A) (A) (A) (A) (A) (A) (A) (A) (A) (A) (A) (A)
                 (A) (A) (A) (A) (A) (A) (A) (A) (A) (A) (A) (A)
                 (A) (A) (A) (A) (A) (A) (A) (A) (A) (A) (A) (A)
                 (A) (A) (A) (A) (A) (A) (A) (A) (A) (A) (A) (A)
                 (A) (A) (A) (A) (A) (A) (A) (A) (A) (A) (A) (A)
                 (A) (A) (A) (A) (A) (A) (A) (A) (A) (A) (A) (A)
                 (A) (A) (A) (A) (A) (A) (A) (A) (A) (A) (A) (A)
                 (A) (A) (A) (A) (A) (A) (A) (A) (A) (A) (A) (A)
                 (A) (A) (A) (A) (A) (A) (A) (A) (A) (A) (A)
 The electronic state is 1-A.
 Alpha  occ. eigenvalues --  -88.94029 -88.91989 -88.90901 -66.12778 -66.12581
 Alpha  occ. eigenvalues --  -14.37684 -14.37563 -14.35913 -14.35708 -14.35475
 Alpha  occ. eigenvalues --  -10.28740 -10.27971 -10.27941 -10.25428 -10.25367
 Alpha  occ. eigenvalues --  -10.25210 -10.25023 -10.24551 -10.23947 -10.23930
 Alpha  occ. eigenvalues --  -10.23739 -10.22687 -10.21810 -10.21755 -10.21183
 Alpha  occ. eigenvalues --  -10.20545 -10.19793 -10.18752 -10.18249 -10.18032
 Alpha  occ. eigenvalues --  -10.17657  -8.00321  -7.98062  -7.97005  -5.96698
 Alpha  occ. eigenvalues --   -5.96294  -5.96076  -5.94502  -5.94095  -5.93744
 Alpha  occ. eigenvalues --   -5.93423  -5.92979  -5.92738  -5.27741  -5.27679
 Alpha  occ. eigenvalues --   -3.63650  -3.63591  -3.63568  -3.63522  -3.63482
 Alpha  occ. eigenvalues --   -3.63454  -1.04960  -1.00330  -0.94023  -0.93182
 Alpha  occ. eigenvalues --   -0.92979  -0.92577  -0.90915  -0.89958  -0.82363
 Alpha  occ. eigenvalues --   -0.81988  -0.80995  -0.79123  -0.76340  -0.73283
 Alpha  occ. eigenvalues --   -0.72369  -0.71867  -0.70061  -0.69725  -0.68901
 Alpha  occ. eigenvalues --   -0.64911  -0.63535  -0.61324  -0.61054  -0.58201
 Alpha  occ. eigenvalues --   -0.57345  -0.57084  -0.56180  -0.55573  -0.54082
 Alpha  occ. eigenvalues --   -0.53502  -0.52367  -0.50762  -0.49873  -0.49049
 Alpha  occ. eigenvalues --   -0.47523  -0.47120  -0.46954  -0.46650  -0.44711
 Alpha  occ. eigenvalues --   -0.43476  -0.43458  -0.42995  -0.42454  -0.42149
 Alpha  occ. eigenvalues --   -0.42058  -0.41516  -0.40699  -0.39768  -0.39482
 Alpha  occ. eigenvalues --   -0.39237  -0.38561  -0.37462  -0.36571  -0.36534
 Alpha  occ. eigenvalues --   -0.36003  -0.35815  -0.34882  -0.34367  -0.34298
 Alpha  occ. eigenvalues --   -0.32635  -0.31874  -0.31851  -0.31130  -0.30410
 Alpha  occ. eigenvalues --   -0.29805  -0.29388  -0.28675  -0.28385  -0.27924
 Alpha  occ. eigenvalues --   -0.26980  -0.25154  -0.24164  -0.23763  -0.19536
 Alpha virt. eigenvalues --   -0.11921  -0.07856  -0.06162  -0.05687  -0.04742
 Alpha virt. eigenvalues --   -0.02781  -0.01891  -0.01134  -0.00747  -0.00421
 Alpha virt. eigenvalues --   -0.00365  -0.00005   0.00276   0.00571   0.01094
 Alpha virt. eigenvalues --    0.01316   0.01489   0.01550   0.01805   0.02304
 Alpha virt. eigenvalues --    0.02427   0.03087   0.03238   0.03750   0.03831
 Alpha virt. eigenvalues --    0.04118   0.04407   0.04536   0.04670   0.04925
 Alpha virt. eigenvalues --    0.05080   0.05280   0.05755   0.05899   0.06503
 Alpha virt. eigenvalues --    0.06647   0.06934   0.07284   0.07549   0.07587
 Alpha virt. eigenvalues --    0.08101   0.08133   0.08352   0.08730   0.08755
 Alpha virt. eigenvalues --    0.09448   0.09565   0.09831   0.09867   0.10081
 Alpha virt. eigenvalues --    0.10382   0.10721   0.10807   0.10872   0.11088
 Alpha virt. eigenvalues --    0.11198   0.11335   0.11653   0.11956   0.12105
 Alpha virt. eigenvalues --    0.12558   0.12663   0.12902   0.12916   0.13122
 Alpha virt. eigenvalues --    0.13254   0.13319   0.13371   0.13513   0.13669
 Alpha virt. eigenvalues --    0.13879   0.14290   0.14520   0.15053   0.15253
 Alpha virt. eigenvalues --    0.15371   0.15725   0.15952   0.15990   0.16098
 Alpha virt. eigenvalues --    0.16258   0.16876   0.16888   0.17407   0.17488
 Alpha virt. eigenvalues --    0.17569   0.17708   0.18130   0.18223   0.18364
 Alpha virt. eigenvalues --    0.18724   0.18925   0.19660   0.19700   0.19977
 Alpha virt. eigenvalues --    0.20000   0.20393   0.20559   0.20954   0.21011
 Alpha virt. eigenvalues --    0.21233   0.21534   0.21631   0.22307   0.22473
 Alpha virt. eigenvalues --    0.22709   0.22813   0.23135   0.23264   0.23331
 Alpha virt. eigenvalues --    0.23592   0.23775   0.24009   0.24298   0.24572
 Alpha virt. eigenvalues --    0.24639   0.24692   0.25368   0.25464   0.25708
 Alpha virt. eigenvalues --    0.25845   0.26418   0.26420   0.26656   0.26975
 Alpha virt. eigenvalues --    0.27222   0.27524   0.27898   0.27936   0.28294
 Alpha virt. eigenvalues --    0.28310   0.28668   0.28907   0.29084   0.29124
 Alpha virt. eigenvalues --    0.29365   0.29533   0.29691   0.29784   0.30072
 Alpha virt. eigenvalues --    0.30480   0.30885   0.31547   0.31689   0.31960
 Alpha virt. eigenvalues --    0.32154   0.32285   0.32622   0.33148   0.33363
 Alpha virt. eigenvalues --    0.34074   0.34271   0.34405   0.34617   0.35037
 Alpha virt. eigenvalues --    0.35748   0.35920   0.36012   0.36453   0.36514
 Alpha virt. eigenvalues --    0.36601   0.37102   0.37623   0.37852   0.38221
 Alpha virt. eigenvalues --    0.38879   0.39644   0.39888   0.40061   0.40950
 Alpha virt. eigenvalues --    0.41349   0.41511   0.42369   0.42845   0.43140
 Alpha virt. eigenvalues --    0.43858   0.45216   0.45587   0.45878   0.46166
 Alpha virt. eigenvalues --    0.47546   0.48311   0.49214   0.49671   0.50161
 Alpha virt. eigenvalues --    0.50880   0.51514   0.52072   0.52887   0.53281
 Alpha virt. eigenvalues --    0.53370   0.54599   0.54669   0.55203   0.55854
 Alpha virt. eigenvalues --    0.57178   0.58719   0.58852   0.59310   0.59324
 Alpha virt. eigenvalues --    0.60118   0.60844   0.61445   0.62951   0.64984
 Alpha virt. eigenvalues --    0.65219   0.65613   0.65732   0.66138   0.66297
 Alpha virt. eigenvalues --    0.66880   0.67314   0.67479   0.68072   0.68123
 Alpha virt. eigenvalues --    0.68211   0.69134   0.69867   0.70146   0.70376
 Alpha virt. eigenvalues --    0.71656   0.72493   0.72892   0.73189   0.73436
 Alpha virt. eigenvalues --    0.73839   0.74343   0.74541   0.75614   0.75650
 Alpha virt. eigenvalues --    0.76116   0.76425   0.77389   0.77545   0.78582
 Alpha virt. eigenvalues --    0.78623   0.79247   0.79425   0.80112   0.80691
 Alpha virt. eigenvalues --    0.80962   0.81580   0.82085   0.82209   0.82603
 Alpha virt. eigenvalues --    0.83576   0.84069   0.84199   0.84282   0.84563
 Alpha virt. eigenvalues --    0.85201   0.86889   0.87160   0.88512   0.89554
 Alpha virt. eigenvalues --    0.89799   0.90076   0.90521   0.91293   0.91737
 Alpha virt. eigenvalues --    0.92887   0.93127   0.94422   0.94977   0.95120
 Alpha virt. eigenvalues --    0.95932   0.96116   0.96341   0.97128   0.97603
 Alpha virt. eigenvalues --    0.98017   0.98377   0.98651   0.99101   0.99748
 Alpha virt. eigenvalues --    1.00084   1.00611   1.01299   1.01854   1.02190
 Alpha virt. eigenvalues --    1.03313   1.03452   1.03595   1.03662   1.04522
 Alpha virt. eigenvalues --    1.06160   1.06775   1.07137   1.07514   1.09044
 Alpha virt. eigenvalues --    1.09386   1.10518   1.10979   1.11774   1.12633
 Alpha virt. eigenvalues --    1.14571   1.15724   1.15953   1.16884   1.17507
 Alpha virt. eigenvalues --    1.18180   1.18638   1.18879   1.19506   1.20339
 Alpha virt. eigenvalues --    1.21068   1.21271   1.21682   1.22388   1.22642
 Alpha virt. eigenvalues --    1.23288   1.23445   1.24044   1.24212   1.24681
 Alpha virt. eigenvalues --    1.25616   1.25877   1.27114   1.27389   1.27821
 Alpha virt. eigenvalues --    1.28098   1.28673   1.29201   1.29776   1.29897
 Alpha virt. eigenvalues --    1.31268   1.31804   1.32735   1.34215   1.34670
 Alpha virt. eigenvalues --    1.34800   1.36102   1.37318   1.37332   1.38240
 Alpha virt. eigenvalues --    1.39418   1.39847   1.41081   1.41292   1.42083
 Alpha virt. eigenvalues --    1.42287   1.43664   1.43817   1.44065   1.44971
 Alpha virt. eigenvalues --    1.45201   1.46354   1.46687   1.46828   1.47400
 Alpha virt. eigenvalues --    1.47624   1.47945   1.48299   1.50481   1.52197
 Alpha virt. eigenvalues --    1.52671   1.53800   1.55312   1.55965   1.57918
 Alpha virt. eigenvalues --    1.59250   1.59734   1.61163   1.62635   1.65585
 Alpha virt. eigenvalues --    1.65600   1.67587   1.68008   1.68461   1.69835
 Alpha virt. eigenvalues --    1.70356   1.73662   1.74217   1.75955   1.76979
 Alpha virt. eigenvalues --    1.78025   1.81142   1.81274   1.82771   1.83131
 Alpha virt. eigenvalues --    1.83726   1.85771   1.86505   1.87133   1.88213
 Alpha virt. eigenvalues --    1.89436   1.90931   1.90942   1.91715   1.93350
 Alpha virt. eigenvalues --    1.94021   1.94522   1.97986   1.98273   1.98673
 Alpha virt. eigenvalues --    1.98934   2.00436   2.01417   2.01836   2.02923
 Alpha virt. eigenvalues --    2.05701   2.05982   2.06761   2.07077   2.08299
 Alpha virt. eigenvalues --    2.09134   2.10232   2.10487   2.11141   2.12784
 Alpha virt. eigenvalues --    2.13679   2.14491   2.14743   2.15525   2.16140
 Alpha virt. eigenvalues --    2.17024   2.18353   2.18865   2.19139   2.19480
 Alpha virt. eigenvalues --    2.19876   2.20145   2.20732   2.21194   2.22294
 Alpha virt. eigenvalues --    2.24246   2.24663   2.25158   2.25765   2.27518
 Alpha virt. eigenvalues --    2.28496   2.30003   2.30933   2.31342   2.31921
 Alpha virt. eigenvalues --    2.33367   2.33502   2.34925   2.35324   2.35996
 Alpha virt. eigenvalues --    2.37497   2.38043   2.39525   2.41166   2.41460
 Alpha virt. eigenvalues --    2.42552   2.42616   2.44133   2.44587   2.45406
 Alpha virt. eigenvalues --    2.46046   2.48078   2.49086   2.50826   2.51256
 Alpha virt. eigenvalues --    2.52104   2.52548   2.53244   2.54183   2.55238
 Alpha virt. eigenvalues --    2.56216   2.56604   2.57830   2.58205   2.60141
 Alpha virt. eigenvalues --    2.60272   2.61400   2.62217   2.62440   2.63193
 Alpha virt. eigenvalues --    2.63474   2.64574   2.65083   2.66423   2.67619
 Alpha virt. eigenvalues --    2.67744   2.68501   2.68818   2.70027   2.70283
 Alpha virt. eigenvalues --    2.73846   2.74287   2.75431   2.76696   2.76764
 Alpha virt. eigenvalues --    2.77872   2.79511   2.80067   2.80222   2.81900
 Alpha virt. eigenvalues --    2.83228   2.85723   2.91023   2.94603   2.95240
 Alpha virt. eigenvalues --    2.96587   2.99829   3.00828   3.01716   3.05953
 Alpha virt. eigenvalues --    3.09605   3.10987   3.14885   3.15355   3.15889
 Alpha virt. eigenvalues --    3.17349   3.18412   3.22743   3.25197   3.27485
 Alpha virt. eigenvalues --    3.32440   3.32840   3.35385   3.36103   3.38928
 Alpha virt. eigenvalues --    3.40063   3.47345   3.51148   3.64687   3.66724
 Alpha virt. eigenvalues --    3.70265   3.71028   3.97414   4.03065   4.04094
 Alpha virt. eigenvalues --    4.20431   4.24318   4.29820   4.31596   4.33714
 Alpha virt. eigenvalues --    4.35615   4.35991   4.37139   4.39088   4.40717
 Alpha virt. eigenvalues --    4.42098   4.43044   4.44718   4.47168   4.49699
 Alpha virt. eigenvalues --    4.50691   4.52792   4.56254   4.57606   4.59621
 Alpha virt. eigenvalues --    4.62367   4.70788   4.75087   4.78354   4.80152
 Alpha virt. eigenvalues --    4.88875
          Condensed to atoms (all electrons):
              1          2          3          4          5          6
     1  Si  12.622785   0.330935   0.337565   0.028210   0.114110   0.126985
     2  H    0.330935   0.802835  -0.040470  -0.016618   0.006309   0.012613
     3  H    0.337565  -0.040470   0.801552  -0.028530   0.013261   0.019815
     4  C    0.028210  -0.016618  -0.028530   9.910126  -4.184307   0.455933
     5  C    0.114110   0.006309   0.013261  -4.184307  17.549636  -6.266427
     6  C    0.126985   0.012613   0.019815   0.455933  -6.266427  13.872453
     7  C    0.263412  -0.038201  -0.038416   1.659925  -5.347968   2.264101
     8  C   -0.622624   0.035146   0.028173  -0.053133   0.607653  -1.307787
     9  S    0.032609   0.002256   0.000450   0.189575   0.242046   0.350514
    10  C    0.050349   0.010152   0.011312  -1.128398   2.572362  -2.297661
    11  C   -0.048791   0.003424   0.003816  -0.860660   1.623040  -1.309839
    12  S   -0.039979   0.001495   0.001225  -0.070424  -0.097852  -0.484441
    13  C   -0.016589   0.001236   0.001334  -0.191341   0.169398  -0.943273
    14  C   -0.000457  -0.000092  -0.000106   0.031205  -0.021408   0.119104
    15  S   -0.000427   0.000006   0.000006  -0.002040  -0.008210  -0.036325
    16  C   -0.000016  -0.000002  -0.000002   0.000714   0.003738   0.003868
    17  C   -0.000209   0.000007   0.000008   0.000498  -0.004188   0.021237
    18  Si   0.000001   0.000000   0.000000  -0.000078   0.000048  -0.001418
    19  H    0.000000  -0.000000  -0.000000   0.000001   0.000001   0.000031
    20  H    0.000000  -0.000000  -0.000000   0.000001   0.000002   0.000029
    21  C   -0.000110   0.000003   0.000002   0.000641  -0.004922   0.006410
    22  C   -0.000447   0.000025   0.000018   0.002821  -0.034254  -0.012214
    23  C   -0.000126   0.000012   0.000019  -0.003912  -0.011229   0.056551
    24  C   -0.000001   0.000000   0.000000  -0.000071  -0.000389  -0.000242
    25  N   -0.000000   0.000000   0.000000   0.000000   0.000001   0.000004
    26  C    0.000000   0.000000   0.000000  -0.000000  -0.000002  -0.000003
    27  N   -0.000000   0.000000   0.000000  -0.000000  -0.000000   0.000000
    28  C   -0.000000   0.000000   0.000000  -0.000000  -0.000003  -0.000011
    29  N   -0.000000   0.000000   0.000000  -0.000000   0.000011  -0.000021
    30  C    0.007035  -0.000481  -0.000503   0.171230  -0.207274   0.303098
    31  N   -0.000186   0.000006   0.000007  -0.009187  -0.019409  -0.002614
    32  C    0.009167  -0.000289  -0.000315   0.085772   0.234001  -0.230616
    33  C   -0.007008   0.000276   0.000292  -0.060590  -0.305328   0.287390
    34  N   -0.008345   0.000352   0.000342   0.193280   0.123667  -0.080711
    35  C    0.045422  -0.002663  -0.002653   0.097371  -0.730759   1.053705
    36  H   -0.050247   0.002816   0.002630   0.467741  -0.252760   0.123807
    37  H   -0.025151   0.000377   0.000200   0.057930   0.095675  -0.004067
    38  H   -0.017376  -0.000227   0.000260  -0.009711   0.001293  -0.004014
    39  H   -0.000009   0.000000   0.000000   0.000002   0.000008   0.000266
    40  H    0.000291  -0.000024  -0.000021   0.001209  -0.011906   0.013133
    41  H    0.000000  -0.000000  -0.000000  -0.000000  -0.000000  -0.000000
    42  H    0.000000  -0.000000  -0.000000  -0.000000  -0.000000  -0.000001
    43  H   -0.000002  -0.000002  -0.000002   0.001876  -0.002981   0.006389
    44  H    0.000585  -0.000001   0.000002  -0.029003   0.019076  -0.013952
              7          8          9         10         11         12
     1  Si   0.263412  -0.622624   0.032609   0.050349  -0.048791  -0.039979
     2  H   -0.038201   0.035146   0.002256   0.010152   0.003424   0.001495
     3  H   -0.038416   0.028173   0.000450   0.011312   0.003816   0.001225
     4  C    1.659925  -0.053133   0.189575  -1.128398  -0.860660  -0.070424
     5  C   -5.347968   0.607653   0.242046   2.572362   1.623040  -0.097852
     6  C    2.264101  -1.307787   0.350514  -2.297661  -1.309839  -0.484441
     7  C   19.211333  -8.021185   1.203343  -3.198534  -0.794961  -0.213249
     8  C   -8.021185  13.545507  -1.425449   1.185691   0.741275   0.398599
     9  S    1.203343  -1.425449  17.366613  -0.702957   0.130463  -0.822107
    10  C   -3.198534   1.185691  -0.702957   9.228700  -0.972492   0.164599
    11  C   -0.794961   0.741275   0.130463  -0.972492  13.332926  -0.385676
    12  S   -0.213249   0.398599  -0.822107   0.164599  -0.385676  19.765181
    13  C    0.276427  -0.197526  -0.401372   1.287961  -3.663049   0.800185
    14  C   -0.074624   0.062858  -0.140469  -0.296058   0.658067  -0.309029
    15  S    0.002688  -0.000204  -0.053998   0.030648  -0.700440  -0.755720
    16  C   -0.003692   0.000494   0.009805  -0.031741   0.293298   0.055037
    17  C    0.018254  -0.015535   0.038518   0.036339   0.023689   0.401571
    18  Si  -0.001293   0.001112  -0.005482  -0.001611  -0.029797  -0.040152
    19  H    0.000023  -0.000013   0.000149   0.000082   0.001177   0.000942
    20  H    0.000022  -0.000014   0.000137   0.000100   0.001077   0.000661
    21  C    0.007974   0.004358   0.032978  -0.027918   0.166371  -0.397896
    22  C    0.009720   0.024914  -0.135689  -0.005979  -0.341405  -0.898917
    23  C    0.057852  -0.056519   0.178042   0.038023   0.038587   0.741494
    24  C    0.000437  -0.000292   0.000089   0.007036  -0.064967   0.080530
    25  N   -0.000000  -0.000000  -0.000004  -0.000055   0.001243   0.002082
    26  C    0.000001  -0.000001   0.000005   0.000066  -0.001230   0.002201
    27  N    0.000000  -0.000000  -0.000000   0.000002  -0.000043   0.000015
    28  C    0.000001  -0.000000  -0.000043   0.000046  -0.001911  -0.006458
    29  N    0.000003  -0.000002  -0.000018   0.000091  -0.002089  -0.003018
    30  C    0.003024  -0.023220   0.016837   0.014143  -0.920299  -0.532212
    31  N    0.002182  -0.001139  -0.008150   0.003761  -0.095856  -0.050704
    32  C   -0.086315   0.013635   0.034133   0.128986  -0.166259  -0.001849
    33  C    0.128301  -0.027915  -0.049062  -0.218834   0.164318   0.091887
    34  N    0.051870  -0.003109   0.004378  -0.141299  -0.266645   0.097462
    35  C   -0.261101   0.074787  -0.024616  -0.001578  -0.638970  -0.663099
    36  H    0.052901  -0.002642  -0.000301  -0.014950  -0.025624   0.001148
    37  H    0.245377  -0.005116   0.000948  -0.153994   0.013223   0.037127
    38  H   -0.171448   0.460715  -0.062510   0.060140   0.007609   0.002528
    39  H    0.000284  -0.000505   0.001541  -0.000130   0.002607   0.010631
    40  H    0.022931  -0.007822   0.033246  -0.016819   0.168909  -0.138798
    41  H    0.000000   0.000000   0.000000   0.000001  -0.000013   0.000054
    42  H    0.000000   0.000000  -0.000001   0.000003  -0.000104  -0.000131
    43  H    0.000067   0.000059   0.000338  -0.002555  -0.005864   0.000276
    44  H   -0.003063   0.000043  -0.002004   0.006188   0.026273  -0.002304
             13         14         15         16         17         18
     1  Si  -0.016589  -0.000457  -0.000427  -0.000016  -0.000209   0.000001
     2  H    0.001236  -0.000092   0.000006  -0.000002   0.000007   0.000000
     3  H    0.001334  -0.000106   0.000006  -0.000002   0.000008   0.000000
     4  C   -0.191341   0.031205  -0.002040   0.000714   0.000498  -0.000078
     5  C    0.169398  -0.021408  -0.008210   0.003738  -0.004188   0.000048
     6  C   -0.943273   0.119104  -0.036325   0.003868   0.021237  -0.001418
     7  C    0.276427  -0.074624   0.002688  -0.003692   0.018254  -0.001293
     8  C   -0.197526   0.062858  -0.000204   0.000494  -0.015535   0.001112
     9  S   -0.401372  -0.140469  -0.053998   0.009805   0.038518  -0.005482
    10  C    1.287961  -0.296058   0.030648  -0.031741   0.036339  -0.001611
    11  C   -3.663049   0.658067  -0.700440   0.293298   0.023689  -0.029797
    12  S    0.800185  -0.309029  -0.755720   0.055037   0.401571  -0.040152
    13  C   12.498594  -1.647596  -0.401406   0.482489  -0.000239   0.030299
    14  C   -1.647596  12.943674  -0.421534  -2.882933  -3.113401   0.379685
    15  S   -0.401406  -0.421534  20.730025  -1.203075  -1.136087  -0.208930
    16  C    0.482489  -2.882933  -1.203075  14.940462   1.104743  -0.737263
    17  C   -0.000239  -3.113401  -1.136087   1.104743  10.147037  -0.277857
    18  Si   0.030299   0.379685  -0.208930  -0.737263  -0.277857  12.667903
    19  H    0.001889  -0.034571   0.012020   0.037881  -0.001693   0.345712
    20  H    0.001857  -0.033595   0.011650   0.034557  -0.002161   0.349145
    21  C   -0.254881  -0.977767   0.475965   0.768197   0.634159  -0.233127
    22  C    0.736123   3.187941   0.859566  -4.988549  -4.321081   0.937600
    23  C   -0.439599  -2.722308  -1.384091  -1.769116   3.637601  -0.047692
    24  C   -0.328578   1.191893  -0.828672   0.488472  -0.675063  -0.115303
    25  N    0.020064  -0.032498   0.184213  -0.083657  -0.151320   0.084103
    26  C   -0.012739   0.119200  -0.157265   0.051784  -0.100063   0.020057
    27  N   -0.001803   0.009403   0.068388  -0.061540  -0.032534  -0.001761
    28  C   -0.030017  -0.065923  -0.056160   0.102261   0.026577  -0.025783
    29  N   -0.000076   0.071252   0.608774  -0.446413  -0.159310  -0.001789
    30  C   -0.390907   0.383793  -0.627365   0.084123   0.093962   0.030333
    31  N   -0.365716  -0.130205   0.398477  -0.016270  -0.029307  -0.000094
    32  C    0.328309  -0.046364  -0.099449  -0.032070  -0.007135  -0.004113
[...]
 3282,0.00000183,0.00001307,-0.00002808,0.00000248,0.00002047,0.0000116
 1,-0.00000256,0.00004558,0.00007080,-0.00001248,0.00011353,0.00001118,
 -0.00003749,-0.00037181,0.00012781,0.00003191,0.00002439,-0.00005418,0
 .00000055,-0.00023317,-0.00009609,0.00003111,0.00005034,0.00001358,-0.
 00001750,0.00005077,0.00001107,-0.00000225,0.00007833,0.00001860,-0.00
 001059,-0.00004253,-0.00003053,0.00000571,-0.00011153,0.00007279,0.000
 01912,0.00300384,0.00088189,0.00100181,-0.00778161,0.00800767,0.001001
 84,-0.32262328,0.04020978,0.03119268,-0.01933316,-0.00422163,0.0029626
 2,0.00102532,-0.00372582,0.00128274,-0.00031367,0.00045447,-0.00068603
 ,0.00000247,-0.00001921,-0.00000105,-0.00002547,0.00001533,0.00000084,
 0.00000058,-0.00000365,-0.00000097,0.00001620,0.00000542,-0.00000118,-
 0.00003678,-0.00000842,0.00000406,0.00003482,0.00007714,0.00000429,-0.
 00000109,-0.00000052,-0.00000104,0.00000140,-0.00000122,0.00000193,0.0
 0000039,0.00000189,-0.00000446,-0.00000531,0.00001658,0.00000071,0.000
 00131,0.00000788,-0.00000146,0.34719926,-0.00000286,0.00000773,-0.0000
 0068,0.00000059,-0.00000213,0.00000052,0.00000110,-0.00000194,-0.00000
 019,0.00000289,-0.00000314,0.00000165,-0.00000243,-0.00000095,-0.00000
 197,-0.00000545,0.00000191,-0.00000111,-0.00000021,-0.00000439,-0.0000
 0329,0.00000357,-0.00000698,0.00000020,0.00000123,0.00000149,-0.000000
 47,0.00000493,0.00000486,0.00000485,0.00001463,-0.00000319,-0.00000092
 ,0.00000816,0.00000045,-0.00000051,-0.00004770,-0.00002087,0.00000577,
 0.00013519,-0.00000440,-0.00001577,-0.00002441,-0.00031869,0.00000184,
 0.00113104,0.00048006,-0.00015397,-0.00008016,-0.00007795,0.00001387,0
 .00044570,-0.00003489,-0.00005400,-0.00008644,0.00002752,0.00003130,-0
 .00009420,0.00002437,-0.00001345,-0.00010964,-0.00005100,0.00001722,0.
 00001217,0.00005964,-0.00000641,-0.00001539,-0.00002351,0.00000664,0.0
 0192865,-0.00510150,0.00034365,0.03548854,-0.01161097,-0.00376007,0.04
 036827,-0.05793435,-0.00455263,-0.03230953,0.00159796,0.00395616,-0.00
 377571,-0.00389476,0.00094601,0.00024071,0.00110607,-0.00026718,0.0000
 0791,0.00001340,-0.00000023,0.00003318,-0.00000638,0.00000076,-0.00000
 531,-0.00001232,-0.00000025,-0.00000160,0.,-0.00000002,0.00001206,0.,-
 0.00000116,-0.00001045,-0.00001381,-0.00000138,0.00000030,0.00000007,0
 .00000015,-0.00000033,0.00000038,-0.00000075,0.00000018,-0.00000054,0.
 00000100,0.00000238,-0.00000676,0.00000018,-0.00001365,-0.00000780,0.0
 0000244,-0.04208533,0.07557507,-0.00000167,0.00000379,0.00000104,0.000
 00039,-0.00000097,-0.00000008,0.00000063,-0.00000095,-0.00000037,0.000
 00124,-0.00000098,0.00000019,-0.00000105,-0.00000015,-0.00000090,-0.00
 000384,0.00000184,-0.00000023,-0.00000056,-0.00000286,-0.00000320,0.00
 000283,-0.00000351,0.00000081,0.00000012,0.00000121,-0.00000017,0.0000
 0349,-0.00000028,0.00000241,0.00000605,0.00000387,0.00000040,-0.000000
 77,0.00000403,0.00000723,0.00000452,-0.00000329,0.00000436,-0.00001336
 ,-0.00000884,0.00000224,-0.00003794,0.00000676,-0.00020919,0.00000079,
 -0.00003459,-0.00006523,0.00000195,0.00001589,0.00001250,0.00000682,0.
 00000983,-0.00003342,0.00000569,0.00000121,-0.00001932,-0.00001649,-0.
 00000801,-0.00001783,-0.00000466,-0.00000044,0.00000031,0.00000505,0.0
 0000299,0.00000256,0.00002541,-0.00000791,0.00006129,0.00096809,0.0004
 6890,0.01148979,0.00006916,-0.00046890,0.00287324,0.03118916,-0.004524
 69,-0.05394075,0.00390644,0.00058709,0.00374337,0.00129420,0.00094274,
 0.01053386,-0.00068616,-0.00030104,-0.00583906,-0.00000407,-0.00000021
 ,-0.00001057,0.00000120,0.00000057,0.00000726,0.00000016,0.00000043,-0
 .00000071,-0.00000139,-0.00000019,0.00000494,0.00000321,0.00000006,-0.
 00000239,-0.00000459,-0.00000890,-0.00000321,-0.00000005,-0.00000006,0
 .00000022,-0.00000020,-0.00000008,0.00000009,-0.00000007,-0.00000022,0
 .00000057,0.00000112,-0.00000109,0.00000625,0.00000032,-0.00000136,-0.
 00000484,-0.03679424,0.00338477,0.03185747,-0.00000967,0.00001793,-0.0
 0000102,0.00000191,-0.00000478,0.00000100,0.00000326,-0.00000445,-0.00
 000060,0.00000710,-0.00000591,0.00000273,-0.00000512,-0.00000213,-0.00
 000365,-0.00001224,0.00000471,-0.00000180,0.00000133,-0.00000836,-0.00
 000618,0.00000507,-0.00001124,-0.00000046,0.00000455,0.00000268,-0.000
 00089,0.00000783,0.00000023,0.00000933,0.00002779,0.00002150,-0.000000
 67,-0.00000892,0.00001438,0.00000036,0.00001226,-0.00001179,-0.0000004
 6,-0.00006572,-0.00002402,0.00001789,0.00002374,-0.00001840,-0.0000098
 7,0.00054956,0.00002565,-0.00007412,-0.00012081,0.00023235,-0.00001204
 ,0.00000128,0.00007253,-0.00002405,0.00000101,-0.00000544,0.00000374,-
 0.00000197,-0.00001607,0.00000385,-0.00000670,0.00000202,0.00000127,0.
 00000675,0.00001755,0.00000303,0.00011411,-0.00000253,-0.00001944,0.00
 062473,0.00444638,0.00116469,0.00065596,-0.00079624,-0.00075986,-0.004
 96221,0.00260171,0.00180112,-0.02763665,-0.02324290,0.00460547,-0.1593
 9705,-0.13522486,0.01761182,0.01215359,0.01416474,-0.00157215,-0.00000
 303,0.00000435,-0.00000124,0.00000123,-0.00001049,0.00000002,-0.000001
 14,0.00001656,0.00000098,-0.00001236,-0.00000665,0.00000121,0.00001972
 ,0.00000259,-0.00000211,-0.00001956,-0.00003859,-0.00000201,0.00000049
 ,0.00000037,0.00000057,-0.00000082,0.00000060,-0.00000109,-0.00000030,
 -0.00000096,0.00000234,0.00000076,-0.00000398,0.00000095,0.00000642,0.
 00000322,-0.00000056,-0.00073050,-0.00117710,0.00007272,0.17876622,-0.
 00001848,0.00002549,-0.00000270,0.00000374,-0.00000687,0.00000175,0.00
 000595,-0.00000649,-0.00000076,0.00001400,-0.00000770,0.00000561,-0.00
 001014,-0.00000709,-0.00000827,-0.00002156,0.00000741,-0.00000369,0.00
 000388,-0.00001349,-0.00001038,0.00000983,-0.00002002,-0.00000163,0.00
 000770,0.00000524,-0.00000105,0.00001631,0.00000461,0.00001705,0.00006
 100,0.00002955,-0.00000088,-0.00000955,0.00003229,-0.00000055,-0.00004
 483,-0.00000432,0.00000596,-0.00000954,-0.00008971,0.00001026,-0.00016
 257,0.00006119,0.00001153,-0.00114114,-0.00059661,0.00015728,0.0002190
 4,-0.00017518,-0.00002552,0.00014556,0.00009291,-0.00002878,-0.0000323
 0,-0.00001253,0.00001059,-0.00003472,-0.00001592,0.00000093,-0.0000450
 0,-0.00001644,0.00000676,0.00006750,-0.00000098,-0.00000561,0.00001055
 ,-0.00012880,0.00000153,0.00340013,-0.00278096,0.00006673,-0.00057307,
 0.00006623,-0.00013261,0.00269225,0.00210910,-0.00002876,0.00483429,0.
 01007388,-0.00077410,-0.13533453,-0.22233686,0.02202833,-0.01332680,-0
 .03151393,0.00276584,-0.00001552,0.00002632,0.00000102,0.00003179,-0.0
 0000531,0.00000002,0.00001256,-0.00002833,-0.00000207,-0.00000910,0.00
 000762,0.00000218,0.00002920,0.00001596,-0.00000484,-0.00002625,-0.000
 09027,-0.00000653,0.00000119,0.00000016,0.00000157,-0.00000164,0.00000
 118,-0.00000073,-0.00000090,-0.00000175,0.00000469,0.00000253,-0.00001
 390,0.00000030,-0.00000803,-0.00001628,0.00000195,0.00027526,0.0002420
 2,-0.00005686,0.13896276,0.24508668,0.00000229,-0.00000255,0.00000240,
 -0.00000038,0.00000074,-0.00000064,-0.00000069,0.00000062,-0.00000039,
 -0.00000163,0.00000083,-0.00000125,0.00000151,0.00000143,0.00000039,0.
 00000121,0.00000028,0.00000129,-0.00000149,0.00000059,-0.00000128,0.00
 000062,0.00000089,0.00000072,-0.00000155,-0.00000010,-0.00000022,-0.00
 000105,-0.00000073,-0.00000537,-0.00000437,-0.00000141,0.00000131,0.00
 000189,-0.00000383,0.00000843,0.00000388,0.00000200,0.00001380,0.00001
 399,0.00001119,0.00004844,-0.00000503,-0.00000660,-0.00008430,-0.00004
 011,0.00001765,-0.00006723,-0.00001279,-0.00002471,-0.00015336,-0.0000
 2658,-0.00002140,-0.00016784,0.00001626,0.00004850,0.00002208,-0.00000
 743,-0.00004169,0.00002919,0.00000317,0.00000172,0.00001642,0.00000130
 ,0.00000019,0.00002060,-0.00001749,0.00000143,-0.00002457,0.00119500,-
 0.00005670,0.01144708,-0.00076389,-0.00011061,-0.00582694,0.00180550,-
 0.00001097,0.01061430,0.00363996,0.00258982,0.00370914,0.01762951,0.02
 201556,-0.05341738,-0.00064282,-0.00053241,0.00314033,-0.00000044,0.00
 000004,-0.00000734,-0.00000208,0.00000070,-0.00000040,-0.00000086,0.00
 000128,-0.00000047,0.00000095,-0.00000070,-0.00000253,-0.00000199,-0.0
 0000035,-0.00000048,0.00000255,0.00000517,0.00000523,-0.00000040,-0.00
 000015,-0.00000003,0.00000017,-0.00000037,0.00000071,-0.00000005,0.000
 00010,-0.00000025,0.00000061,0.00000129,0.00000584,-0.00000036,0.00000
 026,0.00000191,0.00002446,0.00011768,-0.00045833,-0.02281119,-0.024004
 43,0.03112546,-0.00003793,0.00000221,-0.00001121,0.00000710,-0.0000020
 6,0.00000360,0.00000853,0.00000033,0.00000324,0.00002279,0.00002686,0.
 00002170,-0.00000588,-0.00003878,-0.00004121,-0.00003804,-0.00000696,-
 0.00001344,0.00002189,-0.00002551,-0.00000386,0.00000900,-0.00001422,-
 0.00001055,0.00002181,-0.00000151,0.00002219,-0.00001344,-0.00005856,-
 0.00000353,0.00017446,-0.00000411,-0.00016485,-0.00027700,-0.00028178,
 -0.00009208,0.00025881,-0.00105823,0.00002953,0.00008940,-0.00013820,0
 .00004589,0.00004249,-0.00005710,0.00002592,-0.00010120,0.00013051,0.0
 0000301,-0.00002282,0.00003335,-0.00000389,0.00001341,-0.00004347,-0.0
 0000091,-0.00000642,0.00000924,0.00000204,-0.00000542,0.00000927,-0.00
 000143,-0.00001437,0.00001692,-0.00000290,0.00000967,-0.00000487,0.000
 00512,0.00001991,0.00006322,-0.00001063,0.00001334,-0.00021259,-0.0000
 0493,-0.00004610,0.00007641,0.00000555,-0.00000147,-0.00005553,0.00000
 517,0.00003140,0.00004676,-0.00000752,-0.00003368,-0.00002944,0.000007
 07,0.00005836,0.00010486,-0.00001254,-0.00358444,-0.00062013,0.0020290
 4,-0.02464456,-0.03365784,0.00088475,-0.08997972,-0.09081101,0.0031134
 4,0.01214218,0.01673220,-0.00027714,-0.00187069,0.00420571,0.00072958,
 -0.00170738,-0.00028302,0.00033778,0.00000267,0.00000112,-0.00000027,0
 .00000734,0.00000671,0.00003405,0.00000528,-0.00000428,0.00000427,-0.0
 0000007,-0.00000006,0.00000272,0.00001007,0.00000601,-0.00000310,-0.00
 000069,0.00000183,-0.00000032,-0.00000381,0.00001114,0.00000026,0.1094
 2292,-0.00002630,0.00009940,0.00000421,0.00000645,-0.00002563,0.000002
 70,0.00001263,-0.00002669,-0.00000740,0.00001955,-0.00007473,-0.000013
 87,-0.00002377,0.00002963,0.00004818,-0.00002932,0.00003981,-0.0000120
 8,-0.00000793,-0.00002020,-0.00001073,0.00001347,-0.00005598,-0.000015
 38,0.00001786,-0.00000137,-0.00000262,0.00001758,0.00001986,0.00005031
 ,0.00001946,-0.00004171,0.00007091,-0.00007670,0.00019307,0.00003840,-
 0.00038181,0.00000030,0.00003373,0.00014193,-0.00004325,-0.00003967,0.
 00001955,0.00008553,0.00000526,0.00003281,-0.00000240,-0.00002018,-0.0
 0009194,-0.00005752,0.00002186,0.00005663,-0.00000630,-0.00000472,-0.0
 0001249,0.00000041,0.00000446,-0.00001322,0.00000055,-0.00000104,-0.00
 003996,-0.00000267,0.00000767,0.00002203,0.00000982,-0.00000074,-0.000
 11901,0.00001324,0.00000891,0.00002037,-0.00010870,0.00000492,-0.00005
 144,0.00005092,0.00000325,0.00000853,-0.00003356,-0.00000106,-0.000012
 71,0.00003283,0.00000152,0.00000967,-0.00004295,-0.00000080,0.00000152
 ,0.00007142,-0.00000289,0.00214169,0.00281215,-0.00067292,-0.00766562,
 0.00492751,0.00140917,-0.09244207,-0.29898831,0.00163217,-0.01379958,-
 0.01425731,0.00105380,0.00360747,-0.00452112,-0.00070794,0.00125766,0.
 00109935,-0.00020285,0.00000366,-0.00000189,0.00000745,-0.00002714,-0.
 00000967,-0.00007750,-0.00000064,-0.00000331,0.00000587,0.00000046,-0.
 00000500,-0.00000107,0.00000240,0.00000615,-0.00000172,-0.00000293,0.0
 0000166,0.00000037,0.00000176,0.00000315,-0.00000032,0.10671712,0.3087
 5765,0.00000374,0.00000332,0.00000496,-0.00000085,0.,-0.00000140,-0.00
 000156,-0.00000028,-0.00000103,-0.00001777,0.00001890,-0.00000549,0.00
 004153,-0.00003356,0.00002598,-0.00002652,-0.00001066,-0.00000570,-0.0
 0001301,-0.00000083,-0.00000408,0.00002067,-0.00002443,-0.00000344,-0.
 00000352,0.00002716,0.00005058,0.00009583,-0.00005331,0.00001655,-0.00
 016785,0.00007643,-0.00108991,0.00000890,0.00014126,-0.00081374,0.0000
 6511,0.00013244,0.00057283,-0.00005213,0.00004859,0.00040482,0.0000465
 5,0.00007111,0.00018446,-0.00001071,-0.00008852,-0.00000582,-0.0000455
 2,0.00005166,-0.00006834,0.00000136,0.00001488,-0.00001243,-0.00000739
 ,-0.00000381,-0.00000137,0.00000409,-0.00000152,-0.00000227,0.00000144
 ,-0.00000302,-0.00002564,0.00000457,0.00000163,0.00000899,0.00005524,-
 0.00002562,-0.00001102,-0.00001823,0.00002255,-0.00007687,0.00000901,-
 0.00000309,0.00002130,0.00000143,0.00000585,0.00002926,-0.00000240,-0.
 00000453,-0.00001783,0.00000093,0.00000368,0.00001951,-0.00001139,-0.0
 0001244,-0.00003803,0.00222488,-0.00039087,0.01293826,0.00161686,0.004
 74375,-0.00744058,0.00329723,0.00130055,-0.03832413,-0.00161416,-0.002
 65463,0.00509950,0.00079282,-0.00102953,0.00290948,0.00030382,0.000113
 31,0.00070729,-0.00000243,0.00000148,-0.00000032,0.00000949,-0.0000068
 9,0.00000749,0.00000419,-0.00000245,-0.00000248,0.00000329,0.00000003,
 0.00002368,-0.00000335,-0.00000045,-0.00000031,-0.00000026,0.00000009,
 -0.00000347,0.00000054,-0.00000030,0.00000489,-0.00643916,-0.00259336,
 0.02625241,-0.00002653,0.00006009,0.00000065,0.00000809,-0.00001298,0.
 00000261,0.00001198,-0.00001826,-0.00000578,0.00002676,-0.00003662,-0.
 00000444,-0.00003009,-0.00004506,0.00003199,0.00004057,0.00001880,-0.0
 0001815,0.00002676,-0.00000736,0.00003300,-0.00001326,-0.00001767,-0.0
 0002126,-0.00000844,-0.00001537,0.00002621,-0.00004692,0.00012142,0.00
 008437,-0.00041478,-0.00015168,0.00010608,0.00004430,-0.00018382,-0.00
 015672,-0.00003981,0.00009648,-0.00016216,0.00004371,0.00000776,-0.000
 00517,0.00014271,-0.00000135,-0.00000351,-0.00001408,0.00009110,-0.000
 00847,-0.00008002,-0.00004424,0.00001009,0.00009471,-0.00003755,-0.000
 00766,-0.00002164,0.00000687,0.00000716,-0.00002231,0.00000703,-0.0000
 0273,-0.00004817,-0.00001470,0.00000917,-0.00000619,0.00002714,-0.0000
 0348,-0.00003110,0.00004388,0.00001229,0.00005904,-0.00023701,0.000002
 65,-0.00009738,0.00009756,0.00000729,0.00002347,-0.00006855,-0.0000007
 3,-0.00001574,0.00006582,-0.00000023,0.00000787,-0.00008110,0.00000190
 ,0.00001945,0.00014383,-0.00000796,0.00111673,0.00036392,0.00000578,-0
 .00215592,0.00364170,0.00085444,-0.01114477,-0.00668659,0.00196577,-0.
 32572995,-0.01950426,0.03933692,-0.00907223,-0.01246780,-0.00021195,0.
 00291097,0.00013778,0.00153538,0.00000449,-0.00000794,0.00001085,-0.00
 004149,-0.00004985,-0.00003423,0.00000885,-0.00000284,-0.00000357,-0.0
 0000185,-0.00000579,0.00000088,-0.00000015,-0.00000031,-0.00000223,-0.
 00000520,0.00000262,0.00000067,0.00000191,0.00000750,-0.00000041,0.000
 00230,0.00067229,-0.00017530,0.34447334,-0.00008051,-0.00002235,-0.000
 00781,0.00001812,0.00000165,0.00000231,0.00002033,0.00000132,-0.000001
 45,0.00008622,-0.00000634,-0.00000355,-0.00001511,-0.00001795,-0.00004
 034,-0.00007203,0.00002628,-0.00002266,0.00004320,-0.00001091,0.000021
 93,-0.00000458,-0.00004095,-0.00002899,0.00003936,-0.00000216,0.000043
 62,0.00002566,0.00004664,-0.00001417,-0.00091860,0.00065646,0.00013270
 ,-0.00039679,-0.00014717,0.00003288,0.00007481,0.00022128,0.00003752,-
 0.00009999,-0.00011586,0.00001276,-0.00017691,-0.00003034,0.00000472,-
 0.00006031,0.00009189,0.00001706,0.00008334,0.00002714,-0.00001502,-0.
 00002895,-0.00002996,0.00000265,0.00000462,0.00000813,-0.00000109,0.00
 000427,0.00000785,-0.00000053,0.00000614,0.00003588,-0.00000184,-0.000
 01252,-0.00003580,0.00000462,0.00001732,0.00001891,0.00000365,0.000016
 82,0.00000054,-0.00000287,-0.00000046,-0.00000887,0.00000046,0.0000038
 8,-0.00000396,-0.00000011,0.00000231,-0.00000157,-0.00000048,0.0000026
 7,0.00000916,-0.00000059,0.00000691,-0.00000903,-0.00000019,-0.0011849
 8,-0.00181337,0.00003936,0.00452287,-0.00430712,-0.00077804,0.02380427
 ,0.00911353,-0.00312959,-0.01806675,-0.05701876,0.00189810,-0.03823400
 ,-0.01104388,0.00530839,-0.00265455,-0.00372483,-0.00017645,0.00000305
 ,-0.00001202,0.00003187,-0.00008566,0.00002386,-0.00001147,0.00000625,
 -0.00000290,0.00000342,0.00000005,0.00000219,-0.00000008,0.00000678,0.
 00002430,-0.00000380,0.00000052,-0.00000144,0.00000001,0.00000031,-0.0
 0000124,0.00000008,-0.00079252,0.00007581,0.00016540,0.03408512,0.0680
 1597,0.00003641,0.00002703,0.00002717,-0.00000742,0.00000110,-0.000007
 26,-0.00000125,-0.00000684,-0.00000590,0.00000600,0.00005186,0.0000110
 8,-0.00005210,-0.00005335,-0.00008542,0.00010086,0.00000765,-0.0000582
 3,0.00003045,-0.00002600,-0.00000305,0.00000320,0.00006172,0.00002442,
 -0.00007388,-0.00000091,0.00000195,-0.00002912,0.00022599,0.00044077,0
 .00012055,-0.00030370,0.00045616,-0.00011500,0.00005371,-0.00084356,-0
 .00004543,0.00005039,-0.00112521,-0.00000748,-0.00000387,0.00000803,-0
 .00002936,-0.00001609,-0.00004142,-0.00000426,-0.00000185,0.00003121,0
 .00001149,0.00000041,-0.00000547,-0.00000899,0.00000995,0.00000396,0.0
 0000186,-0.00000305,-0.00000183,0.00000246,-0.00000031,-0.00000055,0.0
 0001084,-0.00000377,0.00000219,0.00000666,0.00000497,0.00000013,-0.000
 00069,0.00000215,0.00004662,-0.00000377,0.00002333,0.00000420,0.000008
 66,-0.00001106,-0.00000759,-0.00000261,0.00000678,-0.00000095,0.000001
 88,-0.00000695,-0.00000036,-0.00000039,0.00000909,0.00000055,-0.000000
 80,-0.00001554,0.00000075,-0.00018292,-0.00013795,0.00089343,0.0009350
 1,-0.00079158,0.00301029,0.00275549,0.00124261,0.00452852,0.03964631,0
 .00192264,-0.04369648,-0.00115474,0.00156621,-0.00733489,0.00138092,-0
 .00033542,0.01316223,-0.00001272,0.00000539,-0.00000782,0.00008739,-0.
 00000426,0.00013042,0.00000631,0.00000249,-0.00001332,0.00000078,0.000
 00116,0.00000476,-0.00000064,-0.00000631,-0.00001222,0.00000069,-0.000
 00035,0.00000085,-0.00000017,-0.00000086,0.00000064,-0.00021046,-0.000
 02424,-0.00132654,-0.04321001,-0.00352237,0.03178776\\-0.00000202,0.00
 000190,0.00000229,0.00000141,-0.00000128,-0.00000185,-0.00000023,0.000
 00004,-0.00000210,0.00000018,0.00000007,-0.00000196,0.00000487,0.00000
 306,0.00000170,-0.00000342,-0.00000587,-0.00000190,0.00000344,-0.00000
 056,-0.00000165,-0.00000049,0.00000205,-0.00000108,-0.00000003,-0.0000
 0091,-0.00000034,0.00000080,0.00000503,-0.00000238,-0.00000135,-0.0000
 0360,-0.00000143,-0.00000012,0.00000451,-0.00000119,-0.00000449,-0.000
 00575,0.00000036,0.00000120,-0.00000112,0.00000063,0.00000051,0.000000
 34,0.00000015,-0.00000180,-0.00000042,0.00000263,0.00000040,-0.0000001
 3,-0.00000136,0.00000061,-0.00000348,-0.00000166,-0.00000123,-0.000000
 30,-0.00000096,-0.00000045,0.00000121,-0.00000046,0.00000133,-0.000000
 75,-0.00000178,-0.00000119,-0.00000088,-0.00000048,-0.00000097,0.00000
 185,-0.00000008,-0.00000131,-0.00000063,-0.00000260,0.00000066,-0.0000
 0110,-0.00000019,0.00000026,0.00000147,0.00000685,-0.00000094,-0.00000
 093,-0.00000005,-0.00000048,0.00000042,0.00000268,0.00000030,-0.000000
 13,0.00000233,0.00000325,0.00000999,0.00000201,-0.00000574,-0.00000572
 ,0.00000147,0.00001128,-0.00000600,0.00000149,-0.00000271,0.00001272,0
 .00000315,-0.00000411,-0.00000372,0.00000179,0.00000547,-0.00000076,-0
 .00000102,-0.00000108,-0.00000099,0.00000152,-0.00000142,-0.00000018,-
 0.00000077,0.00000116,0.00000091,-0.00000321,-0.00000059,-0.00000018,-
 0.00000177,0.00000114,-0.00000011,-0.00000191,-0.00000073,-0.00000058,
 -0.00000147,-0.00000040,0.00000002,0.00000223,-0.00000106,0.00000081,0
 .00000121,0.00000007,-0.00000033,0.00000117\\\@


 CHARLIE BROWN..'I CAN'T GET THAT STUPID KITE IN THE   
 AIR... I CAN'T... I C A N N O T...'                          
 LUCY..'OH COME NOW CHARLIE BROWN...THAT'S NO WAY TO TALK...  
 THE TROUBLE WITH YOU IS YOU DON'T BELIEVE IN YOURSELF... YOU 
 DON'T BELIEVE IN YOUR OWN ABILITIES...  YOU'VE GOT TO SAY TO 
 YOURSELF...'I BELIEVE I CAN FLY THIS KITE.'... GO AHEAD SAY  
 IT....'
 CHARLIE BROWN..'I BELIEVE THAT I CAN FLY THIS STUPID  
 KITE.....I BELIEVE THAT I CAN FLY THIS KITE........          
 I  A C T U A L L Y  B E L I E V E  T H A T  I  C A N ******' 
 LUCY..'I'LL BET YOU TEN-TO-ONE YOU'RE WRONG.......'    SCHULZ
 Job cpu time:  1 days  1 hours 47 minutes 13.8 seconds.
 File lengths (MBytes):  RWF=   2222 Int=      0 D2E=      0 Chk=     35 Scr=      1
 Normal termination of Gaussian 09 at Mon Dec 30 05:12:35 2013.
