 Entering Gaussian System, Link 0=g09
 Initial command:
 /opt/gaussian/g09/l1.exe /panfs/panfs.cluster/home/shuo/Gau-19369.inp -scrdir=/panfs/panfs.cluster/home/shuo/
 Default is to use a total of  12 processors:
                               12 via shared-memory
                                1 via Linda
 Entering Link 1 = /opt/gaussian/g09/l1.exe PID=     19370.
  
 Copyright (c) 1988,1990,1992,1993,1995,1998,2003,2009,2011,
            Gaussian, Inc.  All Rights Reserved.
  
 This is part of the Gaussian(R) 09 program.  It is based on
 the Gaussian(R) 03 system (copyright 2003, Gaussian, Inc.),
 the Gaussian(R) 98 system (copyright 1998, Gaussian, Inc.),
 the Gaussian(R) 94 system (copyright 1995, Gaussian, Inc.),
 the Gaussian 92(TM) system (copyright 1992, Gaussian, Inc.),
 the Gaussian 90(TM) system (copyright 1990, Gaussian, Inc.),
 the Gaussian 88(TM) system (copyright 1988, Gaussian, Inc.),
 the Gaussian 86(TM) system (copyright 1986, Carnegie Mellon
 University), and the Gaussian 82(TM) system (copyright 1983,
 Carnegie Mellon University). Gaussian is a federally registered
 trademark of Gaussian, Inc.
  
 This software contains proprietary and confidential information,
 including trade secrets, belonging to Gaussian, Inc.
  
 This software is provided under written license and may be
 used, copied, transmitted, or stored only in accord with that
 written license.
  
 The following legend is applicable only to US Government
 contracts under FAR:
  
                    RESTRICTED RIGHTS LEGEND
  
 Use, reproduction and disclosure by the US Government is
 subject to restrictions as set forth in subparagraphs (a)
 and (c) of the Commercial Computer Software - Restricted
 Rights clause in FAR 52.227-19.
  
 Gaussian, Inc.
 340 Quinnipiac St., Bldg. 40, Wallingford CT 06492
  
  
 ---------------------------------------------------------------
 Warning -- This program may not be used in any manner that
 competes with the business of Gaussian, Inc. or will provide
 assistance to any competitor of Gaussian, Inc.  The licensee
 of this program is prohibited from giving any competitor of
 Gaussian, Inc. access to this program.  By using this program,
 the user acknowledges that Gaussian, Inc. is engaged in the
 business of creating and licensing software in the field of
 computational chemistry and represents and warrants to the
 licensee that it is not a competitor of Gaussian, Inc. and that
 it will not use this program in any manner prohibited above.
 ---------------------------------------------------------------
  

 Cite this work as:
 Gaussian 09, Revision C.01,
 M. J. Frisch, G. W. Trucks, H. B. Schlegel, G. E. Scuseria, 
 M. A. Robb, J. R. Cheeseman, G. Scalmani, V. Barone, B. Mennucci, 
 G. A. Petersson, H. Nakatsuji, M. Caricato, X. Li, H. P. Hratchian, 
 A. F. Izmaylov, J. Bloino, G. Zheng, J. L. Sonnenberg, M. Hada, 
 M. Ehara, K. Toyota, R. Fukuda, J. Hasegawa, M. Ishida, T. Nakajima, 
 Y. Honda, O. Kitao, H. Nakai, T. Vreven, J. A. Montgomery, Jr., 
 J. E. Peralta, F. Ogliaro, M. Bearpark, J. J. Heyd, E. Brothers, 
 K. N. Kudin, V. N. Staroverov, T. Keith, R. Kobayashi, J. Normand, 
 K. Raghavachari, A. Rendell, J. C. Burant, S. S. Iyengar, J. Tomasi, 
 M. Cossi, N. Rega, J. M. Millam, M. Klene, J. E. Knox, J. B. Cross, 
 V. Bakken, C. Adamo, J. Jaramillo, R. Gomperts, R. E. Stratmann, 
 O. Yazyev, A. J. Austin, R. Cammi, C. Pomelli, J. W. Ochterski, 
 R. L. Martin, K. Morokuma, V. G. Zakrzewski, G. A. Voth, 
 P. Salvador, J. J. Dannenberg, S. Dapprich, A. D. Daniels, 
 O. Farkas, J. B. Foresman, J. V. Ortiz, J. Cioslowski, 
 and D. J. Fox, Gaussian, Inc., Wallingford CT, 2010.
 
 ******************************************
 Gaussian 09:  EM64L-G09RevC.01 23-Sep-2011
                29-Dec-2013 
 ******************************************
 %chk=57_C19H9N5S3.chk
 %NProcShared=12
 Will use up to   12 processors via shared memory.
 %Mem=8000MB
 Default route:  MaxDisk=100GB
 --------------------------------------------
 #B3LYP/6-31++G(d,p) opt scf=direct freq test
 --------------------------------------------
 1/14=-1,18=20,19=15,26=3,38=1/1,3;
 2/9=110,12=2,17=6,18=5,40=1/2;
 3/5=1,6=6,7=1111,11=2,16=1,25=1,30=1,71=1,74=-5/1,2,3;
 4//1;
 5/5=2,38=5/2;
 6/7=2,8=2,9=2,10=2,28=1/1;
 7//1,2,3,16;
 1/14=-1,18=20,19=15/3(2);
 2/9=110/2;
 99//99;
 2/9=110/2;
 3/5=1,6=6,7=1111,11=2,16=1,25=1,30=1,71=1,74=-5/1,2,3;
 4/5=5,16=3/1;
 5/5=2,38=5/2;
 7//1,2,3,16;
 1/14=-1,18=20,19=15/3(-5);
 2/9=110/2;
 6/7=2,8=2,9=2,10=2,19=2,28=1/1;
 99/9=1/99;
 ----------------------------------------------------------------------
 Geom opt of No.57 candidate from the CEPDB database with SMILE code of
  C1ccc2csc(c12)-c1ccc(cn1)-c1ncc(-c2scc3ccsc23)c2nsnc12, HPC, 20131227
 , Shuo Dai, Gaussian09
 ----------------------------------------------------------------------
 Charge =  0 Multiplicity = 1
 Symbolic Z-Matrix:
 C                    -1.31997   1.20584   0.0027 
 C                    -2.15     -0.07524  -0.00959 
 C                    -1.36754  -1.16902  -0.00964 
 C                    -0.00359  -0.78081   0.00098 
 C                     1.19414  -1.40871   0.00276 
 S                     2.4573   -0.24775   0.02926 
 C                     1.34562   1.0808    0.06952 
 C                     0.05394   0.6254    0.02159 
 C                     1.82894   2.43942   0.11958 
 C                     0.98281   3.49943   0.41263 
 C                     1.44009   4.77671   0.21032 
 C                     2.75884   4.95894  -0.17666 
 C                     3.5757    3.83332  -0.27146 
 N                     3.12765   2.58394  -0.18859 
 C                     3.22289   6.27219  -0.50084 
 N                     2.51518   7.35842  -0.07483 
 C                     2.9125    8.61638  -0.41175 
 C                     4.05411   8.97647  -1.14533 
 C                     4.40602   10.34865  -1.488 
 S                     3.55436   11.70265  -0.81478 
 C                     4.51541   12.85736  -1.64712 
 C                     5.43929   12.19509  -2.37974 
 C                     6.51677   12.58119  -3.23616 
 C                     7.1972    11.49634  -3.78833 
 S                     6.45867   9.97189  -3.56266 
 C                     5.35017   10.80068  -2.38126 
 C                     4.82649   7.84379  -1.53008 
 N                     6.05742   7.79056  -2.05429 
 S                     6.38333   6.27946  -2.58712 
 N                     5.09628   5.53512  -1.91581 
 C                     4.35868   6.47539  -1.29417 
 H                    -1.53562   1.7885    0.90317 
 H                    -1.50438   1.81083  -0.89117 
 H                    -3.23196  -0.07435  -0.00462 
 H                    -1.69762  -2.19773  -0.00626 
 H                     1.43764  -2.46154  -0.00916 
 H                    -0.026     3.36284   0.7649 
 H                     0.77035   5.62455   0.32934 
 H                     4.64732   3.88003  -0.44112 
 H                     2.2231    9.36712  -0.02292 
 H                     4.3185    13.91187  -1.52473 
 H                     6.83358   13.58962  -3.45014 
 H                     8.07668   11.47905  -4.41325 
 

 GradGradGradGradGradGradGradGradGradGradGradGradGradGradGradGradGradGrad
 Berny optimization.
 Initialization pass.
                           ----------------------------
                           !    Initial Parameters    !
                           ! (Angstroms and Degrees)  !
 --------------------------                            --------------------------
 ! Name  Definition              Value          Derivative Info.                !
 --------------------------------------------------------------------------------
 ! R1    R(1,2)                  1.5265         estimate D2E/DX2                !
 ! R2    R(1,8)                  1.4916         estimate D2E/DX2                !
 ! R3    R(1,32)                 1.094          estimate D2E/DX2                !
 ! R4    R(1,33)                 1.095          estimate D2E/DX2                !
 ! R5    R(2,3)                  1.3448         estimate D2E/DX2                !
 ! R6    R(2,34)                 1.082          estimate D2E/DX2                !
 ! R7    R(3,4)                  1.4182         estimate D2E/DX2                !
 ! R8    R(3,35)                 1.0804         estimate D2E/DX2                !
 ! R9    R(4,5)                  1.3523         estimate D2E/DX2                !
 ! R10   R(4,8)                  1.4075         estimate D2E/DX2                !
 ! R11   R(5,6)                  1.7158         estimate D2E/DX2                !
 ! R12   R(5,36)                 1.0807         estimate D2E/DX2                !
 ! R13   R(6,7)                  1.7328         estimate D2E/DX2                !
 ! R14   R(7,8)                  1.3704         estimate D2E/DX2                !
 ! R15   R(7,9)                  1.4429         estimate D2E/DX2                !
 ! R16   R(9,10)                 1.3876         estimate D2E/DX2                !
 ! R17   R(9,14)                 1.3426         estimate D2E/DX2                !
 ! R18   R(10,11)                1.3717         estimate D2E/DX2                !
 ! R19   R(10,37)                1.0772         estimate D2E/DX2                !
 ! R20   R(11,12)                1.3864         estimate D2E/DX2                !
 ! R21   R(11,38)                1.087          estimate D2E/DX2                !
 ! R22   R(12,13)                1.394          estimate D2E/DX2                !
 ! R23   R(12,15)                1.4301         estimate D2E/DX2                !
 ! R24   R(13,14)                1.3299         estimate D2E/DX2                !
 ! R25   R(13,39)                1.086          estimate D2E/DX2                !
 ! R26   R(15,16)                1.3646         estimate D2E/DX2                !
 ! R27   R(15,31)                1.4002         estimate D2E/DX2                !
 ! R28   R(16,17)                1.3616         estimate D2E/DX2                !
 ! R29   R(17,18)                1.404          estimate D2E/DX2                !
 ! R30   R(17,40)                1.0909         estimate D2E/DX2                !
 ! R31   R(18,19)                1.4574         estimate D2E/DX2                !
 ! R32   R(18,27)                1.4239         estimate D2E/DX2                !
 ! R33   R(19,20)                1.7355         estimate D2E/DX2                !
 ! R34   R(19,26)                1.3761         estimate D2E/DX2                !
 ! R35   R(20,21)                1.7175         estimate D2E/DX2                !
 ! R36   R(21,22)                1.3524         estimate D2E/DX2                !
 ! R37   R(21,41)                1.0797         estimate D2E/DX2                !
 ! R38   R(22,23)                1.4295         estimate D2E/DX2                !
 ! R39   R(22,26)                1.3973         estimate D2E/DX2                !
 ! R40   R(23,24)                1.3946         estimate D2E/DX2                !
 ! R41   R(23,42)                1.0785         estimate D2E/DX2                !
 ! R42   R(24,25)                1.7089         estimate D2E/DX2                !
 ! R43   R(24,43)                1.079          estimate D2E/DX2                !
 ! R44   R(25,26)                1.8197         estimate D2E/DX2                !
 ! R45   R(27,28)                1.339          estimate D2E/DX2                !
 ! R46   R(27,31)                1.4653         estimate D2E/DX2                !
 ! R47   R(28,29)                1.6351         estimate D2E/DX2                !
 ! R48   R(29,30)                1.6313         estimate D2E/DX2                !
 ! R49   R(30,31)                1.3471         estimate D2E/DX2                !
 ! A1    A(2,1,8)              100.0418         estimate D2E/DX2                !
 ! A2    A(2,1,32)             110.2676         estimate D2E/DX2                !
 ! A3    A(2,1,33)             111.4399         estimate D2E/DX2                !
 ! A4    A(8,1,32)             112.2342         estimate D2E/DX2                !
 ! A5    A(8,1,33)             112.3621         estimate D2E/DX2                !
 ! A6    A(32,1,33)            110.1484         estimate D2E/DX2                !
 ! A7    A(1,2,3)              111.4806         estimate D2E/DX2                !
 ! A8    A(1,2,34)             122.8885         estimate D2E/DX2                !
 ! A9    A(3,2,34)             125.6256         estimate D2E/DX2                !
 ! A10   A(2,3,4)              109.6908         estimate D2E/DX2                !
 ! A11   A(2,3,35)             126.6311         estimate D2E/DX2                !
 ! A12   A(4,3,35)             123.6744         estimate D2E/DX2                !
 ! A13   A(3,4,5)              136.4462         estimate D2E/DX2                !
 ! A14   A(3,4,8)              108.2343         estimate D2E/DX2                !
 ! A15   A(5,4,8)              115.3185         estimate D2E/DX2                !
 ! A16   A(4,5,6)              109.7475         estimate D2E/DX2                !
 ! A17   A(4,5,36)             130.6837         estimate D2E/DX2                !
 ! A18   A(6,5,36)             119.5688         estimate D2E/DX2                !
 ! A19   A(5,6,7)               92.6841         estimate D2E/DX2                !
 ! A20   A(6,7,8)              110.4319         estimate D2E/DX2                !
 ! A21   A(6,7,9)              120.5202         estimate D2E/DX2                !
 ! A22   A(8,7,9)              129.0367         estimate D2E/DX2                !
 ! A23   A(1,8,4)              110.5446         estimate D2E/DX2                !
 ! A24   A(1,8,7)              137.6706         estimate D2E/DX2                !
 ! A25   A(4,8,7)              111.7787         estimate D2E/DX2                !
 ! A26   A(7,9,10)             121.4913         estimate D2E/DX2                !
 ! A27   A(7,9,14)             114.6715         estimate D2E/DX2                !
 ! A28   A(10,9,14)            123.7867         estimate D2E/DX2                !
 ! A29   A(9,10,11)            118.484          estimate D2E/DX2                !
 ! A30   A(9,10,37)            122.9047         estimate D2E/DX2                !
 ! A31   A(11,10,37)           118.5874         estimate D2E/DX2                !
 ! A32   A(10,11,12)           118.7297         estimate D2E/DX2                !
 ! A33   A(10,11,38)           120.3153         estimate D2E/DX2                !
 ! A34   A(12,11,38)           120.9388         estimate D2E/DX2                !
 ! A35   A(11,12,13)           118.0497         estimate D2E/DX2                !
 ! A36   A(11,12,15)           119.5149         estimate D2E/DX2                !
 ! A37   A(13,12,15)           122.4084         estimate D2E/DX2                !
 ! A38   A(12,13,14)           123.844          estimate D2E/DX2                !
 ! A39   A(12,13,39)           123.6506         estimate D2E/DX2                !
 ! A40   A(14,13,39)           112.495          estimate D2E/DX2                !
 ! A41   A(9,14,13)            116.1892         estimate D2E/DX2                !
 ! A42   A(12,15,16)           119.4665         estimate D2E/DX2                !
 ! A43   A(12,15,31)           121.6623         estimate D2E/DX2                !
 ! A44   A(16,15,31)           118.8174         estimate D2E/DX2                !
 ! A45   A(15,16,17)           120.4532         estimate D2E/DX2                !
 ! A46   A(16,17,18)           127.1245         estimate D2E/DX2                !
 ! A47   A(16,17,40)           111.2974         estimate D2E/DX2                !
 ! A48   A(18,17,40)           121.5739         estimate D2E/DX2                !
 ! A49   A(17,18,19)           124.102          estimate D2E/DX2                !
 ! A50   A(17,18,27)           112.2243         estimate D2E/DX2                !
 ! A51   A(19,18,27)           123.671          estimate D2E/DX2                !
 ! A52   A(18,19,20)           121.6582         estimate D2E/DX2                !
 ! A53   A(18,19,26)           128.8698         estimate D2E/DX2                !
 ! A54   A(20,19,26)           109.4036         estimate D2E/DX2                !
 ! A55   A(19,20,21)            93.5516         estimate D2E/DX2                !
 ! A56   A(20,21,22)           108.395          estimate D2E/DX2                !
 ! A57   A(20,21,41)           119.9772         estimate D2E/DX2                !
 ! A58   A(22,21,41)           131.6278         estimate D2E/DX2                !
 ! A59   A(21,22,23)           135.0084         estimate D2E/DX2                !
 ! A60   A(21,22,26)           116.4701         estimate D2E/DX2                !
 ! A61   A(23,22,26)           108.4796         estimate D2E/DX2                !
 ! A62   A(22,23,24)           113.2577         estimate D2E/DX2                !
 ! A63   A(22,23,42)           126.3589         estimate D2E/DX2                !
 ! A64   A(24,23,42)           120.3652         estimate D2E/DX2                !
 ! A65   A(23,24,25)           115.5188         estimate D2E/DX2                !
 ! A66   A(23,24,43)           129.7519         estimate D2E/DX2                !
 ! A67   A(25,24,43)           114.4836         estimate D2E/DX2                !
 ! A68   A(24,25,26)            86.7152         estimate D2E/DX2                !
 ! A69   A(19,26,22)           111.7694         estimate D2E/DX2                !
 ! A70   A(19,26,25)           133.6113         estimate D2E/DX2                !
 ! A71   A(22,26,25)           114.6059         estimate D2E/DX2                !
 ! A72   A(18,27,28)           129.4997         estimate D2E/DX2                !
 ! A73   A(18,27,31)           121.7485         estimate D2E/DX2                !
 ! A74   A(28,27,31)           108.6274         estimate D2E/DX2                !
 ! A75   A(27,28,29)           110.3381         estimate D2E/DX2                !
 ! A76   A(28,29,30)            97.4882         estimate D2E/DX2                !
 ! A77   A(29,30,31)           107.663          estimate D2E/DX2                !
 ! A78   A(15,31,27)           119.059          estimate D2E/DX2                !
 ! A79   A(15,31,30)           127.1791         estimate D2E/DX2                !
 ! A80   A(27,31,30)           113.7502         estimate D2E/DX2                !
 ! D1    D(8,1,2,3)             -0.476          estimate D2E/DX2                !
 ! D2    D(8,1,2,34)           178.733          estimate D2E/DX2                !
 ! D3    D(32,1,2,3)          -118.8376         estimate D2E/DX2                !
 ! D4    D(32,1,2,34)           60.3714         estimate D2E/DX2                !
 ! D5    D(33,1,2,3)           118.513          estimate D2E/DX2                !
 ! D6    D(33,1,2,34)          -62.278          estimate D2E/DX2                !
 ! D7    D(2,1,8,4)              0.828          estimate D2E/DX2                !
 ! D8    D(2,1,8,7)           -178.1601         estimate D2E/DX2                !
 ! D9    D(32,1,8,4)           117.7286         estimate D2E/DX2                !
 ! D10   D(32,1,8,7)           -61.2596         estimate D2E/DX2                !
 ! D11   D(33,1,8,4)          -117.4823         estimate D2E/DX2                !
 ! D12   D(33,1,8,7)            63.5295         estimate D2E/DX2                !
 ! D13   D(1,2,3,4)             -0.0384         estimate D2E/DX2                !
 ! D14   D(1,2,3,35)           179.2802         estimate D2E/DX2                !
 ! D15   D(34,2,3,4)          -179.2213         estimate D2E/DX2                !
 ! D16   D(34,2,3,35)            0.0973         estimate D2E/DX2                !
 ! D17   D(2,3,4,5)           -179.814          estimate D2E/DX2                !
 ! D18   D(2,3,4,8)              0.5862         estimate D2E/DX2                !
 ! D19   D(35,3,4,5)             0.8431         estimate D2E/DX2                !
 ! D20   D(35,3,4,8)          -178.7567         estimate D2E/DX2                !
 ! D21   D(3,4,5,6)           -179.6302         estimate D2E/DX2                !
 ! D22   D(3,4,5,36)             0.3549         estimate D2E/DX2                !
 ! D23   D(8,4,5,6)             -0.0507         estimate D2E/DX2                !
 ! D24   D(8,4,5,36)           179.9344         estimate D2E/DX2                !
 ! D25   D(3,4,8,1)             -0.9141         estimate D2E/DX2                !
 ! D26   D(3,4,8,7)            178.3522         estimate D2E/DX2                !
 ! D27   D(5,4,8,1)            179.3909         estimate D2E/DX2                !
 ! D28   D(5,4,8,7)             -1.3428         estimate D2E/DX2                !
 ! D29   D(4,5,6,7)              1.0539         estimate D2E/DX2                !
 ! D30   D(36,5,6,7)          -178.9331         estimate D2E/DX2                !
 ! D31   D(5,6,7,8)             -1.8123         estimate D2E/DX2                !
 ! D32   D(5,6,7,9)            179.3004         estimate D2E/DX2                !
 ! D33   D(6,7,8,1)           -178.9542         estimate D2E/DX2                !
 ! D34   D(6,7,8,4)              2.0661         estimate D2E/DX2                !
 ! D35   D(9,7,8,1)             -0.1882         estimate D2E/DX2                !
 ! D36   D(9,7,8,4)           -179.1679         estimate D2E/DX2                !
 ! D37   D(6,7,9,10)          -167.2796         estimate D2E/DX2                !
 ! D38   D(6,7,9,14)            15.2128         estimate D2E/DX2                !
 ! D39   D(8,7,9,10)            14.0628         estimate D2E/DX2                !
 ! D40   D(8,7,9,14)          -163.4449         estimate D2E/DX2                !
 ! D41   D(7,9,10,11)         -168.413          estimate D2E/DX2                !
 ! D42   D(7,9,10,37)            9.7859         estimate D2E/DX2                !
 ! D43   D(14,9,10,11)           8.8617         estimate D2E/DX2                !
 ! D44   D(14,9,10,37)        -172.9394         estimate D2E/DX2                !
 ! D45   D(7,9,14,13)          174.0733         estimate D2E/DX2                !
 ! D46   D(10,9,14,13)          -3.3695         estimate D2E/DX2                !
 ! D47   D(9,10,11,12)          -5.0038         estimate D2E/DX2                !
 ! D48   D(9,10,11,38)         173.5453         estimate D2E/DX2                !
 ! D49   D(37,10,11,12)        176.7183         estimate D2E/DX2                !
 ! D50   D(37,10,11,38)         -4.7326         estimate D2E/DX2                !
 ! D51   D(10,11,12,13)         -3.3739         estimate D2E/DX2                !
 ! D52   D(10,11,12,15)        174.7803         estimate D2E/DX2                !
 ! D53   D(38,11,12,13)        178.0863         estimate D2E/DX2                !
 ! D54   D(38,11,12,15)         -3.7595         estimate D2E/DX2                !
 ! D55   D(11,12,13,14)          9.3571         estimate D2E/DX2                !
 ! D56   D(11,12,13,39)       -171.9047         estimate D2E/DX2                !
 ! D57   D(15,12,13,14)       -168.7402         estimate D2E/DX2                !
 ! D58   D(15,12,13,39)          9.9979         estimate D2E/DX2                !
 ! D59   D(11,12,15,16)         18.5822         estimate D2E/DX2                !
 ! D60   D(11,12,15,31)       -158.718          estimate D2E/DX2                !
 ! D61   D(13,12,15,16)       -163.3474         estimate D2E/DX2                !
 ! D62   D(13,12,15,31)         19.3525         estimate D2E/DX2                !
 ! D63   D(12,13,14,9)          -5.9199         estimate D2E/DX2                !
 ! D64   D(39,13,14,9)         175.217          estimate D2E/DX2                !
 ! D65   D(12,15,16,17)       -177.6766         estimate D2E/DX2                !
 ! D66   D(31,15,16,17)         -0.2993         estimate D2E/DX2                !
 ! D67   D(12,15,31,27)       -176.6646         estimate D2E/DX2                !
 ! D68   D(12,15,31,30)          4.6653         estimate D2E/DX2                !
 ! D69   D(16,15,31,27)          6.0183         estimate D2E/DX2                !
 ! D70   D(16,15,31,30)       -172.6518         estimate D2E/DX2                !
 ! D71   D(15,16,17,18)         -2.7114         estimate D2E/DX2                !
 ! D72   D(15,16,17,40)        178.0343         estimate D2E/DX2                !
 ! D73   D(16,17,18,19)        178.9661         estimate D2E/DX2                !
 ! D74   D(16,17,18,27)         -0.4574         estimate D2E/DX2                !
 ! D75   D(40,17,18,19)         -1.8494         estimate D2E/DX2                !
 ! D76   D(40,17,18,27)        178.7271         estimate D2E/DX2                !
 ! D77   D(17,18,19,20)          9.1319         estimate D2E/DX2                !
 ! D78   D(17,18,19,26)       -167.5269         estimate D2E/DX2                !
 ! D79   D(27,18,19,20)       -171.5094         estimate D2E/DX2                !
 ! D80   D(27,18,19,26)         11.8319         estimate D2E/DX2                !
 ! D81   D(17,18,27,28)       -169.0585         estimate D2E/DX2                !
 ! D82   D(17,18,27,31)          6.4028         estimate D2E/DX2                !
 ! D83   D(19,18,27,28)         11.5151         estimate D2E/DX2                !
 ! D84   D(19,18,27,31)       -173.0236         estimate D2E/DX2                !
 ! D85   D(18,19,20,21)        179.568          estimate D2E/DX2                !
 ! D86   D(26,19,20,21)         -3.1896         estimate D2E/DX2                !
 ! D87   D(18,19,26,22)       -176.889          estimate D2E/DX2                !
 ! D88   D(18,19,26,25)          4.5509         estimate D2E/DX2                !
 ! D89   D(20,19,26,22)          6.1261         estimate D2E/DX2                !
 ! D90   D(20,19,26,25)       -172.4341         estimate D2E/DX2                !
 ! D91   D(19,20,21,22)         -0.6697         estimate D2E/DX2                !
 ! D92   D(19,20,21,41)        179.3797         estimate D2E/DX2                !
 ! D93   D(20,21,22,23)       -178.1534         estimate D2E/DX2                !
 ! D94   D(20,21,22,26)          4.5274         estimate D2E/DX2                !
 ! D95   D(41,21,22,23)          1.7893         estimate D2E/DX2                !
 ! D96   D(41,21,22,26)       -175.5299         estimate D2E/DX2                !
 ! D97   D(21,22,23,24)       -179.5226         estimate D2E/DX2                !
 ! D98   D(21,22,23,42)          2.0345         estimate D2E/DX2                !
 ! D99   D(26,22,23,24)         -2.0527         estimate D2E/DX2                !
 ! D100  D(26,22,23,42)        179.5045         estimate D2E/DX2                !
 ! D101  D(21,22,26,19)         -7.1767         estimate D2E/DX2                !
 ! D102  D(21,22,26,25)        171.6767         estimate D2E/DX2                !
 ! D103  D(23,22,26,19)        174.8213         estimate D2E/DX2                !
 ! D104  D(23,22,26,25)         -6.3253         estimate D2E/DX2                !
 ! D105  D(22,23,24,25)         10.2356         estimate D2E/DX2                !
 ! D106  D(22,23,24,43)       -175.8416         estimate D2E/DX2                !
 ! D107  D(42,23,24,25)       -171.2178         estimate D2E/DX2                !
 ! D108  D(42,23,24,43)          2.705          estimate D2E/DX2                !
 ! D109  D(23,24,25,26)        -11.1685         estimate D2E/DX2                !
 ! D110  D(43,24,25,26)        173.9626         estimate D2E/DX2                !
 ! D111  D(24,25,26,19)       -171.4373         estimate D2E/DX2                !
 ! D112  D(24,25,26,22)         10.0334         estimate D2E/DX2                !
 ! D113  D(18,27,28,29)       -169.0014         estimate D2E/DX2                !
 ! D114  D(31,27,28,29)         15.0706         estimate D2E/DX2                !
 ! D115  D(18,27,31,15)         -9.46           estimate D2E/DX2                !
 ! D116  D(18,27,31,30)        169.3824         estimate D2E/DX2                !
 ! D117  D(28,27,31,15)        166.8456         estimate D2E/DX2                !
 ! D118  D(28,27,31,30)        -14.312          estimate D2E/DX2                !
 ! D119  D(27,28,29,30)        -10.6751         estimate D2E/DX2                !
 ! D120  D(28,29,30,31)          2.027          estimate D2E/DX2                !
 ! D121  D(29,30,31,15)       -174.7164         estimate D2E/DX2                !
 ! D122  D(29,30,31,27)          6.5537         estimate D2E/DX2                !
 --------------------------------------------------------------------------------
 Trust Radius=3.00D-01 FncErr=1.00D-07 GrdErr=1.00D-06
 Number of steps in this run=    258 maximum allowed number of steps=    258.
 GradGradGradGradGradGradGradGradGradGradGradGradGradGradGradGradGradGrad

                          Input orientation:                          
 ---------------------------------------------------------------------
 Center     Atomic      Atomic             Coordinates (Angstroms)
 Number     Number       Type             X           Y           Z
 ---------------------------------------------------------------------
      1          6           0       -1.319970    1.205840    0.002700
      2          6           0       -2.150000   -0.075240   -0.009590
      3          6           0       -1.367540   -1.169020   -0.009640
      4          6           0       -0.003590   -0.780810    0.000980
      5          6           0        1.194140   -1.408710    0.002760
      6         16           0        2.457300   -0.247750    0.029260
      7          6           0        1.345620    1.080800    0.069520
      8          6           0        0.053940    0.625400    0.021590
      9          6           0        1.828940    2.439420    0.119580
     10          6           0        0.982810    3.499430    0.412630
     11          6           0        1.440090    4.776710    0.210320
     12          6           0        2.758840    4.958940   -0.176660
     13          6           0        3.575700    3.833320   -0.271460
     14          7           0        3.127650    2.583940   -0.188590
     15          6           0        3.222890    6.272190   -0.500840
     16          7           0        2.515180    7.358420   -0.074830
     17          6           0        2.912500    8.616380   -0.411750
     18          6           0        4.054110    8.976470   -1.145330
     19          6           0        4.406020   10.348650   -1.488000
     20         16           0        3.554360   11.702650   -0.814780
     21          6           0        4.515410   12.857360   -1.647120
     22          6           0        5.439290   12.195090   -2.379740
     23          6           0        6.516770   12.581190   -3.236160
     24          6           0        7.197200   11.496340   -3.788330
     25         16           0        6.458670    9.971890   -3.562660
     26          6           0        5.350170   10.800680   -2.381260
     27          6           0        4.826490    7.843790   -1.530080
     28          7           0        6.057420    7.790560   -2.054290
     29         16           0        6.383330    6.279460   -2.587120
     30          7           0        5.096280    5.535120   -1.915810
     31          6           0        4.358680    6.475390   -1.294170
     32          1           0       -1.535620    1.788500    0.903170
     33          1           0       -1.504380    1.810830   -0.891170
     34          1           0       -3.231960   -0.074350   -0.004620
     35          1           0       -1.697620   -2.197730   -0.006260
     36          1           0        1.437640   -2.461540   -0.009160
     37          1           0       -0.026000    3.362840    0.764900
     38          1           0        0.770350    5.624550    0.329340
     39          1           0        4.647320    3.880030   -0.441120
     40          1           0        2.223100    9.367120   -0.022920
     41          1           0        4.318500   13.911870   -1.524730
     42          1           0        6.833580   13.589620   -3.450140
     43          1           0        8.076680   11.479050   -4.413250
 ---------------------------------------------------------------------
                    Distance matrix (angstroms):
                    1          2          3          4          5
     1  C    0.000000
     2  C    1.526521   0.000000
     3  C    2.375368   1.344841   0.000000
     4  C    2.383199   2.259428   1.418161   0.000000
     5  C    3.627206   3.600218   2.572899   1.352338   0.000000
     6  S    4.047394   4.610692   3.934419   2.518121   1.715839
     7  C    2.669358   3.682668   3.525506   2.300143   2.495008
     8  C    1.491609   2.312838   2.289437   1.407537   2.331955
     9  C    3.383935   4.708733   4.822346   3.707036   3.901887
    10  C    3.275881   4.771900   5.243747   4.411677   4.929756
    11  C    4.517981   6.039745   6.578972   5.745787   6.193787
    12  C    5.545685   7.033320   7.389641   6.372386   6.559531
    13  C    5.562949   6.937511   7.037583   5.846002   5.764191
    14  N    4.660158   5.912433   5.858623   4.600233   4.440307
    15  C    6.823418   8.330615   8.756993   7.772182   7.960255
    16  N    7.250423   8.776529   9.370005   8.520388   8.866439
    17  C    8.544102  10.066524  10.688054   9.847899  10.179735
    18  C    9.517426  11.032422  11.559198  10.629368  10.832798
    19  C   10.890368  12.402604  12.968279  12.063441  12.279009
    20  S   11.602172  13.111321  13.804102  13.006200  13.347163
    21  C   13.135124  14.641084  15.298032  14.461579  14.740207
    22  C   13.119727  14.621078  15.183865  14.271186  14.448563
    23  C   14.188139  15.675104  16.175322  15.216347  15.314643
    24  C   13.885549  15.347654  15.749432  14.728838  14.729203
    25  S   12.250007  13.699574  14.071012  13.041506  13.036317
    26  C   11.926231  13.422481  13.929319  12.979550  13.115843
    27  C    9.175553  10.662755  11.041218  10.002877  10.057451
    28  N   10.100279  11.550470  11.814597  10.697119  10.607050
    29  S    9.580690  10.947310  11.054377   9.866024   9.630323
    30  N    7.974435   9.360469   9.505785   8.341087   8.192947
    31  C    7.854750   9.323294   9.637252   8.565002   8.593915
    32  H    1.094004   2.164283   3.099742   3.124487   4.299358
    33  H    1.094999   2.179740   3.110519   3.124884   4.294946
    34  H    2.301010   1.081972   2.162034   3.304768   4.622871
    35  H    3.424469   2.170166   1.080374   2.208495   2.997484
    36  H    4.588489   4.308780   3.088631   2.214069   1.080687
    37  H    2.628299   4.114803   4.789300   4.213539   4.983702
    38  H    4.899095   6.413340   7.130082   6.460297   7.053581
    39  H    6.554145   7.876163   7.864962   6.599231   6.331844
    40  H    8.897218  10.405880  11.131178  10.389379  10.824876
    41  H   13.984584  15.484715  16.188261  15.391007  15.710348
    42  H   15.223682  16.711388  17.231160  16.283930  16.391330
    43  H   14.606043  16.046147  16.387762  15.332330  15.263186
                    6          7          8          9         10
     6  S    0.000000
     7  C    1.732772   0.000000
     8  C    2.557066   1.370447   0.000000
     9  C    2.761137   1.442897   2.539861   0.000000
    10  C    4.045053   2.469641   3.045613   1.387601   0.000000
    11  C    5.129590   3.699797   4.380686   2.371152   1.371670
    12  C    5.219478   4.134944   5.112275   2.701935   2.373123
    13  C    4.242214   3.558917   4.772779   2.268709   2.702321
    14  N    2.918098   2.345566   3.650719   1.342573   2.408304
    15  C    6.586103   5.549773   6.496262   4.125305   3.679753
    16  N    7.607102   6.387270   7.169418   4.970441   4.180619
    17  C    8.886760   7.711790   8.497936   6.293747   5.530505
    18  C    9.434813   8.435246   9.332922   7.020285   6.469783
    19  C   10.880408   9.883570  10.759231   8.472401   7.889396
    20  S   12.030295  10.885046  11.647228   9.468766   8.684021
    21  C   13.371237  12.315916  13.126696  10.902836  10.212379
    22  C   13.019977  12.094811  12.985612  10.698333  10.162286
    23  C   13.846442  13.035616  13.975765  11.665858  11.243520
    24  C   13.227407  12.554181  13.554298  11.230217  10.964364
    25  S   11.547896  10.880602  11.883783   9.577651   9.363798
    26  C   11.672494  10.794388  11.720071   9.410841   8.954770
    27  C    8.574242   7.772594   8.791477   6.396397   6.117308
    28  N    9.050772   8.469505   9.575519   7.158244   7.088805
    29  S    8.053796   7.711182   8.878904   6.543287   6.774414
    30  N    6.647488   6.152231   7.299593   4.939806   5.146484
    31  C    7.111071   6.327700   7.381354   4.968634   4.813107
    32  H    4.566557   3.081778   2.157936   3.515391   3.083894
    33  H    4.558492   3.094894   2.160263   3.539458   3.276794
    34  H    5.692003   4.721664   3.359684   5.652183   5.541686
    35  H    4.589885   4.473903   3.322469   5.827145   6.310135
    36  H    2.437632   3.544408   3.383012   4.918241   5.993158
    37  H    4.443456   2.751836   2.837689   2.170241   1.077241
    38  H    6.117169   4.587386   5.059590   3.362985   2.137337
    39  H    4.696383   4.358631   5.648527   3.214500   3.781849
    40  H    9.617863   8.333164   9.006936   6.940367   6.013136
    41  H   14.365716  13.267102  14.039511  11.854061  11.104013
    42  H   14.924170  14.105896  15.036204  12.732489  12.286759
    43  H   13.741585  13.172927  14.206825  11.886787  11.716930
                   11         12         13         14         15
    11  C    0.000000
    12  C    1.386385   0.000000
    13  C    2.383889   1.394011   0.000000
    14  N    2.795573   2.403495   1.329875   0.000000
    15  C    2.433225   1.430056   2.474909   3.702669   0.000000
    16  N    2.811113   2.413968   3.686420   4.814948   1.364637
    17  C    4.159090   3.668207   4.830857   6.040399   2.366327
    18  C    5.129217   4.330888   5.238751   6.529787   2.901624
    19  C    6.536631   5.786345   6.679740   7.975802   4.357959
    20  S    7.313659   6.820387   7.888093   9.150140   5.449617
    21  C    8.843335   8.223918   9.176535  10.468827   6.808012
    22  C    8.816710   8.024976   8.822529  10.125168   6.597230
    23  C    9.927780   9.032235   9.693532  10.987212   7.624638
    24  C    9.710146   8.687969   9.176356  10.437923   7.341286
    25  S    8.149320   7.091079   7.538273   8.778488   5.790751
    26  C    7.635000   6.760265   7.492937   8.789893   5.344953
    27  C    4.889139   3.798589   4.385484   5.687853   2.469979
    28  N    5.960829   4.735419   4.999717   6.258856   3.571164
    29  S    5.875334   4.548738   4.385051   5.478071   3.786951
    30  N    4.296899   2.969891   2.812859   3.945663   2.460691
    31  C    3.696914   2.471424   2.939307   4.228608   1.400243
    32  H    4.273674   5.446110   5.629088   4.854972   6.687162
    33  H    4.321994   5.347538   5.502883   4.748370   6.511772
    34  H    6.738474   7.826448   7.854000   6.895288   9.065864
    35  H    7.650813   8.432497   8.015722   6.795649   9.807934
    36  H    7.241577   7.539042   6.653222   5.324021   8.927872
    37  H    2.110926   3.345057   3.777252   3.385460   4.541112
    38  H    1.086991   2.157120   3.382226   3.882064   2.669005
    39  H    3.393337   2.190968   1.085972   2.013211   2.784779
    40  H    4.662550   4.443276   5.702126   6.845231   3.287336
    41  H    9.733796   9.187208  10.183300  11.468452   7.785462
    42  H   10.961573  10.089986  10.765834  12.062198   8.676418
    43  H   10.504432   9.420189   9.791345  11.021054   8.122661
                   16         17         18         19         20
    16  N    0.000000
    17  C    1.361559   0.000000
    18  C    2.476361   1.403951   0.000000
    19  C    3.809698   2.527781   1.457443   0.000000
    20  S    4.527666   3.177968   2.791249   1.735473   0.000000
    21  C    6.058990   4.699082   3.940292   2.516130   1.717487
    22  C    6.103803   4.802584   3.715105   2.296125   2.498911
    23  C    7.299593   6.057043   4.840482   3.534906   3.925657
    24  C    7.268685   6.168802   4.818113   3.794654   4.706894
    25  S    5.877610   4.933656   3.551937   2.942709   4.356764
    26  C    5.020552   3.819996   2.556372   1.376105   2.548008
    27  C    2.774075   2.347534   1.423927   2.540254   4.125624
    28  N    4.080744   3.642861   2.499168   3.097036   4.806885
    29  S    4.736913   4.715940   3.844202   4.655763   6.368300
    30  N    3.657281   4.065127   3.677315   4.881552   6.451993
    31  C    2.380131   2.730190   2.523949   3.878396   5.310461
    32  H    6.956254   8.254377   9.333185  10.690975  11.276064
    33  H    6.899205   8.127372   9.072365  10.401125  11.110571
    34  H    9.395777  10.651241  11.674989  13.006848  13.616469
    35  H   10.443773  11.762763  12.619137  14.030739  14.881450
    36  H    9.879120  11.182916  11.788336  13.232506  14.344121
    37  H    4.809096   6.133431   7.197855   8.574375   9.212318
    38  H    2.492808   3.753541   4.918648   6.232009   6.782553
    39  H    4.096265   5.044152   5.178949   6.557227   7.907437
    40  H    2.030488   1.090904   2.182890   2.806243   2.802498
    41  H    6.949955   5.590865   4.957017   3.564484   2.443070
    42  H    8.298744   7.024229   5.858221   4.499659   4.610755
    43  H    8.168951   7.132716   5.755283   4.827902   5.783629
                   21         22         23         24         25
    21  C    0.000000
    22  C    1.352364   0.000000
    23  C    2.570362   1.429507   0.000000
    24  C    3.691768   2.358522   1.394552   0.000000
    25  S    3.971334   2.716809   2.630290   1.708889   0.000000
    26  C    2.337888   1.397256   2.293911   2.423904   1.819717
    27  C    5.024575   4.475629   5.311376   4.905210   3.365145
    28  N    5.311878   4.459584   4.955598   4.247211   2.682235
    29  S    6.902282   5.994072   6.336471   5.414899   3.819868
    30  N    7.350157   6.684915   7.308093   6.592142   4.924749
    31  C    6.393644   5.921246   6.760878   6.283945   4.667067
    32  H   12.870066  12.950829  14.087484  13.874959  12.280887
    33  H   12.602982  12.580272  13.632259  13.338671  11.711103
    34  H   15.164059  15.210882  16.298567  16.030119  14.404683
    35  H   16.369175  16.239525  17.214091  16.761546  15.075566
    36  H   15.710642  15.376920  16.201692  15.565252  13.871852
    37  H   10.797600  10.852041  11.991426  11.792385  10.220482
    38  H    8.381253   8.503535   9.702009   9.630032   8.148866
    39  H    9.058934   8.574712   9.328305   8.701372   7.080661
    40  H    4.480456   4.888343   6.252260   6.591932   5.552978
    41  H    1.079696   2.221384   3.087409   4.386979   4.925132
    42  H    3.026714   2.243772   1.078465   2.151375   3.638844
    43  H    4.715279   3.406421   2.243562   1.079032   2.369175
                   26         27         28         29         30
    26  C    0.000000
    27  C    3.121209   0.000000
    28  N    3.109330   1.338962   0.000000
    29  S    4.642330   2.447082   1.635099   0.000000
    30  N    5.292185   2.356169   2.455601   1.631318   0.000000
    31  C    4.568692   1.465271   2.278853   2.410252   1.347070
    32  H   11.807666   9.113928  10.120551   9.749903   8.121940
    33  H   11.402746   8.768394   9.710347   9.222845   7.647806
    34  H   14.055876  11.400113  12.343036  11.810758  10.221467
    35  H   14.975668  12.071378  12.810192  11.992720  10.469022
    36  H   14.029299  10.954329  11.429369  10.368742   8.998196
    37  H    9.701700   6.992318   8.034957   7.798860   6.175982
    38  H    7.423909   4.983447   6.190832   6.359260   4.874666
    39  H    7.221741   4.114527   4.459030   3.657364   2.261769
    40  H    4.170783   3.371899   4.616710   5.780682   5.149992
    41  H    3.387844   6.089308   6.385508   7.977837   8.421866
    42  H    3.334846   6.381975   6.014975   7.374684   8.381369
    43  H    3.467424   5.664938   4.821521   5.765234   7.102837
                   31         32         33         34         35
    31  C    0.000000
    32  H    7.844617   0.000000
    33  H    7.503066   1.794751   0.000000
    34  H   10.108405   2.678033   2.706364   0.000000
    35  H   10.656477   4.091862   4.109618   2.619722   0.000000
    36  H    9.489597   5.266447   5.261803   5.244412   3.146341
    37  H    5.757878   2.185547   2.708673   4.762837   5.857383
    38  H    4.029370   4.512434   4.605269   6.971906   8.209237
    39  H    2.747162   6.664110   6.505962   8.826704   8.796962
    40  H    3.812988   8.510059   8.470271  10.904099  12.211391
    41  H    7.440162  13.679968  13.444051  15.966669  17.263217
    42  H    7.834897  15.108317  14.656391  17.317355  18.272441
    43  H    6.970567  14.648119  14.059738  16.757160  17.378516
                   36         37         38         39         40
    36  H    0.000000
    37  H    6.055148   0.000000
    38  H    8.120635   2.437051   0.000000
    39  H    7.120684   4.854059   4.320631   0.000000
    40  H   11.854718   6.459914   4.030062   6.013309   0.000000
    41  H   16.693857  11.636113   9.203620  10.095551   5.225025
    42  H   17.279938  13.015661  10.699980  10.397599   7.129647
    43  H   16.056554  12.583303  10.495227   9.234903   7.615750
                   41         42         43
    41  H    0.000000
    42  H    3.183815   0.000000
    43  H    5.327859   2.631992   0.000000
 Stoichiometry    C23H12N4S4
 Framework group  C1[X(C23H12N4S4)]
 Deg. of freedom   123
 Full point group                 C1      NOp   1
 Largest Abelian subgroup         C1      NOp   1
 Largest concise Abelian subgroup C1      NOp   1
                         Standard orientation:                         
 ---------------------------------------------------------------------
 Center     Atomic      Atomic             Coordinates (Angstroms)
 Number     Number       Type             X           Y           Z
 ---------------------------------------------------------------------
      1          6           0        6.339055    1.967427    0.979299
      2          6           0        7.818704    2.037253    1.348121
      3          6           0        8.459117    0.897457    1.032948
      4          6           0        7.545852   -0.018822    0.451949
      5          6           0        7.600101   -1.276494   -0.042153
      6         16           0        6.048115   -1.746474   -0.603008
      7          6           0        5.345926   -0.217245   -0.189620
      8          6           0        6.280882    0.595888    0.395866
      9          6           0        3.950545    0.042501   -0.449230
     10          6           0        3.425650    1.324768   -0.373644
     11          6           0        2.062440    1.475737   -0.392178
     12          6           0        1.270516    0.355276   -0.590892
     13          6           0        1.905642   -0.861611   -0.833927
     14          7           0        3.216259   -1.050593   -0.710901
     15          6           0       -0.151891    0.473084   -0.501778
     16          7           0       -0.731276    1.704305   -0.604940
     17          6           0       -2.079324    1.845615   -0.475945
     18          6           0       -3.024182    0.824437   -0.287492
     19          6           0       -4.455479    1.053384   -0.135458
     20         16           0       -5.161878    2.615323   -0.406035
     21          6           0       -6.754444    2.073193   -0.060214
     22          6           0       -6.702692    0.752852    0.227724
     23          6           0       -7.668406   -0.249261    0.554309
     24          6           0       -7.104184   -1.503809    0.783520
     25         16           0       -5.399555   -1.534207    0.900220
     26          6           0       -5.431089    0.176075    0.279484
     27          6           0       -2.422480   -0.465519   -0.248316
     28          7           0       -2.996729   -1.674577   -0.283463
     29         16           0       -1.902636   -2.834134    0.079769
     30          7           0       -0.569142   -1.896897    0.012124
     31          6           0       -0.967424   -0.638099   -0.255081
     32          1           0        6.094695    2.740459    0.244757
     33          1           0        5.700930    2.071645    1.863017
     34          1           0        8.272417    2.912529    1.793879
     35          1           0        9.508927    0.686881    1.177050
     36          1           0        8.427775   -1.966688   -0.122620
     37          1           0        4.040274    2.203696   -0.272795
     38          1           0        1.616455    2.453624   -0.229745
     39          1           0        1.380996   -1.766443   -1.126095
     40          1           0       -2.376832    2.892571   -0.549725
     41          1           0       -7.580913    2.766837   -0.099595
     42          1           0       -8.737057   -0.114162    0.607407
     43          1           0       -7.583199   -2.449278    0.985864
 ---------------------------------------------------------------------
 Rotational constants (GHZ):      0.3716488      0.0422072      0.0388228
 Standard basis: 6-31++G(d,p) (6D, 7F)
 There are   677 symmetry adapted basis functions of A   symmetry.
 Integral buffers will be    131072 words long.
 Raffenetti 2 integral format.
 Two-electron integral symmetry is turned on.
   677 basis functions,  1184 primitive gaussians,   677 cartesian basis functions
   121 alpha electrons      121 beta electrons
       nuclear repulsion energy      3300.3738360532 Hartrees.
 NAtoms=   43 NActive=   43 NUniq=   43 SFac= 1.00D+00 NAtFMM=   60 NAOKFM=F Big=F
 One-electron integrals computed using PRISM.
 NBasis=   677 RedAO= T  NBF=   677
 NBsUse=   667 1.00D-06 NBFU=   667
 Harris functional with IExCor=  402 diagonalized for initial guess.
 ExpMin= 3.60D-02 ExpMax= 2.19D+04 ExpMxC= 3.30D+03 IAcc=3 IRadAn=         5 AccDes= 0.00D+00
 HarFok:  IExCor=  402 AccDes= 0.00D+00 IRadAn=         5 IDoV= 1
 ScaDFX=  1.000000  1.000000  1.000000  1.000000
 FoFCou: FMM=F IPFlag=           0 FMFlag=      100000 FMFlg1=           0
         NFxFlg=           0 DoJE=T BraDBF=F KetDBF=T FulRan=T
         Omega=  0.000000  0.000000  1.000000  0.000000  0.000000 ICntrl=     500 IOpCl=  0
         NMat0=    1 NMatS0=    1 NMatT0=    0 NMatD0=    1 NMtDS0=    0 NMtDT0=    0
         I1Cent=           4 NGrid=           0.
 Petite list used in FoFCou.
 Initial guess orbital symmetries:
       Occupied  (A) (A) (A) (A) (A) (A) (A) (A) (A) (A) (A) (A)
                 (A) (A) (A) (A) (A) (A) (A) (A) (A) (A) (A) (A)
                 (A) (A) (A) (A) (A) (A) (A) (A) (A) (A) (A) (A)
                 (A) (A) (A) (A) (A) (A) (A) (A) (A) (A) (A) (A)
                 (A) (A) (A) (A) (A) (A) (A) (A) (A) (A) (A) (A)
                 (A) (A) (A) (A) (A) (A) (A) (A) (A) (A) (A) (A)
                 (A) (A) (A) (A) (A) (A) (A) (A) (A) (A) (A) (A)
                 (A) (A) (A) (A) (A) (A) (A) (A) (A) (A) (A) (A)
                 (A) (A) (A) (A) (A) (A) (A) (A) (A) (A) (A) (A)
                 (A) (A) (A) (A) (A) (A) (A) (A) (A) (A) (A) (A)
                 (A)
       Virtual   (A) (A) (A) (A) (A) (A) (A) (A) (A) (A) (A) (A)
                 (A) (A) (A) (A) (A) (A) (A) (A) (A) (A) (A) (A)
                 (A) (A) (A) (A) (A) (A) (A) (A) (A) (A) (A) (A)
                 (A) (A) (A) (A) (A) (A) (A) (A) (A) (A) (A) (A)
                 (A) (A) (A) (A) (A) (A) (A) (A) (A) (A) (A) (A)
                 (A) (A) (A) (A) (A) (A) (A) (A) (A) (A) (A) (A)
                 (A) (A) (A) (A) (A) (A) (A) (A) (A) (A) (A) (A)
                 (A) (A) (A) (A) (A) (A) (A) (A) (A) (A) (A) (A)
                 (A) (A) (A) (A) (A) (A) (A) (A) (A) (A) (A) (A)
                 (A) (A) (A) (A) (A) (A) (A) (A) (A) (A) (A) (A)
                 (A) (A) (A) (A) (A) (A) (A) (A) (A) (A) (A) (A)
                 (A) (A) (A) (A) (A) (A) (A) (A) (A) (A) (A) (A)
                 (A) (A) (A) (A) (A) (A) (A) (A) (A) (A) (A) (A)
                 (A) (A) (A) (A) (A) (A) (A) (A) (A) (A) (A) (A)
                 (A) (A) (A) (A) (A) (A) (A) (A) (A) (A) (A) (A)
                 (A) (A) (A) (A) (A) (A) (A) (A) (A) (A) (A) (A)
                 (A) (A) (A) (A) (A) (A) (A) (A) (A) (A) (A) (A)
                 (A) (A) (A) (A) (A) (A) (A) (A) (A) (A) (A) (A)
                 (A) (A) (A) (A) (A) (A) (A) (A) (A) (A) (A) (A)
                 (A) (A) (A) (A) (A) (A) (A) (A) (A) (A) (A) (A)
                 (A) (A) (A) (A) (A) (A) (A) (A) (A) (A) (A) (A)
                 (A) (A) (A) (A) (A) (A) (A) (A) (A) (A) (A) (A)
                 (A) (A) (A) (A) (A) (A) (A) (A) (A) (A) (A) (A)
                 (A) (A) (A) (A) (A) (A) (A) (A) (A) (A) (A) (A)
                 (A) (A) (A) (A) (A) (A) (A) (A) (A) (A) (A) (A)
                 (A) (A) (A) (A) (A) (A) (A) (A) (A) (A) (A) (A)
                 (A) (A) (A) (A) (A) (A) (A) (A) (A) (A) (A) (A)
                 (A) (A) (A) (A) (A) (A) (A) (A) (A) (A) (A) (A)
                 (A) (A) (A) (A) (A) (A) (A) (A) (A) (A) (A) (A)
                 (A) (A) (A) (A) (A) (A) (A) (A) (A) (A) (A) (A)
                 (A) (A) (A) (A) (A) (A) (A) (A) (A) (A) (A) (A)
                 (A) (A) (A) (A) (A) (A) (A) (A) (A) (A) (A) (A)
                 (A) (A) (A) (A) (A) (A) (A) (A) (A) (A) (A) (A)
                 (A) (A) (A) (A) (A) (A) (A) (A) (A) (A) (A) (A)
                 (A) (A) (A) (A) (A) (A) (A) (A) (A) (A) (A) (A)
                 (A) (A) (A) (A) (A) (A) (A) (A) (A) (A) (A) (A)
                 (A) (A) (A) (A) (A) (A) (A) (A) (A) (A) (A) (A)
                 (A) (A) (A) (A) (A) (A) (A) (A) (A) (A) (A) (A)
                 (A) (A) (A) (A) (A) (A) (A) (A) (A) (A) (A) (A)
                 (A) (A) (A) (A) (A) (A) (A) (A) (A) (A) (A) (A)
                 (A) (A) (A) (A) (A) (A) (A) (A) (A) (A) (A) (A)
                 (A) (A) (A) (A) (A) (A) (A) (A) (A) (A) (A) (A)
                 (A) (A) (A) (A) (A) (A) (A) (A) (A) (A) (A) (A)
                 (A) (A) (A) (A) (A) (A) (A) (A) (A) (A) (A) (A)
                 (A) (A) (A) (A) (A) (A) (A) (A) (A) (A) (A) (A)
                 (A) (A) (A) (A) (A) (A)
 The electronic state of the initial guess is 1-A.
 Requested convergence on RMS density matrix=1.00D-08 within 128 cycles.
 Requested convergence on MAX density matrix=1.00D-06.
 Requested convergence on             energy=1.00D-06.
 No special actions if energy rises.
 EnCoef did     6 forward-backward iterations
 EnCoef did   100 forward-backward iterations
 Restarting incremental Fock formation.
 SCF Done:  E(RB3LYP) =  -2695.38296722     A.U. after   29 cycles
             Convg  =    0.9135D-09             -V/T =  2.0055

 **********************************************************************

            Population analysis using the SCF density.

 **********************************************************************

 Orbital symmetries:
       Occupied  (A) (A) (A) (A) (A) (A) (A) (A) (A) (A) (A) (A)
                 (A) (A) (A) (A) (A) (A) (A) (A) (A) (A) (A) (A)
                 (A) (A) (A) (A) (A) (A) (A) (A) (A) (A) (A) (A)
                 (A) (A) (A) (A) (A) (A) (A) (A) (A) (A) (A) (A)
                 (A) (A) (A) (A) (A) (A) (A) (A) (A) (A) (A) (A)
                 (A) (A) (A) (A) (A) (A) (A) (A) (A) (A) (A) (A)
                 (A) (A) (A) (A) (A) (A) (A) (A) (A) (A) (A) (A)
                 (A) (A) (A) (A) (A) (A) (A) (A) (A) (A) (A) (A)
                 (A) (A) (A) (A) (A) (A) (A) (A) (A) (A) (A) (A)
                 (A) (A) (A) (A) (A) (A) (A) (A) (A) (A) (A) (A)
                 (A)
       Virtual   (A) (A) (A) (A) (A) (A) (A) (A) (A) (A) (A) (A)
                 (A) (A) (A) (A) (A) (A) (A) (A) (A) (A) (A) (A)
                 (A) (A) (A) (A) (A) (A) (A) (A) (A) (A) (A) (A)
                 (A) (A) (A) (A) (A) (A) (A) (A) (A) (A) (A) (A)
                 (A) (A) (A) (A) (A) (A) (A) (A) (A) (A) (A) (A)
                 (A) (A) (A) (A) (A) (A) (A) (A) (A) (A) (A) (A)
                 (A) (A) (A) (A) (A) (A) (A) (A) (A) (A) (A) (A)
                 (A) (A) (A) (A) (A) (A) (A) (A) (A) (A) (A) (A)
                 (A) (A) (A) (A) (A) (A) (A) (A) (A) (A) (A) (A)
                 (A) (A) (A) (A) (A) (A) (A) (A) (A) (A) (A) (A)
                 (A) (A) (A) (A) (A) (A) (A) (A) (A) (A) (A) (A)
                 (A) (A) (A) (A) (A) (A) (A) (A) (A) (A) (A) (A)
                 (A) (A) (A) (A) (A) (A) (A) (A) (A) (A) (A) (A)
                 (A) (A) (A) (A) (A) (A) (A) (A) (A) (A) (A) (A)
                 (A) (A) (A) (A) (A) (A) (A) (A) (A) (A) (A) (A)
                 (A) (A) (A) (A) (A) (A) (A) (A) (A) (A) (A) (A)
                 (A) (A) (A) (A) (A) (A) (A) (A) (A) (A) (A) (A)
                 (A) (A) (A) (A) (A) (A) (A) (A) (A) (A) (A) (A)
                 (A) (A) (A) (A) (A) (A) (A) (A) (A) (A) (A) (A)
                 (A) (A) (A) (A) (A) (A) (A) (A) (A) (A) (A) (A)
                 (A) (A) (A) (A) (A) (A) (A) (A) (A) (A) (A) (A)
                 (A) (A) (A) (A) (A) (A) (A) (A) (A) (A) (A) (A)
                 (A) (A) (A) (A) (A) (A) (A) (A) (A) (A) (A) (A)
                 (A) (A) (A) (A) (A) (A) (A) (A) (A) (A) (A) (A)
                 (A) (A) (A) (A) (A) (A) (A) (A) (A) (A) (A) (A)
                 (A) (A) (A) (A) (A) (A) (A) (A) (A) (A) (A) (A)
                 (A) (A) (A) (A) (A) (A) (A) (A) (A) (A) (A) (A)
                 (A) (A) (A) (A) (A) (A) (A) (A) (A) (A) (A) (A)
                 (A) (A) (A) (A) (A) (A) (A) (A) (A) (A) (A) (A)
                 (A) (A) (A) (A) (A) (A) (A) (A) (A) (A) (A) (A)
                 (A) (A) (A) (A) (A) (A) (A) (A) (A) (A) (A) (A)
                 (A) (A) (A) (A) (A) (A) (A) (A) (A) (A) (A) (A)
                 (A) (A) (A) (A) (A) (A) (A) (A) (A) (A) (A) (A)
                 (A) (A) (A) (A) (A) (A) (A) (A) (A) (A) (A) (A)
                 (A) (A) (A) (A) (A) (A) (A) (A) (A) (A) (A) (A)
                 (A) (A) (A) (A) (A) (A) (A) (A) (A) (A) (A) (A)
                 (A) (A) (A) (A) (A) (A) (A) (A) (A) (A) (A) (A)
                 (A) (A) (A) (A) (A) (A) (A) (A) (A) (A) (A) (A)
                 (A) (A) (A) (A) (A) (A) (A) (A) (A) (A) (A) (A)
                 (A) (A) (A) (A) (A) (A) (A) (A) (A) (A) (A) (A)
                 (A) (A) (A) (A) (A) (A) (A) (A) (A) (A) (A) (A)
                 (A) (A) (A) (A) (A) (A) (A) (A) (A) (A) (A) (A)
                 (A) (A) (A) (A) (A) (A) (A) (A) (A) (A) (A) (A)
                 (A) (A) (A) (A) (A) (A) (A) (A) (A) (A) (A) (A)
                 (A) (A) (A) (A) (A) (A) (A) (A) (A) (A) (A) (A)
                 (A) (A) (A) (A) (A) (A)
 The electronic state is 1-A.
 Alpha  occ. eigenvalues --  -88.99937 -88.92979 -88.91481 -88.91026 -14.39078
 Alpha  occ. eigenvalues --  -14.38198 -14.35729 -14.34142 -10.26775 -10.26090
 Alpha  occ. eigenvalues --  -10.25732 -10.24770 -10.24547 -10.24432 -10.24124
 Alpha  occ. eigenvalues --  -10.23402 -10.23109 -10.23033 -10.22550 -10.21999
 Alpha  occ. eigenvalues --  -10.21472 -10.21320 -10.21131 -10.21125 -10.21046
 Alpha  occ. eigenvalues --  -10.20445 -10.20319 -10.20040 -10.19901 -10.19631
 Alpha  occ. eigenvalues --  -10.19189  -8.05181  -7.98937  -7.97315  -7.96931
 Alpha  occ. eigenvalues --   -6.01747  -6.01159  -6.00950  -5.95367  -5.94973
 Alpha  occ. eigenvalues --   -5.94651  -5.93792  -5.93423  -5.93361  -5.92958
 Alpha  occ. eigenvalues --   -5.92916  -5.92657  -1.04060  -0.96659  -0.95462
 Alpha  occ. eigenvalues --   -0.92685  -0.91013  -0.90778  -0.85656  -0.84332
 Alpha  occ. eigenvalues --   -0.83403  -0.82437  -0.80745  -0.78956  -0.76216
 Alpha  occ. eigenvalues --   -0.74456  -0.73826  -0.71455  -0.71053  -0.69290
 Alpha  occ. eigenvalues --   -0.68062  -0.66041  -0.64733  -0.63597  -0.61696
 Alpha  occ. eigenvalues --   -0.59845  -0.58373  -0.57242  -0.56697  -0.55507
 Alpha  occ. eigenvalues --   -0.53737  -0.53563  -0.52867  -0.52359  -0.50942
 Alpha  occ. eigenvalues --   -0.49773  -0.49101  -0.47486  -0.46377  -0.45592
 Alpha  occ. eigenvalues --   -0.45208  -0.44676  -0.43635  -0.42895  -0.42600
 Alpha  occ. eigenvalues --   -0.42486  -0.42312  -0.41616  -0.41203  -0.40803
 Alpha  occ. eigenvalues --   -0.40249  -0.39746  -0.39309  -0.38521  -0.38018
 Alpha  occ. eigenvalues --   -0.37926  -0.37425  -0.36630  -0.36003  -0.35215
 Alpha  occ. eigenvalues --   -0.34353  -0.33487  -0.33216  -0.32022  -0.30652
 Alpha  occ. eigenvalues --   -0.30161  -0.29815  -0.29413  -0.28335  -0.28067
 Alpha  occ. eigenvalues --   -0.27168  -0.25646  -0.24678  -0.23267  -0.21581
 Alpha  occ. eigenvalues --   -0.19912
 Alpha virt. eigenvalues --   -0.12103  -0.06510  -0.05525  -0.03528  -0.03230
 Alpha virt. eigenvalues --   -0.02636  -0.02092  -0.01814  -0.01058  -0.00894
 Alpha virt. eigenvalues --   -0.00433   0.00068   0.00470   0.00995   0.01182
 Alpha virt. eigenvalues --    0.01354   0.01553   0.01892   0.02394   0.02704
 Alpha virt. eigenvalues --    0.02786   0.03000   0.03172   0.03727   0.03951
 Alpha virt. eigenvalues --    0.04249   0.04444   0.04823   0.05041   0.05214
 Alpha virt. eigenvalues --    0.05378   0.05729   0.06109   0.06378   0.06691
 Alpha virt. eigenvalues --    0.07008   0.07480   0.07592   0.07838   0.08091
 Alpha virt. eigenvalues --    0.08502   0.08544   0.09156   0.09434   0.09660
 Alpha virt. eigenvalues --    0.10034   0.10053   0.10705   0.10787   0.10962
 Alpha virt. eigenvalues --    0.11075   0.11236   0.11408   0.11585   0.11643
 Alpha virt. eigenvalues --    0.11982   0.12141   0.12355   0.12544   0.12709
 Alpha virt. eigenvalues --    0.12815   0.12982   0.13108   0.13343   0.13512
 Alpha virt. eigenvalues --    0.13710   0.13736   0.14004   0.14148   0.14406
 Alpha virt. eigenvalues --    0.14469   0.14734   0.15015   0.15538   0.15622
 Alpha virt. eigenvalues --    0.15829   0.16071   0.16293   0.16483   0.16729
 Alpha virt. eigenvalues --    0.16873   0.17091   0.17350   0.17748   0.17995
 Alpha virt. eigenvalues --    0.18026   0.18396   0.18564   0.18750   0.18999
 Alpha virt. eigenvalues --    0.19377   0.19779   0.19864   0.19971   0.20319
 Alpha virt. eigenvalues --    0.20566   0.20778   0.20977   0.21242   0.21570
 Alpha virt. eigenvalues --    0.21915   0.22059   0.22254   0.22411   0.22603
 Alpha virt. eigenvalues --    0.22856   0.23062   0.23254   0.23551   0.23794
 Alpha virt. eigenvalues --    0.23916   0.24210   0.24488   0.24549   0.24790
 Alpha virt. eigenvalues --    0.25286   0.25532   0.25843   0.25920   0.26311
 Alpha virt. eigenvalues --    0.26488   0.26628   0.26811   0.26978   0.27283
 Alpha virt. eigenvalues --    0.27584   0.27761   0.27946   0.28113   0.28220
 Alpha virt. eigenvalues --    0.28385   0.28850   0.28920   0.29169   0.29561
 Alpha virt. eigenvalues --    0.29746   0.29956   0.30392   0.30490   0.30910
 Alpha virt. eigenvalues --    0.31078   0.31570   0.31872   0.32051   0.32625
 Alpha virt. eigenvalues --    0.33023   0.33250   0.33430   0.33570   0.34159
 Alpha virt. eigenvalues --    0.34379   0.34658   0.34979   0.35156   0.35273
 Alpha virt. eigenvalues --    0.35758   0.36050   0.36533   0.36967   0.37099
 Alpha virt. eigenvalues --    0.37255   0.37583   0.38230   0.39019   0.39295
 Alpha virt. eigenvalues --    0.39663   0.40407   0.40514   0.40722   0.41316
 Alpha virt. eigenvalues --    0.41513   0.42216   0.42986   0.43274   0.43799
 Alpha virt. eigenvalues --    0.44404   0.46072   0.46709   0.48077   0.48287
 Alpha virt. eigenvalues --    0.48950   0.49110   0.50991   0.51274   0.51425
 Alpha virt. eigenvalues --    0.52065   0.53225   0.54448   0.54632   0.55144
 Alpha virt. eigenvalues --    0.56358   0.57393   0.58266   0.58981   0.60047
 Alpha virt. eigenvalues --    0.60594   0.61497   0.62477   0.62856   0.63885
 Alpha virt. eigenvalues --    0.64482   0.64790   0.65573   0.65763   0.65826
 Alpha virt. eigenvalues --    0.66721   0.66981   0.67334   0.68185   0.68435
 Alpha virt. eigenvalues --    0.69153   0.69416   0.69827   0.70592   0.71181
 Alpha virt. eigenvalues --    0.71380   0.71513   0.72149   0.72351   0.72706
 Alpha virt. eigenvalues --    0.73259   0.73515   0.74062   0.74713   0.75009
 Alpha virt. eigenvalues --    0.75477   0.76280   0.76464   0.77124   0.77237
 Alpha virt. eigenvalues --    0.77568   0.78293   0.78477   0.78946   0.79208
 Alpha virt. eigenvalues --    0.79890   0.80439   0.80623   0.81395   0.81439
 Alpha virt. eigenvalues --    0.81850   0.82267   0.82524   0.83332   0.83419
 Alpha virt. eigenvalues --    0.83658   0.84345   0.86109   0.86678   0.87747
 Alpha virt. eigenvalues --    0.88855   0.89262   0.89636   0.91377   0.91767
 Alpha virt. eigenvalues --    0.92195   0.93593   0.94027   0.94196   0.94642
 Alpha virt. eigenvalues --    0.95237   0.95663   0.96269   0.96679   0.97406
 Alpha virt. eigenvalues --    0.97966   0.98259   0.99499   0.99728   0.99776
 Alpha virt. eigenvalues --    1.00133   1.00658   1.00816   1.01355   1.01473
 Alpha virt. eigenvalues --    1.02591   1.03471   1.03750   1.04363   1.05031
 Alpha virt. eigenvalues --    1.05634   1.06585   1.06844   1.07078   1.07413
 Alpha virt. eigenvalues --    1.08403   1.09213   1.09630   1.11498   1.11671
 Alpha virt. eigenvalues --    1.12402   1.13162   1.13433   1.13779   1.13996
 Alpha virt. eigenvalues --    1.14993   1.15375   1.15735   1.16344   1.16851
 Alpha virt. eigenvalues --    1.17949   1.18374   1.18657   1.19358   1.19853
 Alpha virt. eigenvalues --    1.20674   1.20953   1.21182   1.21814   1.22396
 Alpha virt. eigenvalues --    1.23219   1.24021   1.24948   1.25595   1.26237
 Alpha virt. eigenvalues --    1.27238   1.27525   1.27851   1.28288   1.29032
 Alpha virt. eigenvalues --    1.29585   1.30115   1.30884   1.32082   1.32473
 Alpha virt. eigenvalues --    1.33136   1.33319   1.34136   1.34882   1.35610
 Alpha virt. eigenvalues --    1.36626   1.36933   1.37554   1.38187   1.39241
 Alpha virt. eigenvalues --    1.40030   1.40978   1.41381   1.42190   1.42404
 Alpha virt. eigenvalues --    1.43036   1.45028   1.45600   1.46489   1.47228
 Alpha virt. eigenvalues --    1.48729   1.49189   1.49908   1.51770   1.53491
 Alpha virt. eigenvalues --    1.54802   1.55605   1.56821   1.58024   1.60521
 Alpha virt. eigenvalues --    1.61877   1.62969   1.66600   1.67674   1.68507
 Alpha virt. eigenvalues --    1.68971   1.71570   1.72867   1.73193   1.74239
 Alpha virt. eigenvalues --    1.75034   1.75672   1.76115   1.78679   1.79492
 Alpha virt. eigenvalues --    1.79638   1.80341   1.80834   1.81987   1.82133
 Alpha virt. eigenvalues --    1.82750   1.83809   1.85310   1.85805   1.86633
 Alpha virt. eigenvalues --    1.88507   1.89302   1.90694   1.91500   1.91820
 Alpha virt. eigenvalues --    1.92165   1.92352   1.92951   1.94214   1.95272
 Alpha virt. eigenvalues --    1.95929   1.97006   1.97672   1.98468   1.99858
 Alpha virt. eigenvalues --    2.01302   2.02669   2.03416   2.03958   2.05012
 Alpha virt. eigenvalues --    2.05927   2.07432   2.08834   2.10506   2.11704
 Alpha virt. eigenvalues --    2.12439   2.13143   2.13404   2.13818   2.14456
 Alpha virt. eigenvalues --    2.16190   2.17944   2.18872   2.20268   2.22163
 Alpha virt. eigenvalues --    2.22657   2.24671   2.25389   2.27469   2.27705
 Alpha virt. eigenvalues --    2.28119   2.28651   2.30336   2.30879   2.31580
 Alpha virt. eigenvalues --    2.33225   2.33582   2.34094   2.34177   2.34961
 Alpha virt. eigenvalues --    2.35473   2.36380   2.37709   2.38673   2.39716
 Alpha virt. eigenvalues --    2.40117   2.40420   2.40968   2.42423   2.42814
 Alpha virt. eigenvalues --    2.43635   2.44326   2.44690   2.46065   2.47606
 Alpha virt. eigenvalues --    2.47912   2.48606   2.50068   2.50850   2.51129
 Alpha virt. eigenvalues --    2.53755   2.54281   2.54418   2.55128   2.56451
 Alpha virt. eigenvalues --    2.58279   2.58448   2.58949   2.60325   2.60756
 Alpha virt. eigenvalues --    2.61435   2.62825   2.63310   2.63761   2.65065
 Alpha virt. eigenvalues --    2.65439   2.67308   2.68071   2.70595   2.71019
 Alpha virt. eigenvalues --    2.71675   2.73052   2.73249   2.73384   2.73861
 Alpha virt. eigenvalues --    2.74696   2.77564   2.78087   2.79436   2.79954
 Alpha virt. eigenvalues --    2.80968   2.81998   2.85639   2.86207   2.88260
 Alpha virt. eigenvalues --    2.90001   2.91274   2.94580   2.96983   2.98416
 Alpha virt. eigenvalues --    2.99411   3.02630   3.04209   3.07633   3.09846
 Alpha virt. eigenvalues --    3.11755   3.12038   3.15819   3.22069   3.24755
 Alpha virt. eigenvalues --    3.31101   3.32729   3.33671   3.34663   3.36516
 Alpha virt. eigenvalues --    3.38071   3.39369   3.47000   3.52881   3.53496
 Alpha virt. eigenvalues --    3.55612   3.56632   3.66212   3.72168   3.82088
 Alpha virt. eigenvalues --    3.96371   3.98709   3.99579   4.01682   4.14536
 Alpha virt. eigenvalues --    4.18861   4.27221   4.30982   4.31198   4.32638
 Alpha virt. eigenvalues --    4.33315   4.33773   4.35092   4.35618   4.37403
 Alpha virt. eigenvalues --    4.38225   4.42342   4.42959   4.44215   4.47278
 Alpha virt. eigenvalues --    4.49830   4.51384   4.54484   4.55996   4.60421
 Alpha virt. eigenvalues --    4.62773   4.73284   4.76028   4.78535   4.81547
 Alpha virt. eigenvalues --    4.89042
          Condensed to atoms (all electrons):
              1          2          3          4          5          6
     1  C    9.456506  -1.405759   0.739305  -2.156637   0.596396   0.171252
     2  C   -1.405759   6.720458   0.373536   1.637634  -0.646851   0.039394
     3  C    0.739305   0.373536   8.862254  -0.206191  -0.135686   0.217023
     4  C   -2.156637   1.637634  -0.206191  22.024805  -7.953998   0.989429
     5  C    0.596396  -0.646851  -0.135686  -7.953998  11.295734  -0.748571
     6  S    0.171252   0.039394   0.217023   0.989429  -0.748571  16.208502
     7  C    0.678731  -0.741183  -1.527107  -4.854986   1.790266  -0.254757
     8  C   -2.630574   0.186715  -2.244714   1.081250  -0.284348  -0.156573
     9  C   -0.109772   0.082099  -0.214884  -1.711569   1.061389  -0.414733
    10  C    0.484208  -0.327582   0.158192  -2.057871   0.575387  -0.157143
    11  C    0.556541  -0.148677   0.065427  -0.896555   0.310175  -0.092564
    12  C   -0.027124  -0.023871   0.043982  -0.038654   0.050264  -0.195123
    13  C   -0.137513   0.064997  -0.089126   0.448274  -0.106912   0.139123
    14  N   -0.015626   0.010395  -0.021790  -0.042036  -0.025311   0.089802
    15  C    0.022010  -0.005832   0.011648  -0.009276  -0.007034  -0.004295
    16  N   -0.000295  -0.000063   0.000058  -0.000016  -0.000089   0.000519
    17  C   -0.002383   0.000222  -0.000229   0.000618  -0.000097   0.001158
    18  C    0.000095  -0.000088   0.000325   0.002171  -0.000926  -0.001076
    19  C   -0.000092  -0.000019   0.000019   0.000117  -0.000038  -0.000177
    20  S   -0.000007   0.000001  -0.000000   0.000005  -0.000001   0.000003
    21  C   -0.000000   0.000000   0.000000   0.000000  -0.000000  -0.000001
    22  C   -0.000003  -0.000000  -0.000000  -0.000000   0.000000  -0.000001
    23  C    0.000000   0.000000  -0.000000  -0.000000   0.000000   0.000000
    24  C   -0.000000  -0.000000   0.000000   0.000000  -0.000000  -0.000000
    25  S    0.000002   0.000000   0.000000   0.000002  -0.000001  -0.000005
    26  C   -0.000015  -0.000003   0.000002   0.000012  -0.000005  -0.000021
    27  C   -0.002108  -0.000282   0.000838   0.006423  -0.003841  -0.001663
    28  N   -0.000018  -0.000001  -0.000002  -0.000030   0.000026   0.000051
    29  S   -0.000040   0.000000  -0.000009  -0.000150  -0.000020   0.000581
    30  N    0.000685   0.000066  -0.000245  -0.002171   0.001326  -0.000652
    31  C   -0.022802  -0.004847   0.010140   0.052068  -0.027819  -0.005476
    32  H    0.377297   0.046785  -0.035038  -0.164057   0.079328   0.000944
    33  H    0.405999  -0.043425   0.004899  -0.027324   0.032053  -0.012048
    34  H   -0.099082   0.393379  -0.034190   0.135465  -0.062788   0.005041
    35  H    0.106261  -0.171778   0.223934   0.061662  -0.067746  -0.007375
    36  H   -0.002851  -0.011780  -0.097258  -0.147218   0.408509  -0.047572
    37  H   -0.009038   0.024005   0.044445   0.105902  -0.094006   0.015377
    38  H    0.010874  -0.002815  -0.004357  -0.013620   0.007556   0.003802
    39  H   -0.003632   0.000551  -0.001460   0.005833   0.000383  -0.002642
    40  H    0.000045  -0.000012   0.000011  -0.000021   0.000006  -0.000022
    41  H   -0.000000   0.000000   0.000000  -0.000000  -0.000000   0.000000
    42  H    0.000000   0.000000  -0.000000  -0.000000   0.000000   0.000000
    43  H   -0.000000  -0.000000   0.000000   0.000000  -0.000000  -0.000000
              7          8          9         10         11         12
     1  C    0.678731  -2.630574  -0.109772   0.484208   0.556541  -0.027124
     2  C   -0.741183   0.186715   0.082099  -0.327582  -0.148677  -0.023871
     3  C   -1.527107  -2.244714  -0.214884   0.158192   0.065427   0.043982
     4  C   -4.854986   1.081250  -1.711569  -2.057871  -0.896555  -0.038654
     5  C    1.790266  -0.284348   1.061389   0.575387   0.310175   0.050264
     6  S   -0.254757  -0.156573  -0.414733  -0.157143  -0.092564  -0.195123
     7  C   10.619634   0.625074   0.498785  -0.520302  -0.341342  -0.342693
     8  C    0.625074  11.407288  -0.071157  -0.721370  -1.545867  -0.384924
     9  C    0.498785  -0.071157  10.763281  -1.020061  -2.484973  -1.564926
    10  C   -0.520302  -0.721370  -1.020061  12.486134   2.709353  -1.502773
    11  C   -0.341342  -1.545867  -2.484973   2.709353  11.671386   1.101987
    12  C   -0.342693  -0.384924  -1.564926  -1.502773   1.101987  19.892502
    13  C    1.036008   0.214383   2.124745  -5.322637  -4.005634  -5.787976
    14  N   -0.378320   0.071335   0.264434   0.146476  -0.146228   0.435265
    15  C   -0.099510  -0.025619  -0.362921  -0.492321   0.122922   5.041570
    16  N   -0.001406  -0.001214  -0.014024   0.105339   0.321425  -0.505543
    17  C   -0.006899   0.006859   0.150926  -0.159595   0.181524  -0.439177
    18  C    0.000533   0.003040  -0.185924   0.219523  -1.043389  -0.918020
    19  C   -0.000328   0.000210  -0.036031   0.029867  -0.121140  -0.379122
    20  S    0.000030   0.000025   0.000927   0.000054  -0.017733  -0.007561
    21  C   -0.000001   0.000003  -0.000230   0.000761  -0.003867  -0.020240
    22  C    0.000008   0.000002   0.000079  -0.001826   0.003506   0.021181
    23  C   -0.000002  -0.000001   0.000078  -0.000247   0.000534   0.011935
    24  C    0.000002   0.000001  -0.000097   0.000202   0.000097  -0.005834
    25  S    0.000031   0.000005  -0.000495   0.001748   0.005637   0.005041
    26  C   -0.000253   0.000080  -0.006498   0.012685  -0.034365  -0.221025
    27  C   -0.024738   0.014571  -0.176670   0.403352  -0.079923  -2.575612
    28  N    0.000452   0.000022   0.009093  -0.010834   0.004299   0.088699
    29  S   -0.001316   0.000101   0.021040  -0.016791  -0.028612  -0.193479
    30  N    0.011611  -0.003417   0.019642  -0.075595  -0.027038  -0.095321
    31  C   -0.139183   0.069512  -0.693566   1.003765  -0.418909  -4.458251
    32  H    0.150628  -0.228753   0.018846  -0.051150   0.080000   0.040274
    33  H    0.001895  -0.071707   0.009444   0.030673  -0.016176  -0.004425
    34  H   -0.055035   0.015957  -0.004967  -0.006457  -0.007239  -0.001688
    35  H    0.054006   0.061077  -0.001280   0.004543   0.000757  -0.000418
    36  H    0.073415   0.085805   0.020341   0.011311   0.003273   0.001593
    37  H   -0.246114   0.134915  -0.304775   0.670014   0.030976  -0.197908
    38  H    0.041074  -0.048793   0.055035  -0.233758   0.307752   0.098077
    39  H    0.022733  -0.001824   0.038136  -0.091132  -0.017386  -0.621838
    40  H   -0.000219   0.000086  -0.001476   0.003321   0.017680  -0.043061
    41  H   -0.000000  -0.000000  -0.000002   0.000000  -0.000072  -0.000229
    42  H   -0.000000  -0.000000   0.000001  -0.000000   0.000001   0.000081
    43  H    0.000000   0.000000  -0.000004   0.000005   0.000006  -0.000098
             13         14         15         16         17         18
     1  C   -0.137513  -0.015626   0.022010  -0.000295  -0.002383   0.000095
     2  C    0.064997   0.010395  -0.005832  -0.000063   0.000222  -0.000088
     3  C   -0.089126  -0.021790   0.011648   0.000058  -0.000229   0.000325
     4  C    0.448274  -0.042036  -0.009276  -0.000016   0.000618   0.002171
     5  C   -0.106912  -0.025311  -0.007034  -0.000089  -0.000097  -0.000926
     6  S    0.139123   0.089802  -0.004295   0.000519   0.001158  -0.001076
     7  C    1.036008  -0.378320  -0.099510  -0.001406  -0.006899   0.000533
     8  C    0.214383   0.071335  -0.025619  -0.001214   0.006859   0.003040
     9  C    2.124745   0.264434  -0.362921  -0.014024   0.150926  -0.185924
    10  C   -5.322637   0.146476  -0.492321   0.105339  -0.159595   0.219523
    11  C   -4.005634  -0.146228   0.122922   0.321425   0.181524  -1.043389
    12  C   -5.787976   0.435265   5.041570  -0.505543  -0.439177  -0.918020
    13  C   19.575437  -0.486858  -0.162544  -0.028083   0.935027  -0.893358
    14  N   -0.486858   7.095697   0.051963  -0.003524  -0.012885   0.036741
    15  C   -0.162544   0.051963  24.139778  -0.077382  -1.695420  -4.665994
    16  N   -0.028083  -0.003524  -0.077382   7.156285  -0.096093   0.140858
    17  C    0.935027  -0.012885  -1.695420  -0.096093  17.563152  -9.168856
    18  C   -0.893358   0.036741  -4.665994   0.140858  -9.168856  20.996365
    19  C   -0.194817   0.002406  -1.147707   0.025269  -4.129324   5.092651
    20  S    0.012783  -0.000016  -0.174816   0.016666  -0.435700   0.035164
    21  C   -0.001691   0.000012  -0.246626  -0.011391  -0.145328   0.624260
    22  C   -0.000040  -0.000025   0.397440   0.019888   0.000454  -1.901005
    23  C    0.001214  -0.000004   0.169822  -0.000176   0.041727  -0.195808
    24  C   -0.001874   0.000003  -0.069223   0.000563  -0.148541  -0.124129
    25  S   -0.014139   0.000111  -0.030124  -0.001799  -0.012159   0.090076
    26  C   -0.095714   0.000770  -1.306492  -0.000153  -3.474850   0.258001
    27  C   -0.832404   0.014172  -8.517441   0.055541   3.348968   0.118486
    28  N    0.038581   0.000669   0.752884  -0.013696  -0.144652  -0.212988
    29  S    0.171618  -0.008727  -0.045361   0.014065   0.225914  -0.357666
    30  N    0.073638   0.000083  -0.721539   0.021779   0.081620   0.239503
    31  C   -1.820943   0.108056  -3.939763   0.110973   2.504070  -1.793881
    32  H    0.009791  -0.003258   0.002107  -0.000069  -0.000171  -0.000223
    33  H   -0.001531  -0.001723  -0.003881  -0.000081  -0.000220  -0.000324
    34  H    0.000425   0.000381  -0.000041   0.000000   0.000011   0.000001
    35  H   -0.000869   0.000085   0.000124  -0.000000  -0.000000   0.000001
    36  H   -0.002418   0.000015  -0.000129   0.000001  -0.000000  -0.000012
    37  H   -0.149168   0.044479   0.002370   0.006511   0.001311   0.014271
    38  H    0.198492  -0.010065  -0.008155  -0.024470   0.047651  -0.077831
    39  H    1.026154  -0.153982  -0.055485   0.003131   0.068356  -0.068136
    40  H   -0.017540  -0.000157  -0.009961  -0.145097   0.864378  -0.479259
    41  H    0.000036  -0.000000  -0.003685  -0.000130   0.005080   0.009466
    42  H   -0.000002   0.000000   0.000571  -0.000022  -0.001155  -0.007522
    43  H   -0.000062   0.000000  -0.000940   0.000008  -0.005815  -0.014412
             19         20         21         22         23         24
     1  C   -0.000092  -0.000007  -0.000000  -0.000003   0.000000  -0.000000
     2  C   -0.000019   0.000001   0.000000  -0.000000   0.000000  -0.000000
     3  C    0.000019  -0.000000   0.000000  -0.000000  -0.000000   0.000000
     4  C    0.000117   0.000005   0.000000  -0.000000  -0.000000   0.000000
     5  C   -0.000038  -0.000001  -0.000000   0.000000   0.000000  -0.000000
     6  S   -0.000177   0.000003  -0.000001  -0.000001   0.000000  -0.000000
     7  C   -0.000328   0.000030  -0.000001   0.000008  -0.000002   0.000002
     8  C    0.000210   0.000025   0.000003   0.000002  -0.000001   0.000001
[...]
 1495,0.00000474,-0.00002138,0.00000187,-0.00001108,0.00002318,-0.00005
 531,0.00021937,0.00001848,-0.00026020,-0.00001109,0.00054229,0.0003036
 8,-0.00021017,0.00086496,0.00099412,-0.00039630,-0.00033301,0.00024216
 ,0.00023330,0.00000733,0.00000986,0.00000169,0.00000417,-0.00001215,0.
 00001939,0.00000348,0.00000039,0.00000585,0.00000247,0.00000132,0.0000
 0923,0.00000510,-0.00000245,0.00001546,-0.00026051,-0.00019217,-0.0017
 7740,-0.00014508,-0.00003040,-0.00014345,-0.05149387,-0.00473507,0.035
 79177,0.00000377,-0.00000142,0.00000304,-0.00000306,-0.00000270,-0.000
 00262,-0.00001192,-0.00000249,0.00000357,-0.00001895,0.00002195,0.0000
 0389,0.00001749,0.00001517,-0.00000688,0.00001295,-0.00001561,-0.00000
 006,0.00003533,0.00004736,-0.00001330,-0.00003602,-0.00001122,0.000004
 28,-0.00002251,-0.00007185,0.00000387,-0.00005247,0.00007912,0.0000157
 3,0.00003021,-0.00004296,0.00000912,0.00035609,0.00009125,-0.00003673,
 -0.00008057,-0.00017246,-0.00000805,0.00007417,0.00004860,-0.00000920,
 0.00175222,-0.00388279,0.00114592,0.01266527,-0.00930530,-0.00162065,-
 0.21175903,0.13866076,0.02032039,-0.01681078,0.02075140,0.00301446,-0.
 00008408,0.00148606,-0.00046622,-0.00055946,-0.00071639,-0.00079014,0.
 00013919,-0.00078437,0.00065165,0.00031374,0.00004890,-0.00034331,-0.0
 0010464,-0.00021469,-0.00003327,0.00018733,0.00008354,-0.00017175,0.00
 002195,0.00014688,-0.00006396,0.00026294,0.00011856,0.00004664,-0.0033
 2364,-0.00316698,0.00231087,-0.00086036,0.00120812,0.00034661,-0.00053
 488,0.00009454,-0.00017858,0.00027781,0.00018178,-0.00015653,-0.000270
 59,-0.00068537,0.00006714,0.00000224,-0.00000356,0.00000115,0.00000154
 ,-0.00000297,-0.00000123,0.00000505,0.00000047,-0.00000046,0.00000239,
 0.00000319,-0.00000030,0.00000229,0.00000125,0.00000021,0.00000399,-0.
 00000704,0.,-0.00004963,-0.00000719,-0.00000772,-0.00001017,-0.0000097
 0,0.00001324,0.21834642,-0.00000829,0.00000655,-0.00000777,-0.00000550
 ,-0.00000315,0.00000695,0.00003318,0.00000866,-0.00001018,0.00002375,-
 0.00006160,-0.00001569,-0.00004354,-0.00002515,0.00001997,-0.00000644,
 0.00003063,-0.00000508,-0.00006935,-0.00006539,0.00002704,0.00006098,0
 .00002086,-0.00000425,0.00005642,0.00014131,-0.00001084,0.00002332,-0.
 00011636,0.00001139,0.00002619,0.00000370,-0.00002025,0.00078184,-0.00
 041919,-0.00010367,-0.00030095,-0.00005237,0.00005309,-0.00003431,-0.0
 0024221,0.00002083,-0.00084044,-0.00243793,0.00099978,0.01604151,-0.03
 520811,-0.00092567,0.13920890,-0.17227763,-0.01422460,-0.00692787,0.00
 772637,0.00105878,-0.00062427,0.00085695,0.00009366,-0.00084825,-0.001
 80276,-0.00071875,-0.00037568,0.00014057,0.00014329,0.00002426,-0.0001
 8581,0.00003982,0.00002293,0.00002254,0.00003702,0.00000549,-0.0000049
 9,-0.00003377,-0.00000528,0.00003633,-0.00001602,0.00013013,0.00017817
 ,-0.00020721,-0.00176947,-0.00038131,0.00094254,-0.00033058,0.00056265
 ,0.00006581,-0.00009032,0.00016819,-0.00014130,0.00029582,0.00010425,-
 0.00006851,-0.00050947,-0.00037140,0.00024711,-0.00000453,0.00000415,0
 .00000182,-0.00000243,0.00000259,0.00000121,-0.00000732,-0.00000307,0.
 00000178,-0.00000563,-0.00000369,0.00000196,-0.00000179,-0.00000641,-0
 .00000054,-0.00002401,-0.00002020,0.00000632,0.00008254,-0.00006055,0.
 00000360,-0.00000393,0.00000080,-0.00000066,-0.14403907,0.20370835,0.0
 0000635,-0.00000071,0.00000834,-0.00000386,0.00000442,-0.00000639,-0.0
 0000866,-0.00000319,0.00000579,0.00000591,0.00000396,-0.00000131,0.000
 00063,-0.00000609,-0.00000382,-0.00000667,0.00000208,-0.00000170,-0.00
 000721,-0.00001241,0.00000981,0.00000773,0.00000192,-0.00000308,0.0000
 2877,-0.00000167,-0.00001882,0.00000668,-0.00000417,0.00000478,0.00001
 137,0.00000668,0.00003892,-0.00007468,-0.00010234,0.00047819,-0.000009
 17,0.00006944,-0.00015599,-0.00003876,-0.00000726,-0.00000769,0.000653
 01,0.00170028,0.00662650,-0.00372431,0.00405009,-0.00114765,0.01986455
 ,-0.01355895,-0.04363835,0.00563254,-0.00390955,0.00634067,-0.00124259
 ,-0.00108162,-0.00272826,-0.00028269,-0.00088616,0.00007818,-0.0005847
 2,-0.00008971,0.00047307,0.00020742,-0.00060057,-0.00050747,-0.0000234
 4,0.00000642,0.00008138,0.00006265,-0.00015285,-0.00004407,0.00001484,
 0.00021320,-0.00002848,0.00059255,0.00088712,-0.00041156,0.00253398,0.
 00080539,0.00666165,0.00030951,-0.00023216,0.00088953,-0.00006505,-0.0
 0012782,-0.00138812,-0.00030192,-0.00002915,-0.00024544,0.00038110,0.0
 0027553,-0.00017955,0.00000208,-0.00000059,-0.00000105,-0.00000096,0.0
 0000140,-0.00000217,0.00000037,0.00000014,0.00000103,0.00000115,-0.000
 00023,0.00000037,-0.00000036,0.00000292,0.00000249,0.00000376,0.000001
 21,-0.00000138,0.00000372,0.00000277,0.00000264,0.00001012,0.00000895,
 0.00004469,-0.02401367,0.01274333,0.02875916,-0.00000275,-0.00000379,0
 .00000053,0.00000377,-0.00000384,0.00000059,0.00000060,0.00000255,-0.0
 0000078,-0.00001270,0.00001829,-0.00000418,0.00001722,0.00001681,-0.00
 000214,-0.00000072,-0.00000680,0.00000007,0.00002060,0.00001168,-0.000
 00111,-0.00001558,-0.00000946,0.00000379,-0.00002011,-0.00001840,0.000
 00627,-0.00001192,0.00001689,0.00000181,-0.00001581,0.00000073,-0.0000
 0026,-0.00001011,0.00002520,0.00000467,0.00001946,-0.00003415,0.000002
 78,0.00002780,0.00001727,-0.00001034,0.00007475,0.00004284,-0.00000802
 ,-0.00014668,-0.00008752,0.00000402,0.00025628,0.00023427,-0.00009602,
 0.00209750,-0.00103632,0.00059013,-0.00272266,-0.00238931,0.00184388,0
 .00210550,-0.01252045,-0.00557070,-0.05154895,0.06454882,0.03323159,0.
 00139955,0.01886819,0.00121238,-0.00090085,-0.00031731,-0.00266466,-0.
 00013034,0.00021771,-0.00020928,0.00023160,0.00058951,0.00053230,-0.00
 007893,0.00048743,0.00534435,-0.00047575,-0.00034137,-0.00002672,0.000
 02854,0.00000531,0.00001179,-0.00006016,-0.00002501,0.00003374,0.00002
 100,-0.00015336,-0.00001810,0.00024287,-0.00004520,-0.00010726,0.00000
 069,-0.00000029,0.00000146,0.00000026,-0.00000044,-0.00000177,-0.00000
 003,0.00000040,0.00000013,0.00000014,0.00000075,0.00000003,0.00000026,
 0.00000026,-0.00000015,-0.00000007,0.00000048,0.00000038,0.00000365,0.
 00000439,-0.00000080,0.00000690,0.00000964,0.00000205,0.00006597,0.000
 05517,0.00003626,0.04955828,-0.00000472,0.00000070,-0.00000277,0.00000
 304,-0.00000347,0.00000235,0.00000623,0.00000292,-0.00000208,-0.000001
 55,-0.00000426,-0.00000714,-0.00000053,0.00000528,0.00000373,-0.000000
 86,0.00000053,-0.00000157,-0.00000096,-0.00000626,0.00000453,0.0000022
 2,0.00000177,0.00000202,-0.00000488,0.00001038,0.00000716,0.00000010,-
 0.00000643,0.00000347,0.00001426,0.00000034,-0.00000261,-0.00001849,-0
 .00001028,-0.00000591,0.00000609,-0.00000102,0.00000490,-0.00000464,-0
 .00000558,-0.00000023,0.00002242,0.00003604,-0.00001868,-0.00000782,-0
 .00009750,-0.00003882,0.00016374,0.00007090,0.00001039,0.00050146,-0.0
 0054125,-0.00042891,-0.00214141,-0.00042488,0.00200928,0.00412878,-0.0
 1136448,-0.00449083,0.06539072,-0.32385209,-0.07620168,-0.00063795,-0.
 00075864,0.00055861,-0.00025484,0.00038396,0.00043404,0.00013119,-0.00
 043679,-0.00011809,0.00002406,0.00010147,-0.00006889,0.00052084,0.0008
 6153,-0.00074275,-0.00030091,-0.00002574,-0.00004254,0.00006173,0.0000
 1027,-0.00001430,-0.00002313,-0.00000967,-0.00000049,0.00001803,-0.000
 04821,0.00001443,0.00004979,-0.00001136,0.00001032,-0.00000107,0.00000
 029,0.00000058,-0.00000037,-0.00000021,0.00000031,-0.00000089,-0.00000
 002,0.00000012,-0.00000076,0.00000016,0.00000022,0.00000009,-0.0000012
 6,-0.00000044,-0.00000159,-0.00000023,0.00000071,0.00000184,0.00000242
 ,-0.00000227,0.00000134,0.00000398,-0.00000349,0.00006428,0.00002220,0
 .00001709,-0.06788949,0.33614011,-0.00000545,-0.00000543,0.00000099,0.
 00000841,-0.00000791,0.00000040,-0.00000734,0.00000155,0.00000022,-0.0
 0003273,0.00003863,-0.00000472,0.00003747,0.00003869,-0.00000736,0.000
 00905,-0.00002394,0.00000060,0.00005984,0.00004624,-0.00001145,-0.0000
 4913,-0.00001752,0.00001087,-0.00004907,-0.00007265,0.00001852,-0.0000
 2262,0.00006637,-0.00000553,-0.00005648,-0.00000550,0.00001651,0.00002
 116,0.00008049,-0.00001447,0.00003491,-0.00007764,0.00000496,0.0000779
 9,0.00006047,-0.00002337,0.00001375,-0.00004757,0.00003187,-0.00018727
 ,0.00004052,0.00003162,0.00002453,0.00018470,-0.00005907,0.00048399,0.
 00014507,0.00183236,0.00241643,0.00260144,-0.00261058,-0.00498525,0.01
 151304,0.00254231,0.03415699,-0.07495439,-0.05615235,-0.00056995,-0.01
 736590,0.00181326,-0.00260385,0.00031621,-0.00108366,-0.00018298,-0.00
 005348,-0.00012634,0.00054652,-0.00068139,0.00019812,0.00478352,-0.001
 29690,0.00076251,0.00020441,-0.00003531,0.00000681,-0.00006977,-0.0000
 8336,0.00007449,-0.00009069,0.00003512,0.00003510,-0.00002777,-0.00005
 227,-0.00003808,0.00017929,0.00002520,-0.00018736,0.00000178,-0.000003
 25,0.00000044,0.00000192,-0.00000291,-0.00000049,0.00000374,0.00000166
 ,-0.00000021,0.00000196,0.00000329,-0.00000016,0.00000185,0.00000028,-
 0.00000026,0.00000476,0.00000351,-0.00000072,-0.00000345,-0.00000167,0
 .00000134,0.00000622,0.00000249,0.00000458,-0.00002824,-0.00000945,0.0
 0000863,-0.03458951,0.07933180,0.05296787,-0.00000847,0.00000229,-0.00
 000428,0.00000555,-0.00000672,0.00000372,0.00001202,0.00000578,-0.0000
 0528,-0.00000269,-0.00001063,-0.00001155,-0.00000355,0.00000977,0.0000
 0632,-0.00000005,0.00000030,-0.00000183,-0.00000039,-0.00000844,0.0000
 0411,0.00000320,0.00000447,0.00000430,-0.00000975,0.00000806,0.0000115
 1,0.00000645,-0.00000454,0.00000366,0.00001522,-0.00000623,-0.00000754
 ,-0.00000802,0.00001500,0.00000240,0.00000679,-0.00001045,0.00000495,-
 0.00000724,-0.00000180,-0.00000390,-0.00002331,-0.00001593,0.00000586,
 -0.00000829,-0.00002757,-0.00002243,-0.00000310,-0.00008172,-0.0000159
 7,-0.00008034,0.00013203,0.00028722,0.00043781,-0.00093208,0.00002093,
 -0.00033171,-0.00017610,-0.00006953,0.00024971,0.00054879,-0.00140129,
 0.00191686,-0.01819308,-0.00156642,-0.04680292,-0.03513990,0.01599259,
 0.00596503,0.01546467,-0.00091966,0.00284676,0.00296088,0.00409253,-0.
 00180522,-0.00103553,0.00359817,-0.00001597,-0.00004704,0.00000420,0.0
 0000230,-0.00010139,-0.00001443,0.00000503,-0.00002737,0.00001510,-0.0
 0001419,0.00000523,0.00000968,-0.00001383,-0.00002734,-0.00002398,-0.0
 0000213,0.00000013,0.00000107,-0.00000096,-0.00000049,0.00000077,-0.00
 000119,0.00000005,0.00000062,-0.00000141,0.00000028,0.00000079,0.00000
 065,-0.00000290,-0.00000027,-0.00000314,0.00000051,0.00000149,0.000001
 22,0.00000140,0.00000041,0.00000001,0.00000028,-0.00000198,0.00000804,
 0.00000396,0.00000316,-0.00008739,0.00017394,0.00038057,0.03992639,-0.
 00002153,0.00001540,-0.00001421,0.00000655,-0.00001225,0.00000945,0.00
 002203,0.00000793,-0.00001090,-0.00000862,-0.00006001,-0.00002117,-0.0
 0002236,0.00001973,0.00001588,0.00002018,-0.00000418,-0.00000648,0.000
 00002,-0.00001289,0.00001154,0.00000160,0.00002835,0.00001022,-0.00001
 794,0.00006034,0.00001993,0.00002333,-0.00003032,0.00000213,0.00004890
 ,-0.00002055,-0.00000739,-0.00005726,-0.00000366,-0.00001400,0.0000379
 4,0.00002381,0.00000217,-0.00004673,-0.00003079,0.00000027,0.00002658,
 0.00003352,0.00000267,-0.00000967,-0.00004500,-0.00000606,0.00002790,-
 0.00001827,0.00001782,-0.00010500,0.00012781,0.00005994,0.00012081,-0.
 00020744,-0.00007412,-0.00027717,-0.00014858,0.00024471,0.00024350,0.0
 0030445,-0.00015347,0.00136975,-0.00467526,-0.00154077,-0.03469991,-0.
 34206245,0.02500859,-0.00395030,-0.01402840,0.00353479,0.00065353,-0.0
 0002856,-0.00108439,-0.00042761,0.00000457,0.00022322,0.00008025,0.000
 00677,-0.00005519,0.00002974,-0.00009957,0.00012365,-0.00003609,0.0000
 8337,0.00000946,-0.00002606,-0.00007750,0.00000630,-0.00002968,-0.0000
 2064,-0.00000649,-0.00000382,-0.00000313,-0.00000520,0.00000295,-0.000
 00357,0.00001160,0.00000197,-0.00000025,0.00000084,-0.00000205,0.00000
 111,0.00000221,0.00000362,-0.00001042,-0.00000126,-0.00000386,0.000001
 17,0.00000135,0.00000677,0.00000492,-0.00000181,-0.00000865,0.00000744
 ,-0.00001030,0.00000778,-0.00000297,0.00000558,-0.00025943,-0.00003434
 ,0.00023573,0.03701988,0.36019641,0.00000156,-0.00000006,0.00000185,-0
 .00000221,0.00000097,-0.00000111,-0.00000100,-0.00000069,0.00000034,0.
 00000014,-0.00000029,0.00000176,0.,-0.00000193,-0.00000151,0.00000052,
 0.00000083,0.00000018,-0.00000119,0.00000052,-0.00000059,-0.00000004,-
 0.00000034,-0.00000107,0.00000133,0.00000344,-0.00000138,-0.00000373,-
 0.00000300,-0.00000212,0.00000074,-0.00000206,-0.00000095,-0.00001173,
 0.00000903,0.00001053,0.00001088,-0.00000156,-0.00000014,-0.00000575,-
 0.00000132,0.00000208,0.00003062,-0.00001949,-0.00001094,0.00001027,0.
 00004409,0.00000543,-0.00003345,0.00010240,-0.00003485,0.00034982,0.00
 003160,-0.00011180,-0.00005344,0.00091753,0.00057251,-0.00005899,0.000
 22244,-0.00031583,-0.00145276,-0.00045328,0.00024004,-0.00085802,0.018
 44498,0.00224582,0.01582331,0.02547977,-0.04553350,-0.00159902,-0.0168
 8938,0.00560664,0.00413132,-0.00266095,0.00209393,0.00368925,0.0011044
 6,-0.00191197,0.00022033,-0.00015756,-0.00000900,-0.00002365,-0.000282
 57,0.00026477,-0.00011761,0.00015763,0.00003188,-0.00006924,-0.0000947
 8,0.00000488,-0.00000732,-0.00000529,-0.00003423,0.00000046,-0.0000001
 0,-0.00000035,0.00000022,0.00000038,-0.00000010,0.00000008,-0.00000017
 ,0.00000036,0.00000015,-0.00000018,0.00000028,0.00000010,0.00000021,0.
 00000053,-0.00000018,-0.00000051,0.00000047,-0.00000070,-0.00000006,0.
 00000127,-0.00000009,0.00000699,-0.00000186,-0.00001128,-0.00000138,-0
 .00000155,0.00035168,-0.00020416,-0.00008534,-0.01765874,-0.02645931,0
 .03898810,-0.00001026,0.00000192,-0.00000518,0.00000708,-0.00000751,0.
 00000513,0.00001843,0.00000797,-0.00000755,0.00000209,-0.00001397,-0.0
 0001491,-0.00000757,0.00000779,0.00000943,-0.00000507,0.00000622,-0.00
 000210,-0.00001149,-0.00002097,0.00000844,0.00001384,0.00000475,0.0000
 0441,-0.00000491,0.00002471,0.00001042,0.00000601,-0.00001720,0.000005
 22,0.00002902,-0.00000160,-0.00000935,-0.00002435,0.00001566,-0.000013
 17,0.00001549,-0.00000998,0.00000277,-0.00002155,-0.00001258,-0.000002
 24,0.00003836,0.00000942,-0.00000265,-0.00000451,0.00000459,0.00000019
 ,-0.00004055,-0.00002188,-0.00001922,-0.00000468,0.00005061,0.00005048
 ,0.00126000,-0.00016866,0.00081014,-0.00080207,0.00008735,-0.00051389,
 0.00028729,-0.00041470,0.00034447,0.00329135,0.00176577,0.00509160,-0.
 00324580,-0.00602263,0.00672643,-0.18506308,-0.03718349,0.15975030,-0.
 00152223,0.00032837,0.00013224,0.00034390,0.00041200,-0.00019376,-0.00
 000499,-0.00001725,-0.00004015,0.00000844,-0.00003450,0.00007337,-0.00
 000729,0.00004017,0.00001223,-0.00001408,-0.00002416,-0.00000779,-0.00
 003154,-0.00002056,0.00000993,-0.00000333,0.00000147,0.00000229,-0.000
 00226,0.00000034,-0.00000022,-0.00000341,-0.00000005,0.00000084,-0.000
 00250,-0.00000052,0.00000093,-0.00000002,-0.00000342,-0.00000046,-0.00
 000567,0.00000040,0.00000212,0.00000150,0.00000285,0.00000084,0.000003
 19,0.00000707,-0.00000283,0.00000435,0.00000234,0.00000850,0.00005832,
 0.00001069,0.00010050,-0.00217380,0.00025817,-0.00265267,0.18762836,-0
 .00000137,0.00000209,-0.00000209,-0.00000002,0.00000048,0.00000134,0.0
 0000709,0.00000181,-0.00000219,0.00000956,-0.00001545,-0.00000317,-0.0
 0001292,-0.00000912,0.00000453,-0.00000314,0.00000899,-0.00000078,-0.0
 0002059,-0.00001795,0.00000588,0.00001761,0.00000610,-0.00000233,0.000
 01079,0.00003206,-0.00000229,0.00000672,-0.00002567,0.00000565,0.00002
 283,0.00000189,-0.00000550,-0.00002238,-0.00001087,0.00000024,0.000006
 92,0.00001583,0.00000030,-0.00003039,-0.00002491,0.00000471,0.00003157
 ,0.00004564,-0.00001298,-0.00001491,-0.00001802,0.00000658,0.00001946,
 -0.00002720,0.00000158,0.00004650,0.00016208,0.00000296,-0.00052961,0.
 00101138,0.00063019,0.00015969,0.00021765,-0.00015982,0.00002938,0.001
 15052,-0.00001671,0.00212082,-0.00354795,-0.00264759,0.01397991,0.0107
 6932,-0.01413830,-0.04026898,-0.06264887,0.04044402,-0.01512567,-0.002
 15077,0.01494022,-0.00094675,-0.00610452,0.00085653,0.00012343,0.00003
 806,-0.00007807,0.00015267,-0.00020871,0.00014829,-0.00010314,0.000089
 60,0.00006482,-0.00006868,-0.00015500,-0.00000870,0.00001286,-0.000015
 28,-0.00000901,-0.00000125,0.00000118,0.00000009,-0.00000102,0.0000010
 2,0.00000028,-0.00000194,-0.00000044,0.00000046,-0.00000131,-0.0000012
 0,0.00000052,-0.00000070,-0.00000105,0.00000022,-0.00000328,-0.0000007
 7,0.00000092,0.00000288,0.00000277,-0.00000077,0.00000029,0.00001065,-
 0.00000233,-0.00001482,0.00000639,-0.00000269,-0.00003269,-0.00001128,
 0.00002594,-0.00050041,0.00071394,0.00071318,0.04094500,0.06070558,0.0
 0000712,0.00000023,0.00000430,-0.00000657,0.00000529,-0.00000432,-0.00
 001314,-0.00000606,0.00000490,-0.00000201,0.00000494,0.00001028,0.0000
 0345,-0.00000539,-0.00000730,0.00000625,-0.00000511,0.00000187,0.00000
 832,0.00001493,-0.00000676,-0.00001056,-0.00000111,-0.00000295,0.00000
 427,-0.00001280,-0.00000679,-0.00000359,0.00000948,-0.00000462,-0.0000
 1843,-0.00000300,0.00000586,0.00001260,-0.00000921,0.00000943,-0.00000
 494,0.00001088,-0.00000288,0.00000799,0.00000510,-0.00000022,0.0000107
 7,-0.00001575,0.00000065,-0.00001094,0.00002706,0.00000073,-0.00002962
 ,0.00000464,-0.00002474,0.00001963,-0.00003080,0.00000014,0.00086144,-
 0.00003134,0.00102725,-0.00060828,-0.00005064,-0.00061919,0.00060733,0
 .00049180,-0.00004310,0.00484079,-0.00238246,0.00314346,0.00798728,0.0
 0645744,-0.00418200,0.15887766,0.03719700,-0.18903184,0.00011360,-0.00
 039140,-0.00132842,-0.00035059,-0.00047198,0.00059850,-0.00002229,-0.0
 0000310,0.00001893,-0.00002871,0.00003379,-0.00003144,0.00003321,-0.00
 000095,-0.00000373,0.00001283,0.00002140,-0.00001073,-0.00001200,0.000
 01284,0.00001322,0.00000260,-0.00000168,-0.00000257,0.00000194,-0.0000
 0015,0.00000117,0.00000294,-0.00000018,0.00000002,0.00000195,0.0000005
 0,0.00000002,0.00000062,0.00000189,0.00000098,0.00000397,-0.00000086,-
 0.00000039,0.00000022,-0.00000130,0.00000081,-0.00000252,-0.00000352,0
 .00000303,0.00000236,-0.00000149,0.00000807,0.00009514,-0.00001734,0.0
 0004711,-0.00272703,-0.00008751,-0.00201342,-0.16967508,-0.04076411,0.
 19242666\\0.00000019,0.00000678,-0.00000103,-0.00000299,-0.00000136,0.
 00000113,0.00000153,-0.00000107,-0.00000027,-0.00000337,0.00000063,0.0
 0000103,0.00000204,-0.00000194,-0.00000420,0.00000073,0.,0.00000586,-0
 .00000034,-0.00000192,-0.00000625,0.00000204,0.00000109,0.00000224,-0.
 00000021,0.00000165,0.00000226,-0.00000179,-0.00000321,-0.00000173,0.0
 0000250,0.00000150,-0.00000077,-0.00000178,0.00000125,0.00000333,0.000
 00024,0.00000171,-0.00000146,0.00000077,-0.00000084,0.00000134,0.00000
 797,0.00000111,-0.00000183,-0.00000608,-0.00000173,0.00000184,0.000005
 06,0.00000487,-0.00000217,-0.00000567,-0.00000737,0.00000277,0.0000020
 9,-0.00000236,-0.00000461,-0.00000252,0.00000229,0.00000210,-0.0000036
 4,0.00000288,-0.00000043,0.00000591,-0.00000844,-0.00000414,0.00000104
 ,0.00000568,0.00000167,-0.00000207,-0.00000184,0.00000115,0.00000336,-
 0.00000075,-0.00000167,-0.00000559,0.00000601,0.00000526,0.00000089,0.
 00000546,-0.00000120,-0.00000327,-0.00000105,0.00000295,0.00001019,-0.
 00000618,0.00000044,-0.00000046,0.00000250,-0.00000144,-0.00000750,0.0
 0000109,0.00000104,-0.00000018,-0.00000120,-0.00000035,0.00000019,-0.0
 0000271,-0.00000043,-0.00000002,-0.00000037,-0.00000184,-0.00000052,-0
 .00000019,0.00000069,0.00000036,0.00000013,0.00000051,-0.00000058,0.00
 000009,0.00000019,-0.00000068,-0.00000065,-0.00000104,0.00000047,-0.00
 000041,0.00000214,-0.00000034,-0.00000055,-0.00000068,-0.00000059,0.,-
 0.00000061,0.00000126,-0.00000085,-0.00000216,0.00000141,0.00000023,0.
 00000034\\\@


 EVERYBODY NEEDS BEAUTY AS WELL AS BREAD, PLACES TO PLAY IN AND PRAY IN,
 WHERE NATURE MAY HEAL AND CHEER AND GIVE STRENGTH TO BODY AND SOUL ALIKE.

                                    -- JOHN MUIR
 Job cpu time:  1 days  0 hours 29 minutes 59.1 seconds.
 File lengths (MBytes):  RWF=   2096 Int=      0 D2E=      0 Chk=     34 Scr=      1
 Normal termination of Gaussian 09 at Sun Dec 29 19:40:12 2013.
