 Entering Gaussian System, Link 0=g09
 Initial command:
 /opt/gaussian/g09/l1.exe /panfs/panfs.cluster/home/shuo/Gau-12678.inp -scrdir=/panfs/panfs.cluster/home/shuo/
 Default is to use a total of  12 processors:
                               12 via shared-memory
                                1 via Linda
 Entering Link 1 = /opt/gaussian/g09/l1.exe PID=     12679.
  
 Copyright (c) 1988,1990,1992,1993,1995,1998,2003,2009,2011,
            Gaussian, Inc.  All Rights Reserved.
  
 This is part of the Gaussian(R) 09 program.  It is based on
 the Gaussian(R) 03 system (copyright 2003, Gaussian, Inc.),
 the Gaussian(R) 98 system (copyright 1998, Gaussian, Inc.),
 the Gaussian(R) 94 system (copyright 1995, Gaussian, Inc.),
 the Gaussian 92(TM) system (copyright 1992, Gaussian, Inc.),
 the Gaussian 90(TM) system (copyright 1990, Gaussian, Inc.),
 the Gaussian 88(TM) system (copyright 1988, Gaussian, Inc.),
 the Gaussian 86(TM) system (copyright 1986, Carnegie Mellon
 University), and the Gaussian 82(TM) system (copyright 1983,
 Carnegie Mellon University). Gaussian is a federally registered
 trademark of Gaussian, Inc.
  
 This software contains proprietary and confidential information,
 including trade secrets, belonging to Gaussian, Inc.
  
 This software is provided under written license and may be
 used, copied, transmitted, or stored only in accord with that
 written license.
  
 The following legend is applicable only to US Government
 contracts under FAR:
  
                    RESTRICTED RIGHTS LEGEND
  
 Use, reproduction and disclosure by the US Government is
 subject to restrictions as set forth in subparagraphs (a)
 and (c) of the Commercial Computer Software - Restricted
 Rights clause in FAR 52.227-19.
  
 Gaussian, Inc.
 340 Quinnipiac St., Bldg. 40, Wallingford CT 06492
  
  
 ---------------------------------------------------------------
 Warning -- This program may not be used in any manner that
 competes with the business of Gaussian, Inc. or will provide
 assistance to any competitor of Gaussian, Inc.  The licensee
 of this program is prohibited from giving any competitor of
 Gaussian, Inc. access to this program.  By using this program,
 the user acknowledges that Gaussian, Inc. is engaged in the
 business of creating and licensing software in the field of
 computational chemistry and represents and warrants to the
 licensee that it is not a competitor of Gaussian, Inc. and that
 it will not use this program in any manner prohibited above.
 ---------------------------------------------------------------
  

 Cite this work as:
 Gaussian 09, Revision C.01,
 M. J. Frisch, G. W. Trucks, H. B. Schlegel, G. E. Scuseria, 
 M. A. Robb, J. R. Cheeseman, G. Scalmani, V. Barone, B. Mennucci, 
 G. A. Petersson, H. Nakatsuji, M. Caricato, X. Li, H. P. Hratchian, 
 A. F. Izmaylov, J. Bloino, G. Zheng, J. L. Sonnenberg, M. Hada, 
 M. Ehara, K. Toyota, R. Fukuda, J. Hasegawa, M. Ishida, T. Nakajima, 
 Y. Honda, O. Kitao, H. Nakai, T. Vreven, J. A. Montgomery, Jr., 
 J. E. Peralta, F. Ogliaro, M. Bearpark, J. J. Heyd, E. Brothers, 
 K. N. Kudin, V. N. Staroverov, T. Keith, R. Kobayashi, J. Normand, 
 K. Raghavachari, A. Rendell, J. C. Burant, S. S. Iyengar, J. Tomasi, 
 M. Cossi, N. Rega, J. M. Millam, M. Klene, J. E. Knox, J. B. Cross, 
 V. Bakken, C. Adamo, J. Jaramillo, R. Gomperts, R. E. Stratmann, 
 O. Yazyev, A. J. Austin, R. Cammi, C. Pomelli, J. W. Ochterski, 
 R. L. Martin, K. Morokuma, V. G. Zakrzewski, G. A. Voth, 
 P. Salvador, J. J. Dannenberg, S. Dapprich, A. D. Daniels, 
 O. Farkas, J. B. Foresman, J. V. Ortiz, J. Cioslowski, 
 and D. J. Fox, Gaussian, Inc., Wallingford CT, 2010.
 
 ******************************************
 Gaussian 09:  EM64L-G09RevC.01 23-Sep-2011
                28-Dec-2013 
 ******************************************
 %chk=22_C22H12N4S2Si.chk
 %NProcShared=12
 Will use up to   12 processors via shared memory.
 %Mem=8000MB
 Default route:  MaxDisk=100GB
 --------------------------------------------
 #B3LYP/6-31++G(d,p) opt scf=direct freq test
 --------------------------------------------
 1/14=-1,18=20,19=15,26=3,38=1/1,3;
 2/9=110,12=2,17=6,18=5,40=1/2;
 3/5=1,6=6,7=1111,11=2,16=1,25=1,30=1,71=1,74=-5/1,2,3;
 4//1;
 5/5=2,38=5/2;
 6/7=2,8=2,9=2,10=2,28=1/1;
 7//1,2,3,16;
 1/14=-1,18=20,19=15/3(2);
 2/9=110/2;
 99//99;
 2/9=110/2;
 3/5=1,6=6,7=1111,11=2,16=1,25=1,30=1,71=1,74=-5/1,2,3;
 4/5=5,16=3/1;
 5/5=2,38=5/2;
 7//1,2,3,16;
 1/14=-1,18=20,19=15/3(-5);
 2/9=110/2;
 6/7=2,8=2,9=2,10=2,19=2,28=1/1;
 99/9=1/99;
 ----------------------------------------------------------------------
 Geom opt of No.22 candidate from the CEPDB database with SMILE code of
  [SiH2]1ccc2csc(c12)-c1sc(-c2ncc(s2)-c2nccc3nsnc23)c2sccc12, HPC, 2013
 1227, Shuo Dai, Gaussian09
 ----------------------------------------------------------------------
 Charge =  0 Multiplicity = 1
 Symbolic Z-Matrix:
 Si                   -1.63982   1.40272   0.00369 
 H                    -1.72435   2.23043  -1.22824 
 H                    -1.71898   2.2147    1.24605 
 C                    -2.35617  -0.30188   0.00059 
 C                    -1.39397  -1.2418   -0.00095 
 C                    -0.06175  -0.71506  -0.00129 
 C                     1.15677  -1.32417  -0.00169 
 S                     2.40292  -0.14325  -0.00019 
 C                     1.28495   1.23529   0.001 
 C                     0.03885   0.70087   0.0001 
 C                     1.71929   2.61806   0.00258 
 S                     3.40687   2.82622   0.00169 
 C                     3.34979   4.51665   0.00146 
 C                     4.50024   5.30926  -0.00009 
 N                     4.57914   6.6252   -0.00317 
 C                     5.91699   6.98246  -0.01265 
 C                     6.80543   5.92481  -0.01622 
 S                     5.94906   4.49128   0.00164 
 C                     8.22962   5.80715  -0.02891 
 N                     8.93622   6.96317  -0.03552 
 C                     10.29336   6.91655  -0.0456 
 C                     11.10004   5.77889  -0.04919 
 C                     10.39945   4.56151  -0.04427 
 N                     10.94851   3.33522  -0.04785 
 S                     9.70266   2.24554  -0.04052 
 N                     8.44182   3.29092  -0.03238 
 C                     8.92392   4.55209  -0.03448 
 C                     2.07358   4.95656   0.00093 
 S                     1.50499   6.66687  -0.00235 
 C                    -0.05794   5.95529   0.00319 
 C                    -0.11749   4.55554   0.00777 
 C                     1.16316   3.88542   0.00393 
 H                    -3.42513  -0.42843   0.00244 
 H                    -1.59454  -2.30652  -0.00083 
 H                     1.41293  -2.37627  -0.00224 
 H                     6.17213   8.03505  -0.01791 
 H                     10.74685   7.90461  -0.05144 
 H                     12.17432   5.81581  -0.05623 
 H                    -0.87858   6.65555   0.00333 
 H                    -1.08869   4.10228   0.01379 
 

 GradGradGradGradGradGradGradGradGradGradGradGradGradGradGradGradGradGrad
 Berny optimization.
 Initialization pass.
                           ----------------------------
                           !    Initial Parameters    !
                           ! (Angstroms and Degrees)  !
 --------------------------                            --------------------------
 ! Name  Definition              Value          Derivative Info.                !
 --------------------------------------------------------------------------------
 ! R1    R(1,2)                  1.4866         estimate D2E/DX2                !
 ! R2    R(1,3)                  1.4863         estimate D2E/DX2                !
 ! R3    R(1,4)                  1.849          estimate D2E/DX2                !
 ! R4    R(1,10)                 1.8195         estimate D2E/DX2                !
 ! R5    R(4,5)                  1.3451         estimate D2E/DX2                !
 ! R6    R(4,33)                 1.0764         estimate D2E/DX2                !
 ! R7    R(5,6)                  1.4326         estimate D2E/DX2                !
 ! R8    R(5,34)                 1.0834         estimate D2E/DX2                !
 ! R9    R(6,7)                  1.3623         estimate D2E/DX2                !
 ! R10   R(6,10)                 1.4195         estimate D2E/DX2                !
 ! R11   R(7,8)                  1.7168         estimate D2E/DX2                !
 ! R12   R(7,35)                 1.0828         estimate D2E/DX2                !
 ! R13   R(8,9)                  1.7749         estimate D2E/DX2                !
 ! R14   R(9,10)                 1.3559         estimate D2E/DX2                !
 ! R15   R(9,11)                 1.4494         estimate D2E/DX2                !
 ! R16   R(11,12)                1.7004         estimate D2E/DX2                !
 ! R17   R(11,32)                1.384          estimate D2E/DX2                !
 ! R18   R(12,13)                1.6914         estimate D2E/DX2                !
 ! R19   R(13,14)                1.3971         estimate D2E/DX2                !
 ! R20   R(13,28)                1.3499         estimate D2E/DX2                !
 ! R21   R(14,15)                1.3183         estimate D2E/DX2                !
 ! R22   R(14,18)                1.6638         estimate D2E/DX2                !
 ! R23   R(15,16)                1.3848         estimate D2E/DX2                !
 ! R24   R(16,17)                1.3813         estimate D2E/DX2                !
 ! R25   R(16,36)                1.0831         estimate D2E/DX2                !
 ! R26   R(17,18)                1.6699         estimate D2E/DX2                !
 ! R27   R(17,19)                1.4291         estimate D2E/DX2                !
 ! R28   R(19,20)                1.3549         estimate D2E/DX2                !
 ! R29   R(19,27)                1.4343         estimate D2E/DX2                !
 ! R30   R(20,21)                1.358          estimate D2E/DX2                !
 ! R31   R(21,22)                1.3946         estimate D2E/DX2                !
 ! R32   R(21,37)                1.0872         estimate D2E/DX2                !
 ! R33   R(22,23)                1.4046         estimate D2E/DX2                !
 ! R34   R(22,38)                1.0749         estimate D2E/DX2                !
 ! R35   R(23,24)                1.3436         estimate D2E/DX2                !
 ! R36   R(23,27)                1.4756         estimate D2E/DX2                !
 ! R37   R(24,25)                1.6552         estimate D2E/DX2                !
 ! R38   R(25,26)                1.6379         estimate D2E/DX2                !
 ! R39   R(26,27)                1.3502         estimate D2E/DX2                !
 ! R40   R(28,29)                1.8024         estimate D2E/DX2                !
 ! R41   R(28,32)                1.4058         estimate D2E/DX2                !
 ! R42   R(29,30)                1.7173         estimate D2E/DX2                !
 ! R43   R(30,31)                1.401          estimate D2E/DX2                !
 ! R44   R(30,39)                1.0788         estimate D2E/DX2                !
 ! R45   R(31,32)                1.4454         estimate D2E/DX2                !
 ! R46   R(31,40)                1.0718         estimate D2E/DX2                !
 ! A1    A(2,1,3)              112.6741         estimate D2E/DX2                !
 ! A2    A(2,1,4)              119.3331         estimate D2E/DX2                !
 ! A3    A(2,1,10)             105.4028         estimate D2E/DX2                !
 ! A4    A(3,1,4)              118.9742         estimate D2E/DX2                !
 ! A5    A(3,1,10)             105.1605         estimate D2E/DX2                !
 ! A6    A(4,1,10)              90.1044         estimate D2E/DX2                !
 ! A7    A(1,4,5)              111.5346         estimate D2E/DX2                !
 ! A8    A(1,4,33)             119.5457         estimate D2E/DX2                !
 ! A9    A(5,4,33)             128.9195         estimate D2E/DX2                !
 ! A10   A(4,5,6)              114.098          estimate D2E/DX2                !
 ! A11   A(4,5,34)             123.6606         estimate D2E/DX2                !
 ! A12   A(6,5,34)             122.2414         estimate D2E/DX2                !
 ! A13   A(5,6,7)              131.8675         estimate D2E/DX2                !
 ! A14   A(5,6,10)             115.637          estimate D2E/DX2                !
 ! A15   A(7,6,10)             112.4955         estimate D2E/DX2                !
 ! A16   A(6,7,8)              109.9801         estimate D2E/DX2                !
 ! A17   A(6,7,35)             130.2433         estimate D2E/DX2                !
 ! A18   A(8,7,35)             119.7767         estimate D2E/DX2                !
 ! A19   A(7,8,9)               94.4191         estimate D2E/DX2                !
 ! A20   A(8,9,10)             105.8281         estimate D2E/DX2                !
 ! A21   A(8,9,11)             123.5207         estimate D2E/DX2                !
 ! A22   A(10,9,11)            130.6512         estimate D2E/DX2                !
 ! A23   A(1,10,6)             108.6259         estimate D2E/DX2                !
 ! A24   A(1,10,9)             134.0968         estimate D2E/DX2                !
 ! A25   A(6,10,9)             117.2772         estimate D2E/DX2                !
 ! A26   A(9,11,12)            114.4697         estimate D2E/DX2                !
 ! A27   A(9,11,32)            138.8697         estimate D2E/DX2                !
 ! A28   A(12,11,32)           106.6605         estimate D2E/DX2                !
 ! A29   A(11,12,13)            95.0979         estimate D2E/DX2                !
 ! A30   A(12,13,14)           122.6312         estimate D2E/DX2                !
 ! A31   A(12,13,28)           110.953          estimate D2E/DX2                !
 ! A32   A(14,13,28)           126.4157         estimate D2E/DX2                !
 ! A33   A(13,14,15)           127.9964         estimate D2E/DX2                !
 ! A34   A(13,14,18)           115.9864         estimate D2E/DX2                !
 ! A35   A(15,14,18)           116.0172         estimate D2E/DX2                !
 ! A36   A(14,15,16)           108.3831         estimate D2E/DX2                !
 ! A37   A(15,16,17)           115.0797         estimate D2E/DX2                !
 ! A38   A(15,16,36)           118.5778         estimate D2E/DX2                !
 ! A39   A(17,16,36)           126.3425         estimate D2E/DX2                !
 ! A40   A(16,17,18)           109.1129         estimate D2E/DX2                !
 ! A41   A(16,17,19)           134.7529         estimate D2E/DX2                !
 ! A42   A(18,17,19)           116.134          estimate D2E/DX2                !
 ! A43   A(14,18,17)            91.4044         estimate D2E/DX2                !
 ! A44   A(17,19,20)           116.7132         estimate D2E/DX2                !
 ! A45   A(17,19,27)           123.6748         estimate D2E/DX2                !
 ! A46   A(20,19,27)           119.612          estimate D2E/DX2                !
 ! A47   A(19,20,21)           119.4684         estimate D2E/DX2                !
 ! A48   A(20,21,22)           127.3068         estimate D2E/DX2                !
 ! A49   A(20,21,37)           112.6877         estimate D2E/DX2                !
 ! A50   A(22,21,37)           120.0055         estimate D2E/DX2                !
 ! A51   A(21,22,23)           114.7399         estimate D2E/DX2                !
 ! A52   A(21,22,38)           123.3712         estimate D2E/DX2                !
 ! A53   A(23,22,38)           121.8889         estimate D2E/DX2                !
 ! A54   A(22,23,24)           125.9589         estimate D2E/DX2                !
 ! A55   A(22,23,27)           120.2864         estimate D2E/DX2                !
 ! A56   A(24,23,27)           113.7547         estimate D2E/DX2                !
 ! A57   A(23,24,25)           107.0535         estimate D2E/DX2                !
 ! A58   A(24,25,26)            99.164          estimate D2E/DX2                !
 ! A59   A(25,26,27)           108.7418         estimate D2E/DX2                !
 ! A60   A(19,27,23)           118.5864         estimate D2E/DX2                !
 ! A61   A(19,27,26)           130.1277         estimate D2E/DX2                !
 ! A62   A(23,27,26)           111.286          estimate D2E/DX2                !
 ! A63   A(13,28,29)           127.4084         estimate D2E/DX2                !
 ! A64   A(13,28,32)           111.3438         estimate D2E/DX2                !
 ! A65   A(29,28,32)           121.2478         estimate D2E/DX2                !
 ! A66   A(28,29,30)            83.9099         estimate D2E/DX2                !
 ! A67   A(29,30,31)           116.9156         estimate D2E/DX2                !
 ! A68   A(29,30,39)           115.0463         estimate D2E/DX2                !
 ! A69   A(31,30,39)           128.0381         estimate D2E/DX2                !
 ! A70   A(30,31,32)           115.1846         estimate D2E/DX2                !
 ! A71   A(30,31,40)           117.4551         estimate D2E/DX2                !
 ! A72   A(32,31,40)           127.3602         estimate D2E/DX2                !
 ! A73   A(11,32,28)           115.9444         estimate D2E/DX2                !
 ! A74   A(11,32,31)           141.3138         estimate D2E/DX2                !
 ! A75   A(28,32,31)           102.7418         estimate D2E/DX2                !
 ! D1    D(2,1,4,5)            107.8803         estimate D2E/DX2                !
 ! D2    D(2,1,4,33)           -72.2548         estimate D2E/DX2                !
 ! D3    D(3,1,4,5)           -107.3739         estimate D2E/DX2                !
 ! D4    D(3,1,4,33)            72.491          estimate D2E/DX2                !
 ! D5    D(10,1,4,5)             0.0806         estimate D2E/DX2                !
 ! D6    D(10,1,4,33)          179.9456         estimate D2E/DX2                !
 ! D7    D(2,1,10,6)          -120.6484         estimate D2E/DX2                !
 ! D8    D(2,1,10,9)            59.493          estimate D2E/DX2                !
 ! D9    D(3,1,10,6)           120.0822         estimate D2E/DX2                !
 ! D10   D(3,1,10,9)           -59.7764         estimate D2E/DX2                !
 ! D11   D(4,1,10,6)            -0.0752         estimate D2E/DX2                !
 ! D12   D(4,1,10,9)          -179.9338         estimate D2E/DX2                !
 ! D13   D(1,4,5,6)             -0.0629         estimate D2E/DX2                !
 ! D14   D(1,4,5,34)           179.8713         estimate D2E/DX2                !
 ! D15   D(33,4,5,6)          -179.912          estimate D2E/DX2                !
 ! D16   D(33,4,5,34)            0.0223         estimate D2E/DX2                !
 ! D17   D(4,5,6,7)            179.9446         estimate D2E/DX2                !
 ! D18   D(4,5,6,10)             0.003          estimate D2E/DX2                !
 ! D19   D(34,5,6,7)             0.0093         estimate D2E/DX2                !
 ! D20   D(34,5,6,10)         -179.9323         estimate D2E/DX2                !
 ! D21   D(5,6,7,8)           -179.9374         estimate D2E/DX2                !
 ! D22   D(5,6,7,35)             0.0271         estimate D2E/DX2                !
 ! D23   D(10,6,7,8)             0.0056         estimate D2E/DX2                !
 ! D24   D(10,6,7,35)          179.9701         estimate D2E/DX2                !
 ! D25   D(5,6,10,1)             0.0584         estimate D2E/DX2                !
 ! D26   D(5,6,10,9)           179.9441         estimate D2E/DX2                !
 ! D27   D(7,6,10,1)          -179.8946         estimate D2E/DX2                !
 ! D28   D(7,6,10,9)            -0.0088         estimate D2E/DX2                !
 ! D29   D(6,7,8,9)             -0.0014         estimate D2E/DX2                !
 ! D30   D(35,7,8,9)          -179.9702         estimate D2E/DX2                !
 ! D31   D(7,8,9,10)            -0.0032         estimate D2E/DX2                !
 ! D32   D(7,8,9,11)           179.9978         estimate D2E/DX2                !
 ! D33   D(8,9,10,1)           179.8564         estimate D2E/DX2                !
 ! D34   D(8,9,10,6)             0.0072         estimate D2E/DX2                !
 ! D35   D(11,9,10,1)           -0.1446         estimate D2E/DX2                !
 ! D36   D(11,9,10,6)         -179.9938         estimate D2E/DX2                !
 ! D37   D(8,9,11,12)            0.0567         estimate D2E/DX2                !
 ! D38   D(8,9,11,32)         -179.9913         estimate D2E/DX2                !
 ! D39   D(10,9,11,12)        -179.9421         estimate D2E/DX2                !
 ! D40   D(10,9,11,32)           0.0099         estimate D2E/DX2                !
 ! D41   D(9,11,12,13)         179.9126         estimate D2E/DX2                !
 ! D42   D(32,11,12,13)         -0.0545         estimate D2E/DX2                !
 ! D43   D(9,11,32,28)        -179.8059         estimate D2E/DX2                !
 ! D44   D(9,11,32,31)           0.2047         estimate D2E/DX2                !
 ! D45   D(12,11,32,28)          0.1486         estimate D2E/DX2                !
 ! D46   D(12,11,32,31)       -179.8408         estimate D2E/DX2                !
 ! D47   D(11,12,13,14)       -179.9589         estimate D2E/DX2                !
 ! D48   D(11,12,13,28)         -0.0505         estimate D2E/DX2                !
 ! D49   D(12,13,14,15)        179.8483         estimate D2E/DX2                !
 ! D50   D(12,13,14,18)         -0.1287         estimate D2E/DX2                !
 ! D51   D(28,13,14,15)         -0.0454         estimate D2E/DX2                !
 ! D52   D(28,13,14,18)        179.9776         estimate D2E/DX2                !
 ! D53   D(12,13,28,29)       -179.8857         estimate D2E/DX2                !
 ! D54   D(12,13,28,32)          0.1403         estimate D2E/DX2                !
 ! D55   D(14,13,28,29)          0.0185         estimate D2E/DX2                !
 ! D56   D(14,13,28,32)       -179.9555         estimate D2E/DX2                !
 ! D57   D(13,14,15,16)       -179.6072         estimate D2E/DX2                !
 ! D58   D(18,14,15,16)          0.3698         estimate D2E/DX2                !
 ! D59   D(13,14,18,17)        179.4853         estimate D2E/DX2                !
 ! D60   D(15,14,18,17)         -0.4946         estimate D2E/DX2                !
 ! D61   D(14,15,16,17)         -0.0094         estimate D2E/DX2                !
 ! D62   D(14,15,16,36)        179.9075         estimate D2E/DX2                !
 ! D63   D(15,16,17,18)         -0.3361         estimate D2E/DX2                !
 ! D64   D(15,16,17,19)        179.7941         estimate D2E/DX2                !
 ! D65   D(36,16,17,18)        179.7545         estimate D2E/DX2                !
 ! D66   D(36,16,17,19)         -0.1152         estimate D2E/DX2                !
 ! D67   D(16,17,18,14)          0.4437         estimate D2E/DX2                !
 ! D68   D(19,17,18,14)       -179.6593         estimate D2E/DX2                !
 ! D69   D(16,17,19,20)          0.239          estimate D2E/DX2                !
 ! D70   D(16,17,19,27)       -179.7757         estimate D2E/DX2                !
 ! D71   D(18,17,19,20)       -179.6239         estimate D2E/DX2                !
 ! D72   D(18,17,19,27)          0.3613         estimate D2E/DX2                !
 ! D73   D(17,19,20,21)        179.9017         estimate D2E/DX2                !
 ! D74   D(27,19,20,21)         -0.0843         estimate D2E/DX2                !
 ! D75   D(17,19,27,23)       -179.8486         estimate D2E/DX2                !
 ! D76   D(17,19,27,26)          0.159          estimate D2E/DX2                !
 ! D77   D(20,19,27,23)          0.1363         estimate D2E/DX2                !
 ! D78   D(20,19,27,26)       -179.8561         estimate D2E/DX2                !
 ! D79   D(19,20,21,22)         -0.0579         estimate D2E/DX2                !
 ! D80   D(19,20,21,37)        179.925          estimate D2E/DX2                !
 ! D81   D(20,21,22,23)          0.1334         estimate D2E/DX2                !
 ! D82   D(20,21,22,38)       -179.9299         estimate D2E/DX2                !
 ! D83   D(37,21,22,23)       -179.8484         estimate D2E/DX2                !
 ! D84   D(37,21,22,38)          0.0884         estimate D2E/DX2                !
 ! D85   D(21,22,23,24)        179.9207         estimate D2E/DX2                !
 ! D86   D(21,22,23,27)         -0.0681         estimate D2E/DX2                !
 ! D87   D(38,22,23,24)         -0.0171         estimate D2E/DX2                !
 ! D88   D(38,22,23,27)        179.9941         estimate D2E/DX2                !
 ! D89   D(22,23,24,25)       -179.9535         estimate D2E/DX2                !
 ! D90   D(27,23,24,25)          0.0359         estimate D2E/DX2                !
 ! D91   D(22,23,27,19)         -0.0567         estimate D2E/DX2                !
 ! D92   D(22,23,27,26)        179.9371         estimate D2E/DX2                !
 ! D93   D(24,23,27,19)        179.9532         estimate D2E/DX2                !
 ! D94   D(24,23,27,26)         -0.053          estimate D2E/DX2                !
 ! D95   D(23,24,25,26)         -0.01           estimate D2E/DX2                !
 ! D96   D(24,25,26,27)         -0.0204         estimate D2E/DX2                !
 ! D97   D(25,26,27,19)       -179.9648         estimate D2E/DX2                !
 ! D98   D(25,26,27,23)          0.0423         estimate D2E/DX2                !
 ! D99   D(13,28,29,30)       -179.8767         estimate D2E/DX2                !
 ! D100  D(32,28,29,30)          0.095          estimate D2E/DX2                !
 ! D101  D(13,28,32,11)         -0.1936         estimate D2E/DX2                !
 ! D102  D(13,28,32,31)        179.7997         estimate D2E/DX2                !
 ! D103  D(29,28,32,11)        179.8306         estimate D2E/DX2                !
 ! D104  D(29,28,32,31)         -0.1762         estimate D2E/DX2                !
 ! D105  D(28,29,30,31)          0.0311         estimate D2E/DX2                !
 ! D106  D(28,29,30,39)        179.993          estimate D2E/DX2                !
 ! D107  D(29,30,31,32)         -0.1441         estimate D2E/DX2                !
 ! D108  D(29,30,31,40)        179.8469         estimate D2E/DX2                !
 ! D109  D(39,30,31,32)        179.8997         estimate D2E/DX2                !
 ! D110  D(39,30,31,40)         -0.1094         estimate D2E/DX2                !
 ! D111  D(30,31,32,11)       -179.8221         estimate D2E/DX2                !
 ! D112  D(30,31,32,28)          0.1876         estimate D2E/DX2                !
 ! D113  D(40,31,32,11)          0.188          estimate D2E/DX2                !
 ! D114  D(40,31,32,28)       -179.8023         estimate D2E/DX2                !
 --------------------------------------------------------------------------------
 Trust Radius=3.00D-01 FncErr=1.00D-07 GrdErr=1.00D-06
 Number of steps in this run=    240 maximum allowed number of steps=    240.
 GradGradGradGradGradGradGradGradGradGradGradGradGradGradGradGradGradGrad

                          Input orientation:                          
 ---------------------------------------------------------------------
 Center     Atomic      Atomic             Coordinates (Angstroms)
 Number     Number       Type             X           Y           Z
 ---------------------------------------------------------------------
      1         14           0       -1.639820    1.402720    0.003690
      2          1           0       -1.724350    2.230430   -1.228240
      3          1           0       -1.718980    2.214700    1.246050
      4          6           0       -2.356170   -0.301880    0.000590
      5          6           0       -1.393970   -1.241800   -0.000950
      6          6           0       -0.061750   -0.715060   -0.001290
      7          6           0        1.156770   -1.324170   -0.001690
      8         16           0        2.402920   -0.143250   -0.000190
      9          6           0        1.284950    1.235290    0.001000
     10          6           0        0.038850    0.700870    0.000100
     11          6           0        1.719290    2.618060    0.002580
     12         16           0        3.406870    2.826220    0.001690
     13          6           0        3.349790    4.516650    0.001460
     14          6           0        4.500240    5.309260   -0.000090
     15          7           0        4.579140    6.625200   -0.003170
     16          6           0        5.916990    6.982460   -0.012650
     17          6           0        6.805430    5.924810   -0.016220
     18         16           0        5.949060    4.491280    0.001640
     19          6           0        8.229620    5.807150   -0.028910
     20          7           0        8.936220    6.963170   -0.035520
     21          6           0       10.293360    6.916550   -0.045600
     22          6           0       11.100040    5.778890   -0.049190
     23          6           0       10.399450    4.561510   -0.044270
     24          7           0       10.948510    3.335220   -0.047850
     25         16           0        9.702660    2.245540   -0.040520
     26          7           0        8.441820    3.290920   -0.032380
     27          6           0        8.923920    4.552090   -0.034480
     28          6           0        2.073580    4.956560    0.000930
     29         16           0        1.504990    6.666870   -0.002350
     30          6           0       -0.057940    5.955290    0.003190
     31          6           0       -0.117490    4.555540    0.007770
     32          6           0        1.163160    3.885420    0.003930
     33          1           0       -3.425130   -0.428430    0.002440
     34          1           0       -1.594540   -2.306520   -0.000830
     35          1           0        1.412930   -2.376270   -0.002240
     36          1           0        6.172130    8.035050   -0.017910
     37          1           0       10.746850    7.904610   -0.051440
     38          1           0       12.174320    5.815810   -0.056230
     39          1           0       -0.878580    6.655550    0.003330
     40          1           0       -1.088690    4.102280    0.013790
 ---------------------------------------------------------------------
                    Distance matrix (angstroms):
                    1          2          3          4          5
     1  Si   0.000000
     2  H    1.486573   0.000000
     3  H    1.486283   2.474346   0.000000
     4  C    1.849007   2.884755   2.879298   0.000000
     5  C    2.655927   3.697536   3.688907   1.345095   0.000000
     6  C    2.641083   3.597993   3.589674   2.331327   1.432573
     7  C    3.906005   4.737136   4.727620   3.658665   2.552070
     8  S    4.328254   4.916993   4.909491   4.761733   3.952618
     9  C    2.929560   3.399591   3.396025   3.952296   3.648642
    10  C    1.819489   2.637659   2.633256   2.596465   2.413906
    11  C    3.572208   3.677476   3.678399   5.013524   4.958923
    12  S    5.243609   5.310095   5.310059   6.557259   6.292603
    13  C    5.881562   5.699637   5.704420   7.468347   7.460765
    14  C    7.277459   7.052168   7.057469   8.859755   8.812383
    15  N    8.120949   7.781310   7.789697   9.802192   9.877638
    16  C    9.393569   9.080172   9.089769  11.023020  11.004032
    17  C    9.579767   9.374144   9.382100  11.077313  10.889935
    18  S    8.193309   8.093533   8.095073   9.589120   9.316024
    19  C   10.807678  10.644850  10.653913  12.222114  11.929039
    20  N   11.948756  11.724724  11.735573  13.427596  13.192254
    21  C   13.145552  12.953135  12.964261  14.564288  14.253222
    22  C   13.470623  13.358395  13.368185  14.766443  14.331528
    23  C   12.446858  12.402510  12.410834  13.651389  13.144012
    24  N   12.735905  12.775573  12.782607  13.792946  13.163895
    25  S   11.373836  11.488580  11.493915  12.325032  11.631780
    26  N   10.257001  10.291051  10.297305  11.380065  10.830019
    27  C   11.023275  10.963614  10.971530  12.280174  11.833391
    28  C    5.139954   4.833934   4.842688   6.875600   7.102364
    29  S    6.131977   5.622583   5.636870   7.966934   8.423244
    30  C    4.819568   4.262385   4.277355   6.665887   7.320048
    31  C    3.501111   3.084778   3.094776   5.348483   5.936213
    32  C    3.744395   3.548936   3.555404   5.469842   5.729513
    33  H    2.557429   3.387737   3.382846   1.076426   2.187966
    34  H    3.709519   4.701840   4.691655   2.144450   1.083447
    35  H    4.857992   5.706776   5.695972   4.302234   3.027493
    36  H   10.247674   9.874862   9.886541  11.926301  11.971053
    37  H   13.989539  13.751800  13.764283  15.460864  15.200621
    38  H   14.502049  14.401444  14.411374  15.765928  15.294163
    39  H    5.307703   4.670522   4.687406   7.112602   7.914151
    40  H    2.755262   2.334636   2.340660   4.582936   5.352813
                    6          7          8          9         10
     6  C    0.000000
     7  C    1.362280   0.000000
     8  S    2.530132   1.716818   0.000000
     9  C    2.370121   2.562669   1.774889   0.000000
    10  C    1.419500   2.313122   2.510252   1.355865   0.000000
    11  C    3.779128   3.982163   2.844678   1.449381   2.549412
    12  S    4.957015   4.721091   3.134593   2.652094   3.982546
    13  C    6.245751   6.238952   4.755127   3.876969   5.051980
    14  C    7.556731   7.428404   5.841970   5.189925   6.414145
    15  N    8.684312   8.654773   7.109702   6.316869   7.464042
    16  C    9.746655   9.573919   7.945098   7.381459   8.602968
    17  C    9.552291   9.189955   7.496913   7.243452   8.548475
    18  S    7.952095   7.535616   5.835579   5.688180   7.021239
    19  C   10.549256  10.043987   8.328176   8.314520   9.652132
    20  N   11.828772  11.366661   9.653314   9.557818  10.880297
    21  C   12.863582  12.304010  10.587818  10.650368  11.991319
    22  C   12.913529  12.219834  10.522074  10.815859  12.171222
    23  C   11.716687  10.957654   9.277996   9.702572  11.056606
    24  N   11.731699  10.843902   9.226545   9.889210  11.223314
    25  S   10.203450   9.261564   7.680765   8.478217   9.786566
    26  N    9.399976   8.623917   6.947149   7.446309   8.793140
    27  C   10.415673   9.739616   8.035598   8.328042   9.683881
    28  C    6.060273   6.347292   5.110433   3.803917   4.717099
    29  S    7.546361   7.998623   6.869062   5.436036   6.143511
    30  C    6.670353   7.380114   6.576324   4.907317   5.255312
    31  C    5.270903   6.016213   5.332088   3.604295   3.857847
    32  C    4.760761   5.209597   4.215116   2.652929   3.377195
    33  H    3.375573   4.668637   5.835024   4.995280   3.643416
    34  H    2.209568   2.921424   4.545264   4.564634   3.422332
    35  H    2.221329   1.082835   2.442634   3.613828   3.369999
    36  H   10.743647  10.618338   9.005101   8.373865   9.560735
    37  H   13.824871  13.309489  11.592750  11.576274  12.905727
    38  H   13.869992  13.128926  11.445252  11.813671  13.169488
    39  H    7.415735   8.235205   7.549300   5.836102   6.024940
    40  H    4.925606   5.872707   5.496914   3.722091   3.583451
                   11         12         13         14         15
    11  C    0.000000
    12  S    1.700370   0.000000
    13  C    2.502634   1.691393   0.000000
    14  C    3.869916   2.713107   1.397057   0.000000
    15  N    4.923002   3.975738   2.440759   1.318307   0.000000
    16  C    6.055485   4.855434   3.559626   2.192473   1.384763
    17  C    6.066611   4.599108   3.731578   2.386014   2.333899
    18  S    4.626003   3.038940   2.599394   1.663783   2.535807
    19  C    7.249530   5.669726   5.047678   3.762579   3.741106
    20  N    8.424103   6.905755   6.098773   4.734405   4.370288
    21  C    9.591351   8.009793   7.346761   6.012129   5.721800
    22  C    9.899091   8.240492   7.852528   6.616670   6.575751
    23  C    8.895188   7.204826   7.049951   5.946576   6.175477
    24  N    9.257179   7.558960   7.690173   6.743834   7.169019
    25  S    7.992173   6.322653   6.746752   6.037648   6.740421
    26  N    6.756210   5.056464   5.237588   4.428407   5.102801
    27  C    7.459795   5.780811   5.574359   4.488144   4.814133
    28  C    2.365186   2.513168   1.349901   2.452158   3.010350
    29  S    4.054480   4.285762   2.833152   3.288561   3.074433
    30  C    3.780959   4.668618   3.698961   4.603734   4.685225
    31  C    2.669760   3.925774   3.467504   4.678845   5.132441
    32  C    1.384010   2.481158   2.275919   3.628145   4.378968
    33  H    5.978809   7.567627   8.387691   9.784303  10.668742
    34  H    5.935737   7.166528   8.426272   9.754304  10.857714
    35  H    5.003720   5.571509   7.159873   8.282443   9.542083
    36  H    7.012274   5.897369   4.510556   3.197728   2.127325
    37  H   10.461710   8.925703   8.136189   6.764511   6.299196
    38  H   10.933285   9.263325   8.919836   7.690985   7.638369
    39  H    4.801068   5.747073   4.738566   5.544746   5.457808
    40  H    3.176128   4.673172   4.457798   5.717791   6.204008
                   16         17         18         19         20
    16  C    0.000000
    17  C    1.381290   0.000000
    18  S    2.491427   1.669939   0.000000
    19  C    2.594200   1.429098   2.633135   0.000000
    20  N    3.019378   2.370407   3.877466   1.354884   0.000000
    21  C    4.376990   3.626302   4.975652   2.343090   1.357978
    22  C    5.321083   4.297215   5.309719   2.870631   2.466743
    23  C    5.094551   3.844002   4.451181   2.502003   2.812310
    24  N    6.214482   4.885907   5.131610   3.674665   4.148673
    25  S    6.063867   4.683114   4.374316   3.854225   4.779486
    26  N    4.472429   3.100872   2.766925   2.525164   3.705383
    27  C    3.866368   2.524419   2.975701   1.434315   2.411112
    28  C    4.344681   4.829928   3.903310   6.214598   7.150080
    29  S    4.423285   5.352150   4.948026   6.779415   7.437209
    30  C    6.062600   6.863465   6.182829   8.288946   9.050538
    31  C    6.504253   7.057074   6.066893   8.440505   9.368470
    32  C    5.673696   5.999561   4.824097   7.323181   8.360297
    33  H   11.924627  12.042772  10.586736  13.218042  14.402783
    34  H   11.946061  11.760720  10.154604  12.741529  14.029443
    35  H   10.386168   9.898847   8.230415  10.650650  11.992754
    36  H    1.083083   2.203221   3.550838   3.032643   2.964697
    37  H    4.917257   4.410855   5.888330   3.276628   2.040819
    38  H    6.365308   5.370145   6.364872   3.944804   3.435427
    39  H    6.803447   7.718703   7.162453   9.147684   9.819696
    40  H    7.574674   8.101830   7.048503   9.473083  10.425255
                   21         22         23         24         25
    21  C    0.000000
    22  C    1.394638   0.000000
    23  C    2.357429   1.404587   0.000000
    24  N    3.640762   2.448364   1.343602   0.000000
    25  S    4.708215   3.799646   2.418522   1.655173   0.000000
    26  N    4.071065   3.640935   2.333850   2.507129   1.637865
    27  C    2.732428   2.498150   1.475593   2.362185   2.434470
    28  C    8.450356   9.063979   8.335360   9.021946   8.096555
    29  S    8.792022   9.636166   9.140335  10.014092   9.314044
    30  C   10.395952  11.159497  10.549971  11.314120  10.441909
    31  C   10.675346  11.284184  10.517070  11.133222  10.088299
    32  C    9.620330  10.115811   9.261127   9.800943   8.695645
    33  H   15.561106  15.796014  14.697643  14.858301  13.397419
    34  H   15.046235  15.050866  13.821271  13.753528  12.179883
    35  H   12.853810  12.662896  11.353066  11.115327   9.491165
    36  H    4.270403   5.419920   5.471417   6.700978   6.781119
    37  H    1.087175   2.154863   3.361109   4.573839   5.754609
    38  H    2.179393   1.074937   2.173379   2.766949   4.342370
    39  H   11.175095  12.010771  11.470886  12.284432  11.463540
    40  H   11.724961  12.303663  11.497462  12.061773  10.950053
                   26         27         28         29         30
    26  N    0.000000
    27  C    1.350176   0.000000
    28  C    6.582549   6.862362   0.000000
    29  S    7.714762   7.714522   1.802350   0.000000
    30  C    8.907640   9.090885   2.353900   1.717302   0.000000
    31  C    8.652321   9.041509   2.227477   2.662754   1.401024
    32  C    7.302988   7.789436   1.405779   2.802383   2.403216
    33  H   12.436208  13.315629   7.696358   8.639988   7.217330
    34  H   11.491773  12.557056   8.136795   9.493620   8.403491
    35  H    9.029022  10.218522   7.362531   9.043609   8.460401
    36  H    5.259132   4.438877   5.125970   4.863574   6.568076
    37  H    5.157486   3.816117   9.160751   9.324505  10.979359
    38  H    4.506350   3.487486  10.137383  10.703355  12.233200
    39  H    9.909181  10.025716   3.406145   2.383604   1.078802
    40  H    9.565096  10.022825   3.275654   3.647541   2.120425
                   31         32         33         34         35
    31  C    0.000000
    32  C    1.445386   0.000000
    33  H    5.981678   6.297754   0.000000
    34  H    7.019232   6.778278   2.622650   0.000000
    35  H    7.098752   6.266673   5.215451   3.008279   0.000000
    36  H    7.187974   6.504590  12.796027  12.933272  11.447524
    37  H   11.368978  10.392501  16.440422  16.018104  13.885999
    38  H   12.356414  11.179252  16.802881  15.986145  13.524814
    39  H    2.233679   3.441268   7.527795   8.990624   9.317984
    40  H    1.071779   2.262290   5.097687   6.428749   6.944780
                   36         37         38         39         40
    36  H    0.000000
    37  H    4.576702   0.000000
    38  H    6.399436   2.529976   0.000000
    39  H    7.184426  11.692467  13.080019   0.000000
    40  H    8.257554  12.431491  13.373426   2.561922   0.000000
 Stoichiometry    C20H10N4S5Si
 Framework group  C1[X(C20H10N4S5Si)]
 Deg. of freedom   114
 Full point group                 C1      NOp   1
 Largest Abelian subgroup         C1      NOp   1
 Largest concise Abelian subgroup C1      NOp   1
                         Standard orientation:                         
 ---------------------------------------------------------------------
 Center     Atomic      Atomic             Coordinates (Angstroms)
 Number     Number       Type             X           Y           Z
 ---------------------------------------------------------------------
      1         14           0        6.095420    0.208353    0.007999
      2          1           0        5.862448    1.005155    1.241178
      3          1           0        5.872313    0.995033   -1.233127
      4          6           0        7.392868   -1.109006    0.012379
      5          6           0        6.847893   -2.338750    0.008714
      6          6           0        5.415337   -2.343664    0.003819
      7          6           0        4.509636   -3.361251   -0.001746
      8         16           0        2.914394   -2.726715   -0.007399
      9          6           0        3.441352   -1.031864   -0.002232
     10          6           0        4.796775   -1.066025    0.003519
     11          6           0        2.525154    0.091205   -0.004211
     12         16           0        0.880738   -0.341364   -0.010447
     13          6           0        0.306796    1.249673   -0.008144
     14          6           0       -1.055566    1.559077   -0.010749
     15          7           0       -1.616908    2.751894   -0.006593
     16          6           0       -2.991869    2.587475   -0.002555
     17          6           0       -3.424689    1.275749   -0.003996
     18         16           0       -2.097666    0.262111   -0.019673
     19          6           0       -4.703704    0.638252    0.002363
     20          7           0       -5.788675    1.449747    0.007143
     21          6           0       -7.031760    0.903097    0.011262
     22          6           0       -7.358978   -0.452610    0.010110
     23          6           0       -6.256837   -1.323322    0.006928
     24          7           0       -6.311939   -2.665794    0.006792
     25         16           0       -4.750782   -3.215685    0.003713
     26          7           0       -3.967557   -1.777228    0.002193
     27          6           0       -4.883023   -0.784809    0.003555
     28          6           0        1.328821    2.131520   -0.001580
     29         16           0        1.222521    3.930717    0.006023
     30          6           0        2.937904    3.849552    0.006522
     31          6           0        3.512365    2.571730    0.000691
     32          6           0        2.571581    1.474433   -0.001771
     33          1           0        8.432524   -0.830076    0.015049
     34          1           0        7.429042   -3.253147    0.008318
     35          1           0        4.661950   -4.433319   -0.003447
     36          1           0       -3.619216    3.470355    0.002730
     37          1           0       -7.819379    1.652485    0.016193
     38          1           0       -8.370351   -0.816764    0.012510
     39          1           0        3.440297    4.804223    0.010713
     40          1           0        4.582420    2.511006   -0.001588
 ---------------------------------------------------------------------
 Rotational constants (GHZ):      0.2226849      0.0554250      0.0444036
 Standard basis: 6-31++G(d,p) (6D, 7F)
 There are   654 symmetry adapted basis functions of A   symmetry.
 Integral buffers will be    131072 words long.
 Raffenetti 2 integral format.
 Two-electron integral symmetry is turned on.
   654 basis functions,  1184 primitive gaussians,   654 cartesian basis functions
   126 alpha electrons      126 beta electrons
       nuclear repulsion energy      3615.0791731014 Hartrees.
 NAtoms=   40 NActive=   40 NUniq=   40 SFac= 1.00D+00 NAtFMM=   60 NAOKFM=F Big=F
 One-electron integrals computed using PRISM.
 NBasis=   654 RedAO= T  NBF=   654
 NBsUse=   645 1.00D-06 NBFU=   645
 Harris functional with IExCor=  402 diagonalized for initial guess.
 ExpMin= 3.31D-02 ExpMax= 2.19D+04 ExpMxC= 3.30D+03 IAcc=3 IRadAn=         5 AccDes= 0.00D+00
 HarFok:  IExCor=  402 AccDes= 0.00D+00 IRadAn=         5 IDoV= 1
 ScaDFX=  1.000000  1.000000  1.000000  1.000000
 FoFCou: FMM=F IPFlag=           0 FMFlag=      100000 FMFlg1=           0
         NFxFlg=           0 DoJE=T BraDBF=F KetDBF=T FulRan=T
         Omega=  0.000000  0.000000  1.000000  0.000000  0.000000 ICntrl=     500 IOpCl=  0
         NMat0=    1 NMatS0=    1 NMatT0=    0 NMatD0=    1 NMtDS0=    0 NMtDT0=    0
         I1Cent=           4 NGrid=           0.
 Petite list used in FoFCou.
 Initial guess orbital symmetries:
       Occupied  (A) (A) (A) (A) (A) (A) (A) (A) (A) (A) (A) (A)
                 (A) (A) (A) (A) (A) (A) (A) (A) (A) (A) (A) (A)
                 (A) (A) (A) (A) (A) (A) (A) (A) (A) (A) (A) (A)
                 (A) (A) (A) (A) (A) (A) (A) (A) (A) (A) (A) (A)
                 (A) (A) (A) (A) (A) (A) (A) (A) (A) (A) (A) (A)
                 (A) (A) (A) (A) (A) (A) (A) (A) (A) (A) (A) (A)
                 (A) (A) (A) (A) (A) (A) (A) (A) (A) (A) (A) (A)
                 (A) (A) (A) (A) (A) (A) (A) (A) (A) (A) (A) (A)
                 (A) (A) (A) (A) (A) (A) (A) (A) (A) (A) (A) (A)
                 (A) (A) (A) (A) (A) (A) (A) (A) (A) (A) (A) (A)
                 (A) (A) (A) (A) (A) (A)
       Virtual   (A) (A) (A) (A) (A) (A) (A) (A) (A) (A) (A) (A)
                 (A) (A) (A) (A) (A) (A) (A) (A) (A) (A) (A) (A)
                 (A) (A) (A) (A) (A) (A) (A) (A) (A) (A) (A) (A)
                 (A) (A) (A) (A) (A) (A) (A) (A) (A) (A) (A) (A)
                 (A) (A) (A) (A) (A) (A) (A) (A) (A) (A) (A) (A)
                 (A) (A) (A) (A) (A) (A) (A) (A) (A) (A) (A) (A)
                 (A) (A) (A) (A) (A) (A) (A) (A) (A) (A) (A) (A)
                 (A) (A) (A) (A) (A) (A) (A) (A) (A) (A) (A) (A)
                 (A) (A) (A) (A) (A) (A) (A) (A) (A) (A) (A) (A)
                 (A) (A) (A) (A) (A) (A) (A) (A) (A) (A) (A) (A)
                 (A) (A) (A) (A) (A) (A) (A) (A) (A) (A) (A) (A)
                 (A) (A) (A) (A) (A) (A) (A) (A) (A) (A) (A) (A)
                 (A) (A) (A) (A) (A) (A) (A) (A) (A) (A) (A) (A)
                 (A) (A) (A) (A) (A) (A) (A) (A) (A) (A) (A) (A)
                 (A) (A) (A) (A) (A) (A) (A) (A) (A) (A) (A) (A)
                 (A) (A) (A) (A) (A) (A) (A) (A) (A) (A) (A) (A)
                 (A) (A) (A) (A) (A) (A) (A) (A) (A) (A) (A) (A)
                 (A) (A) (A) (A) (A) (A) (A) (A) (A) (A) (A) (A)
                 (A) (A) (A) (A) (A) (A) (A) (A) (A) (A) (A) (A)
                 (A) (A) (A) (A) (A) (A) (A) (A) (A) (A) (A) (A)
                 (A) (A) (A) (A) (A) (A) (A) (A) (A) (A) (A) (A)
                 (A) (A) (A) (A) (A) (A) (A) (A) (A) (A) (A) (A)
                 (A) (A) (A) (A) (A) (A) (A) (A) (A) (A) (A) (A)
                 (A) (A) (A) (A) (A) (A) (A) (A) (A) (A) (A) (A)
                 (A) (A) (A) (A) (A) (A) (A) (A) (A) (A) (A) (A)
                 (A) (A) (A) (A) (A) (A) (A) (A) (A) (A) (A) (A)
                 (A) (A) (A) (A) (A) (A) (A) (A) (A) (A) (A) (A)
                 (A) (A) (A) (A) (A) (A) (A) (A) (A) (A) (A) (A)
                 (A) (A) (A) (A) (A) (A) (A) (A) (A) (A) (A) (A)
                 (A) (A) (A) (A) (A) (A) (A) (A) (A) (A) (A) (A)
                 (A) (A) (A) (A) (A) (A) (A) (A) (A) (A) (A) (A)
                 (A) (A) (A) (A) (A) (A) (A) (A) (A) (A) (A) (A)
                 (A) (A) (A) (A) (A) (A) (A) (A) (A) (A) (A) (A)
                 (A) (A) (A) (A) (A) (A) (A) (A) (A) (A) (A) (A)
                 (A) (A) (A) (A) (A) (A) (A) (A) (A) (A) (A) (A)
                 (A) (A) (A) (A) (A) (A) (A) (A) (A) (A) (A) (A)
                 (A) (A) (A) (A) (A) (A) (A) (A) (A) (A) (A) (A)
                 (A) (A) (A) (A) (A) (A) (A) (A) (A) (A) (A) (A)
                 (A) (A) (A) (A) (A) (A) (A) (A) (A) (A) (A) (A)
                 (A) (A) (A) (A) (A) (A) (A) (A) (A) (A) (A) (A)
                 (A) (A) (A) (A) (A) (A) (A) (A) (A) (A) (A) (A)
                 (A) (A) (A) (A) (A) (A) (A) (A) (A) (A) (A) (A)
                 (A) (A) (A) (A) (A) (A) (A) (A) (A) (A) (A) (A)
                 (A) (A) (A)
 The electronic state of the initial guess is 1-A.
 Requested convergence on RMS density matrix=1.00D-08 within 128 cycles.
 Requested convergence on MAX density matrix=1.00D-06.
 Requested convergence on             energy=1.00D-06.
 No special actions if energy rises.
 Rare condition: small coef for last iteration:  0.000D+00
 EnCoef did   100 forward-backward iterations
 Restarting incremental Fock formation.
 SCF Done:  E(RB3LYP) =  -3267.51565595     A.U. after   32 cycles
             Convg  =    0.5841D-08             -V/T =  2.0049

 **********************************************************************

            Population analysis using the SCF density.

 **********************************************************************

 Orbital symmetries:
       Occupied  (A) (A) (A) (A) (A) (A) (A) (A) (A) (A) (A) (A)
                 (A) (A) (A) (A) (A) (A) (A) (A) (A) (A) (A) (A)
                 (A) (A) (A) (A) (A) (A) (A) (A) (A) (A) (A) (A)
                 (A) (A) (A) (A) (A) (A) (A) (A) (A) (A) (A) (A)
                 (A) (A) (A) (A) (A) (A) (A) (A) (A) (A) (A) (A)
                 (A) (A) (A) (A) (A) (A) (A) (A) (A) (A) (A) (A)
                 (A) (A) (A) (A) (A) (A) (A) (A) (A) (A) (A) (A)
                 (A) (A) (A) (A) (A) (A) (A) (A) (A) (A) (A) (A)
                 (A) (A) (A) (A) (A) (A) (A) (A) (A) (A) (A) (A)
                 (A) (A) (A) (A) (A) (A) (A) (A) (A) (A) (A) (A)
                 (A) (A) (A) (A) (A) (A)
       Virtual   (A) (A) (A) (A) (A) (A) (A) (A) (A) (A) (A) (A)
                 (A) (A) (A) (A) (A) (A) (A) (A) (A) (A) (A) (A)
                 (A) (A) (A) (A) (A) (A) (A) (A) (A) (A) (A) (A)
                 (A) (A) (A) (A) (A) (A) (A) (A) (A) (A) (A) (A)
                 (A) (A) (A) (A) (A) (A) (A) (A) (A) (A) (A) (A)
                 (A) (A) (A) (A) (A) (A) (A) (A) (A) (A) (A) (A)
                 (A) (A) (A) (A) (A) (A) (A) (A) (A) (A) (A) (A)
                 (A) (A) (A) (A) (A) (A) (A) (A) (A) (A) (A) (A)
                 (A) (A) (A) (A) (A) (A) (A) (A) (A) (A) (A) (A)
                 (A) (A) (A) (A) (A) (A) (A) (A) (A) (A) (A) (A)
                 (A) (A) (A) (A) (A) (A) (A) (A) (A) (A) (A) (A)
                 (A) (A) (A) (A) (A) (A) (A) (A) (A) (A) (A) (A)
                 (A) (A) (A) (A) (A) (A) (A) (A) (A) (A) (A) (A)
                 (A) (A) (A) (A) (A) (A) (A) (A) (A) (A) (A) (A)
                 (A) (A) (A) (A) (A) (A) (A) (A) (A) (A) (A) (A)
                 (A) (A) (A) (A) (A) (A) (A) (A) (A) (A) (A) (A)
                 (A) (A) (A) (A) (A) (A) (A) (A) (A) (A) (A) (A)
                 (A) (A) (A) (A) (A) (A) (A) (A) (A) (A) (A) (A)
                 (A) (A) (A) (A) (A) (A) (A) (A) (A) (A) (A) (A)
                 (A) (A) (A) (A) (A) (A) (A) (A) (A) (A) (A) (A)
                 (A) (A) (A) (A) (A) (A) (A) (A) (A) (A) (A) (A)
                 (A) (A) (A) (A) (A) (A) (A) (A) (A) (A) (A) (A)
                 (A) (A) (A) (A) (A) (A) (A) (A) (A) (A) (A) (A)
                 (A) (A) (A) (A) (A) (A) (A) (A) (A) (A) (A) (A)
                 (A) (A) (A) (A) (A) (A) (A) (A) (A) (A) (A) (A)
                 (A) (A) (A) (A) (A) (A) (A) (A) (A) (A) (A) (A)
                 (A) (A) (A) (A) (A) (A) (A) (A) (A) (A) (A) (A)
                 (A) (A) (A) (A) (A) (A) (A) (A) (A) (A) (A) (A)
                 (A) (A) (A) (A) (A) (A) (A) (A) (A) (A) (A) (A)
                 (A) (A) (A) (A) (A) (A) (A) (A) (A) (A) (A) (A)
                 (A) (A) (A) (A) (A) (A) (A) (A) (A) (A) (A) (A)
                 (A) (A) (A) (A) (A) (A) (A) (A) (A) (A) (A) (A)
                 (A) (A) (A) (A) (A) (A) (A) (A) (A) (A) (A) (A)
                 (A) (A) (A) (A) (A) (A) (A) (A) (A) (A) (A) (A)
                 (A) (A) (A) (A) (A) (A) (A) (A) (A) (A) (A) (A)
                 (A) (A) (A) (A) (A) (A) (A) (A) (A) (A) (A) (A)
                 (A) (A) (A) (A) (A) (A) (A) (A) (A) (A) (A) (A)
                 (A) (A) (A) (A) (A) (A) (A) (A) (A) (A) (A) (A)
                 (A) (A) (A) (A) (A) (A) (A) (A) (A) (A) (A) (A)
                 (A) (A) (A) (A) (A) (A) (A) (A) (A) (A) (A) (A)
                 (A) (A) (A) (A) (A) (A) (A) (A) (A) (A) (A) (A)
                 (A) (A) (A) (A) (A) (A) (A) (A) (A) (A) (A) (A)
                 (A) (A) (A) (A) (A) (A) (A) (A) (A) (A) (A) (A)
                 (A) (A) (A)
 The electronic state is 1-A.
 Alpha  occ. eigenvalues --  -89.00046 -88.93000 -88.92244 -88.92226 -88.92191
 Alpha  occ. eigenvalues --  -66.13150 -14.39866 -14.38994 -14.35873 -14.35333
 Alpha  occ. eigenvalues --  -10.27505 -10.27143 -10.26689 -10.26346 -10.25367
 Alpha  occ. eigenvalues --  -10.24887 -10.24671 -10.24178 -10.23709 -10.23574
 Alpha  occ. eigenvalues --  -10.23495 -10.23123 -10.22995 -10.22503 -10.22114
 Alpha  occ. eigenvalues --  -10.22035 -10.21009 -10.20950 -10.19125 -10.18059
 Alpha  occ. eigenvalues --   -8.05306  -7.99164  -7.98583  -7.98197  -7.98043
 Alpha  occ. eigenvalues --   -6.01868  -6.01278  -6.01073  -5.95600  -5.95184
 Alpha  occ. eigenvalues --   -5.94966  -5.94839  -5.94640  -5.94555  -5.94498
 Alpha  occ. eigenvalues --   -5.94297  -5.94234  -5.94163  -5.93887  -5.93664
 Alpha  occ. eigenvalues --   -5.28205  -3.64116  -3.64007  -3.63993  -1.03734
 Alpha  occ. eigenvalues --   -0.99304  -0.95990  -0.93957  -0.91187  -0.90606
 Alpha  occ. eigenvalues --   -0.86494  -0.84494  -0.82988  -0.81888  -0.81275
 Alpha  occ. eigenvalues --   -0.78442  -0.76207  -0.75224  -0.73727  -0.71737
 Alpha  occ. eigenvalues --   -0.70326  -0.69127  -0.65295  -0.64576  -0.63251
 Alpha  occ. eigenvalues --   -0.61914  -0.60239  -0.59066  -0.58591  -0.56662
 Alpha  occ. eigenvalues --   -0.55561  -0.54422  -0.53615  -0.52550  -0.50764
 Alpha  occ. eigenvalues --   -0.50021  -0.49218  -0.48354  -0.47541  -0.46316
 Alpha  occ. eigenvalues --   -0.45792  -0.45654  -0.44390  -0.43817  -0.43725
 Alpha  occ. eigenvalues --   -0.43173  -0.42560  -0.42316  -0.41318  -0.40328
 Alpha  occ. eigenvalues --   -0.39881  -0.39332  -0.39070  -0.37830  -0.37351
 Alpha  occ. eigenvalues --   -0.37166  -0.36725  -0.36076  -0.35336  -0.34748
 Alpha  occ. eigenvalues --   -0.34146  -0.33611  -0.33300  -0.32325  -0.31162
 Alpha  occ. eigenvalues --   -0.30476  -0.30188  -0.29754  -0.28814  -0.28546
 Alpha  occ. eigenvalues --   -0.27872  -0.26660  -0.25817  -0.23837  -0.23606
 Alpha  occ. eigenvalues --   -0.19758
 Alpha virt. eigenvalues --   -0.12307  -0.08561  -0.05477  -0.04418  -0.02749
 Alpha virt. eigenvalues --   -0.02633  -0.02203  -0.01860  -0.01148  -0.01047
 Alpha virt. eigenvalues --   -0.00976  -0.00576  -0.00431   0.00340   0.00878
 Alpha virt. eigenvalues --    0.01283   0.01360   0.01729   0.01909   0.02488
 Alpha virt. eigenvalues --    0.02667   0.02908   0.03542   0.03598   0.03767
 Alpha virt. eigenvalues --    0.04155   0.04324   0.04464   0.04939   0.05079
 Alpha virt. eigenvalues --    0.05419   0.05501   0.05805   0.05863   0.06295
 Alpha virt. eigenvalues --    0.06518   0.06787   0.07352   0.07665   0.07936
 Alpha virt. eigenvalues --    0.08372   0.08576   0.08596   0.09040   0.09077
 Alpha virt. eigenvalues --    0.09479   0.09666   0.09784   0.09991   0.10362
 Alpha virt. eigenvalues --    0.10685   0.10736   0.11102   0.11204   0.11256
 Alpha virt. eigenvalues --    0.11456   0.11710   0.11871   0.11941   0.12195
 Alpha virt. eigenvalues --    0.12384   0.12589   0.12763   0.12777   0.12854
 Alpha virt. eigenvalues --    0.13338   0.13355   0.13731   0.13769   0.14179
 Alpha virt. eigenvalues --    0.14280   0.14410   0.14710   0.14762   0.14937
 Alpha virt. eigenvalues --    0.15229   0.15446   0.15496   0.15772   0.16150
 Alpha virt. eigenvalues --    0.16430   0.16819   0.17136   0.17400   0.17682
 Alpha virt. eigenvalues --    0.17781   0.17845   0.18025   0.18842   0.18933
 Alpha virt. eigenvalues --    0.19004   0.19397   0.19755   0.19918   0.20223
 Alpha virt. eigenvalues --    0.20537   0.20554   0.20602   0.20891   0.21212
 Alpha virt. eigenvalues --    0.21577   0.21809   0.21878   0.22314   0.22518
 Alpha virt. eigenvalues --    0.22554   0.22928   0.23207   0.23371   0.23430
 Alpha virt. eigenvalues --    0.23926   0.24073   0.24333   0.24463   0.24653
 Alpha virt. eigenvalues --    0.24769   0.25393   0.25810   0.25945   0.26180
 Alpha virt. eigenvalues --    0.26394   0.26447   0.27023   0.27112   0.27414
 Alpha virt. eigenvalues --    0.27601   0.27632   0.27876   0.28370   0.28588
 Alpha virt. eigenvalues --    0.28706   0.29189   0.29240   0.29535   0.29636
 Alpha virt. eigenvalues --    0.29789   0.30262   0.30855   0.31323   0.31345
 Alpha virt. eigenvalues --    0.32003   0.32231   0.32710   0.32853   0.33663
 Alpha virt. eigenvalues --    0.33671   0.33956   0.34236   0.34412   0.35073
 Alpha virt. eigenvalues --    0.35211   0.35936   0.36101   0.36122   0.36784
 Alpha virt. eigenvalues --    0.37060   0.37471   0.38172   0.38483   0.38642
 Alpha virt. eigenvalues --    0.39269   0.40075   0.40936   0.41083   0.41622
 Alpha virt. eigenvalues --    0.42637   0.42768   0.43249   0.43915   0.44271
 Alpha virt. eigenvalues --    0.45193   0.45934   0.47010   0.47090   0.48479
 Alpha virt. eigenvalues --    0.48853   0.49289   0.49910   0.50131   0.50919
 Alpha virt. eigenvalues --    0.50986   0.52246   0.52447   0.53254   0.55493
 Alpha virt. eigenvalues --    0.55618   0.55844   0.56301   0.57235   0.57837
 Alpha virt. eigenvalues --    0.58636   0.59203   0.59831   0.60121   0.62348
 Alpha virt. eigenvalues --    0.62630   0.63622   0.64088   0.64154   0.64711
 Alpha virt. eigenvalues --    0.65320   0.65617   0.65961   0.66071   0.66464
 Alpha virt. eigenvalues --    0.66556   0.66806   0.66978   0.67432   0.67663
 Alpha virt. eigenvalues --    0.68206   0.68242   0.69011   0.69211   0.70197
 Alpha virt. eigenvalues --    0.70408   0.71214   0.71529   0.71809   0.72029
 Alpha virt. eigenvalues --    0.72300   0.73246   0.73918   0.74081   0.74605
 Alpha virt. eigenvalues --    0.76124   0.76332   0.76961   0.77431   0.77500
 Alpha virt. eigenvalues --    0.77966   0.78985   0.79624   0.79744   0.80054
 Alpha virt. eigenvalues --    0.80404   0.81186   0.81231   0.81497   0.82460
 Alpha virt. eigenvalues --    0.83394   0.83582   0.83785   0.84588   0.85028
 Alpha virt. eigenvalues --    0.86699   0.87387   0.88048   0.88346   0.89440
 Alpha virt. eigenvalues --    0.89772   0.90902   0.91162   0.92356   0.92783
 Alpha virt. eigenvalues --    0.93361   0.94124   0.94825   0.95348   0.95607
 Alpha virt. eigenvalues --    0.95742   0.96792   0.97712   0.98815   0.99361
 Alpha virt. eigenvalues --    0.99770   1.00476   1.00523   1.00713   1.01178
 Alpha virt. eigenvalues --    1.01767   1.02145   1.02856   1.03945   1.04477
 Alpha virt. eigenvalues --    1.05599   1.05972   1.06285   1.06315   1.06537
 Alpha virt. eigenvalues --    1.07773   1.08478   1.08696   1.09494   1.10671
 Alpha virt. eigenvalues --    1.11932   1.12577   1.13496   1.14033   1.14476
 Alpha virt. eigenvalues --    1.14637   1.15278   1.15989   1.16729   1.17103
 Alpha virt. eigenvalues --    1.17971   1.18384   1.18468   1.19448   1.19991
 Alpha virt. eigenvalues --    1.21014   1.21567   1.22013   1.22464   1.23582
 Alpha virt. eigenvalues --    1.24090   1.24147   1.24559   1.26073   1.26117
 Alpha virt. eigenvalues --    1.26196   1.26980   1.27853   1.29368   1.29815
 Alpha virt. eigenvalues --    1.30028   1.30310   1.30966   1.31832   1.32263
 Alpha virt. eigenvalues --    1.33595   1.34284   1.34813   1.35280   1.35731
 Alpha virt. eigenvalues --    1.36425   1.36495   1.38574   1.38670   1.38875
 Alpha virt. eigenvalues --    1.39290   1.41367   1.41715   1.42941   1.44237
 Alpha virt. eigenvalues --    1.45330   1.45561   1.46466   1.47189   1.48649
 Alpha virt. eigenvalues --    1.50334   1.51552   1.53955   1.54973   1.55598
 Alpha virt. eigenvalues --    1.56903   1.57661   1.59954   1.60773   1.62086
 Alpha virt. eigenvalues --    1.63061   1.64918   1.65172   1.67608   1.68226
 Alpha virt. eigenvalues --    1.69535   1.70317   1.70349   1.73673   1.74687
 Alpha virt. eigenvalues --    1.76093   1.76281   1.78654   1.78924   1.80766
 Alpha virt. eigenvalues --    1.81934   1.82648   1.84170   1.84370   1.86050
 Alpha virt. eigenvalues --    1.87346   1.88612   1.89502   1.89668   1.90111
 Alpha virt. eigenvalues --    1.91700   1.92057   1.92321   1.95042   1.95480
 Alpha virt. eigenvalues --    1.96433   1.97397   1.98549   1.99220   2.00808
 Alpha virt. eigenvalues --    2.00828   2.02259   2.04850   2.05310   2.06266
 Alpha virt. eigenvalues --    2.09586   2.10694   2.10891   2.11756   2.12219
 Alpha virt. eigenvalues --    2.13024   2.14503   2.15548   2.16136   2.16898
 Alpha virt. eigenvalues --    2.17231   2.19336   2.19652   2.22043   2.22696
 Alpha virt. eigenvalues --    2.23119   2.24326   2.26195   2.26309   2.26983
 Alpha virt. eigenvalues --    2.27713   2.27746   2.29706   2.30864   2.31963
 Alpha virt. eigenvalues --    2.32861   2.33050   2.33286   2.34862   2.37620
 Alpha virt. eigenvalues --    2.38462   2.39981   2.40287   2.40694   2.41039
 Alpha virt. eigenvalues --    2.41895   2.42229   2.43184   2.43314   2.44250
 Alpha virt. eigenvalues --    2.46019   2.46393   2.46733   2.47246   2.47333
 Alpha virt. eigenvalues --    2.49692   2.52676   2.52870   2.54394   2.56037
 Alpha virt. eigenvalues --    2.56745   2.58008   2.60081   2.60256   2.60537
 Alpha virt. eigenvalues --    2.61295   2.63130   2.64040   2.64143   2.64271
 Alpha virt. eigenvalues --    2.64832   2.65579   2.68565   2.68883   2.69015
 Alpha virt. eigenvalues --    2.70289   2.71386   2.73941   2.75709   2.78176
 Alpha virt. eigenvalues --    2.79196   2.80342   2.80783   2.82565   2.84647
 Alpha virt. eigenvalues --    2.87746   2.89977   2.93394   2.98299   3.00132
 Alpha virt. eigenvalues --    3.01922   3.02676   3.03169   3.06549   3.11046
 Alpha virt. eigenvalues --    3.13595   3.14606   3.15655   3.18704   3.26688
 Alpha virt. eigenvalues --    3.30753   3.31361   3.32991   3.34174   3.39107
 Alpha virt. eigenvalues --    3.51047   3.55303   3.64646   3.68115   3.71518
 Alpha virt. eigenvalues --    3.95023   3.96101   3.99057   4.01392   4.05155
 Alpha virt. eigenvalues --    4.12664   4.20398   4.30029   4.30421   4.31061
 Alpha virt. eigenvalues --    4.32327   4.32899   4.34726   4.36328   4.37406
 Alpha virt. eigenvalues --    4.40978   4.41667   4.42605   4.43825   4.49698
 Alpha virt. eigenvalues --    4.53253   4.55047   4.56650   4.57993   4.64231
 Alpha virt. eigenvalues --    4.68425   4.73168   4.79561   4.80275
          Condensed to atoms (all electrons):
              1          2          3          4          5          6
     1  Si  12.501999   0.321122   0.322366   0.189900   0.227074  -0.288431
     2  H    0.321122   0.865656  -0.063142  -0.018825  -0.045600  -0.035224
     3  H    0.322366  -0.063142   0.863661  -0.020581  -0.039483  -0.034000
     4  C    0.189900  -0.018825  -0.020581   6.145434  -0.427516  -0.314244
     5  C    0.227074  -0.045600  -0.039483  -0.427516  14.426012  -0.978932
     6  C   -0.288431  -0.035224  -0.034000  -0.314244  -0.978932  19.433852
     7  C    0.235519   0.022867   0.018294  -0.000054  -0.732274  -9.712094
     8  S   -0.001571  -0.001799  -0.000533  -0.015005   0.296635   1.633087
     9  C   -0.124067   0.029372   0.029279   0.462247  -2.933350  -2.355991
    10  C   -0.193438   0.016030   0.012967   0.162363  -3.754258   0.666273
    11  C    0.051343   0.055077   0.058425  -0.164208   0.096447  -1.097303
    12  S   -0.084106   0.006438   0.006494  -0.066325   0.279812   0.173497
    13  C    0.034273   0.007613   0.002016   0.080020  -0.180365  -0.363405
    14  C    0.016722   0.002853   0.002289   0.006773  -0.026229  -0.166400
    15  N    0.000578   0.000033   0.000028   0.000053  -0.000096  -0.000279
    16  C    0.000424  -0.000003   0.000022   0.000020  -0.000291  -0.005104
    17  C    0.000671   0.000115   0.000099   0.000110  -0.000591  -0.008940
    18  S   -0.001063   0.001795   0.001006   0.003616  -0.006051  -0.033874
    19  C   -0.000216   0.000016   0.000010   0.000002   0.000051   0.001103
    20  N    0.000003  -0.000000  -0.000000  -0.000000  -0.000000   0.000000
    21  C   -0.000004   0.000000  -0.000000  -0.000000   0.000000   0.000013
    22  C    0.000003  -0.000000   0.000000   0.000000  -0.000001  -0.000018
    23  C   -0.000024   0.000001   0.000001  -0.000001   0.000002  -0.000044
    24  N    0.000000  -0.000000  -0.000000   0.000000  -0.000000  -0.000001
    25  S    0.000007  -0.000000  -0.000000   0.000000  -0.000002   0.000073
    26  N    0.000036  -0.000001  -0.000001   0.000002  -0.000007  -0.000034
    27  C    0.000032   0.000017   0.000011   0.000016  -0.000110  -0.002333
    28  C   -0.036434   0.005407   0.003315   0.069816  -0.150567  -0.071481
    29  S    0.003089  -0.000741  -0.000134  -0.003790   0.007777   0.020942
    30  C   -0.022661  -0.001811   0.001202  -0.076121   0.048018   0.031158
    31  C    0.049808   0.013235   0.027611  -0.364389   0.598733   0.429554
    32  C    0.012895  -0.069590  -0.082442   0.499888  -1.037324  -0.742147
    33  H   -0.043310  -0.000977  -0.001255   0.364532  -0.136430   0.094837
    34  H    0.018962  -0.001014  -0.000925  -0.093693   0.203809   0.250582
    35  H   -0.007550   0.000363   0.000290   0.005961  -0.211222  -0.256484
    36  H    0.000008  -0.000004  -0.000003  -0.000001   0.000002  -0.000019
    37  H   -0.000000   0.000000   0.000000  -0.000000   0.000000   0.000000
    38  H    0.000000  -0.000000  -0.000000   0.000000  -0.000000  -0.000000
    39  H    0.000199  -0.000289  -0.000390  -0.000224   0.000648   0.001586
    40  H    0.018195  -0.000789   0.000204   0.014194  -0.026739  -0.001923
              7          8          9         10         11         12
     1  Si   0.235519  -0.001571  -0.124067  -0.193438   0.051343  -0.084106
     2  H    0.022867  -0.001799   0.029372   0.016030   0.055077   0.006438
     3  H    0.018294  -0.000533   0.029279   0.012967   0.058425   0.006494
     4  C   -0.000054  -0.015005   0.462247   0.162363  -0.164208  -0.066325
     5  C   -0.732274   0.296635  -2.933350  -3.754258   0.096447   0.279812
     6  C   -9.712094   1.633087  -2.355991   0.666273  -1.097303   0.173497
     7  C   15.613796  -1.476745   0.736649   0.053102   0.603105   0.090579
     8  S   -1.476745  16.871086  -0.552378  -0.109901   0.053600  -0.429502
     9  C    0.736649  -0.552378   9.507601   1.072579  -0.934597   0.102375
    10  C    0.053102  -0.109901   1.072579   8.919636  -0.246009  -0.343027
    11  C    0.603105   0.053600  -0.934597  -0.246009  11.952663  -0.048224
    12  S    0.090579  -0.429502   0.102375  -0.343027  -0.048224  21.107417
    13  C    0.221133  -0.276507   0.176792  -0.033208  -2.602335  -0.184018
    14  C    0.069769   0.044133  -0.327107   0.026677   0.932381  -0.041662
    15  N    0.000408   0.000458   0.010318   0.000721  -0.045009  -0.083682
    16  C    0.001099   0.011879  -0.066637  -0.000991   0.336804   0.904760
    17  C    0.004417  -0.007850   0.006410  -0.000023  -0.057173  -0.937927
    18  S    0.056306  -0.153023   0.075595   0.089599  -0.714903  -3.303582
    19  C   -0.000206  -0.004708   0.009964   0.000725  -0.061402  -0.411379
    20  N   -0.000002   0.000039   0.000051  -0.000013  -0.000397   0.021895
    21  C   -0.000009  -0.000115   0.000222   0.000003  -0.002291  -0.015877
    22  C    0.000019   0.000389  -0.000520   0.000010   0.004366   0.026505
    23  C   -0.000039  -0.002067  -0.001483  -0.000121   0.000127  -0.157104
    24  N    0.000002  -0.000040   0.000043   0.000002  -0.000211  -0.001963
    25  S   -0.000132   0.000343   0.000521   0.000014  -0.000972   0.016623
    26  N    0.000054   0.000361   0.001988   0.000047  -0.007833  -0.008510
    27  C    0.001397  -0.004833  -0.019181   0.001290   0.077284  -0.222402
    28  C    0.054375   0.069419  -0.011170   0.199769  -2.028627  -0.789407
    29  S   -0.003464   0.002355   0.036598   0.020864   0.099162   0.015586
    30  C    0.016631  -0.024091  -0.093815  -0.078856  -0.201249   0.160991
    31  C   -0.276929  -0.057256   0.154795  -0.434959   2.370752   1.058134
    32  C    0.285143  -0.012062   0.936573   0.131967  -2.237187   0.155446
    33  H   -0.066222   0.002493   0.039593   0.054005  -0.011882  -0.004255
    34  H   -0.200640   0.007914   0.015936   0.036167  -0.010448  -0.002791
    35  H    0.562693  -0.078446   0.127614   0.112517   0.018797   0.003093
    36  H   -0.000003   0.000002  -0.000480  -0.000032   0.003801   0.001126
    37  H   -0.000000  -0.000001   0.000001   0.000000  -0.000024  -0.000470
    38  H    0.000000   0.000003  -0.000005   0.000000   0.000042   0.000048
    39  H   -0.000221  -0.000503  -0.005422   0.005907   0.003877   0.000527
    40  H   -0.011244   0.013887   0.036699  -0.039000  -0.084846  -0.019065
             13         14         15         16         17         18
     1  Si   0.034273   0.016722   0.000578   0.000424   0.000671  -0.001063
     2  H    0.007613   0.002853   0.000033  -0.000003   0.000115   0.001795
     3  H    0.002016   0.002289   0.000028   0.000022   0.000099   0.001006
     4  C    0.080020   0.006773   0.000053   0.000020   0.000110   0.003616
     5  C   -0.180365  -0.026229  -0.000096  -0.000291  -0.000591  -0.006051
     6  C   -0.363405  -0.166400  -0.000279  -0.005104  -0.008940  -0.033874
     7  C    0.221133   0.069769   0.000408   0.001099   0.004417   0.056306
     8  S   -0.276507   0.044133   0.000458   0.011879  -0.007850  -0.153023
     9  C    0.176792  -0.327107   0.010318  -0.066637   0.006410   0.075595
    10  C   -0.033208   0.026677   0.000721  -0.000991  -0.000023   0.089599
    11  C   -2.602335   0.932381  -0.045009   0.336804  -0.057173  -0.714903
    12  S   -0.184018  -0.041662  -0.083682   0.904760  -0.937927  -3.303582
    13  C   15.694955   1.483305  -0.180167   0.786261  -0.624097  -0.885358
    14  C    1.483305  12.507472   0.202415  -1.094942  -3.349921  -2.430750
    15  N   -0.180167   0.202415   7.244337  -0.163266   0.149209   0.612240
    16  C    0.786261  -1.094942  -0.163266  15.066828  -5.599591  -1.080932
    17  C   -0.624097  -3.349921   0.149209  -5.599591  18.151172   2.256270
    18  S   -0.885358  -2.430750   0.612240  -1.080932   2.256270  25.696310
    19  C    0.023336  -0.596417   0.040503  -1.683015   2.912987   0.191248
    20  N    0.006361   0.087724  -0.007141   0.024736  -0.211070   0.131391
    21  C    0.000548   0.041070  -0.008482  -0.417821  -0.581284  -0.279670
    22  C   -0.015102   0.070878   0.000605   0.527433   0.211861   0.270473
    23  C   -0.021085   0.013758  -0.052442  -0.981967  -3.344637  -2.454842
    24  N    0.001000   0.004589  -0.000041  -0.023121   0.038089   0.031603
    25  S   -0.001990  -0.000985   0.002036  -0.033035   0.031199   0.146717
    26  N   -0.005164  -0.052802   0.016014  -0.070236  -0.098339   0.140887
    27  C   -0.251679   1.789026  -0.185684  -0.276586  -1.641438  -1.307239
    28  C    1.599779  -0.413605  -0.228558  -0.713978  -0.556529  -0.325097
    29  S   -0.772933  -0.297597   0.065579  -0.074963  -0.010204   0.027794
    30  C   -0.151133   0.309627   0.031628   0.041985   0.000968   0.095887
    31  C   -5.246529  -1.392533  -0.082378  -0.026388  -0.081409  -0.775800
    32  C   -2.195777  -1.236972  -0.195684  -0.233547   0.125608  -1.100161
    33  H    0.003112   0.000297   0.000002   0.000001   0.000005   0.000085
    34  H   -0.001155  -0.000015  -0.000001   0.000001  -0.000001  -0.000110
    35  H    0.002253   0.001020   0.000007   0.000007   0.000105   0.000969
    36  H    0.016280   0.065809  -0.132007   0.644262  -0.377212  -0.057551
    37  H   -0.000040   0.001401  -0.000700  -0.018947  -0.048468  -0.016584
    38  H   -0.000542   0.000844   0.000080   0.006386   0.011305  -0.002948
    39  H   -0.001709   0.004752   0.001499  -0.000051   0.000983   0.004078
    40  H    0.069835  -0.020227  -0.000225   0.000967  -0.003135  -0.005499
             19         20         21         22         23         24
     1  Si  -0.000216   0.000003  -0.000004   0.000003  -0.000024   0.000000
     2  H    0.000016  -0.000000   0.000000  -0.000000   0.000001  -0.000000
     3  H    0.000010  -0.000000  -0.000000   0.000000   0.000001  -0.000000
     4  C    0.000002  -0.000000  -0.000000   0.000000  -0.000001   0.000000
     5  C    0.000051  -0.000000   0.000000  -0.000001   0.000002  -0.000000
     6  C    0.001103   0.000000   0.000013  -0.000018  -0.000044  -0.000001
     7  C   -0.000206  -0.000002  -0.000009   0.000019  -0.000039   0.000002
     8  S   -0.004708   0.000039  -0.000115   0.000389  -0.002067  -0.000040
     9  C    0.009964   0.000051   0.000222  -0.000520  -0.001483   0.000043
    10  C    0.000725  -0.000013   0.000003   0.000010  -0.000121   0.000002
    11  C   -0.061402  -0.000397  -0.002291   0.004366   0.000127  -0.000211
    12  S   -0.411379   0.021895  -0.015877   0.026505  -0.157104  -0.001963
    13  C    0.023336   0.006361   0.000548  -0.015102  -0.021085   0.001000
    14  C   -0.596417   0.087724   0.041070   0.070878   0.013758   0.004589
    15  N    0.040503  -0.007141  -0.008482   0.000605  -0.052442  -0.000041
    16  C   -1.683015   0.024736  -0.417821   0.527433  -0.981967  -0.023121
    17  C    2.912987  -0.211070  -0.581284   0.211861  -3.344637   0.038089
    18  S    0.191248   0.131391  -0.279670   0.270473  -2.454842   0.031603
    19  C   13.963357   0.240933  -1.929002   2.778538  -5.098202   0.142044
    20  N    0.240933   7.144757  -0.195146   0.246711  -0.237377  -0.000903
    21  C   -1.929002  -0.195146   8.084100  -4.052356   4.538140   0.048732
    22  C    2.778538   0.246711  -4.052356  17.708007  -6.411589  -0.362084
    23  C   -5.098202  -0.237377   4.538140  -6.411589  31.972032  -0.222891
    24  N    0.142044  -0.000903   0.048732  -0.362084  -0.222891   7.355936
    25  S    0.110149   0.009507  -0.048509  -0.192911  -1.071415   0.093396
    26  N   -0.569546   0.026633   0.120394   0.029835   1.187438  -0.140504
    27  C   -3.363092  -0.033441   0.216489  -4.303093 -10.861284   0.416631
    28  C    0.039275   0.001839   0.009301  -0.007674  -0.002914   0.000346
    29  S    0.000370   0.000621  -0.000382   0.000940  -0.001684  -0.000001
    30  C   -0.002749  -0.000034  -0.000142   0.000036  -0.000606  -0.000000
    31  C   -0.010969   0.000207   0.000206  -0.000187   0.000719  -0.000002
    32  C   -0.073183   0.001574   0.001555  -0.003415   0.002112  -0.000030
    33  H   -0.000000   0.000000  -0.000000   0.000000  -0.000000   0.000000
    34  H   -0.000000  -0.000000   0.000000   0.000000   0.000000  -0.000000
    35  H   -0.000001  -0.000000  -0.000000   0.000000  -0.000002   0.000000
    36  H   -0.049853  -0.014135   0.005778   0.002470   0.013601  -0.000202
    37  H   -0.057656  -0.133066   0.621030  -0.434155   0.256825  -0.001158
    38  H    0.095777   0.018365  -0.242018   0.630297  -0.169839  -0.023408
    39  H   -0.000143   0.000002  -0.000002   0.000001  -0.000010   0.000000
    40  H    0.000204  -0.000002   0.000001   0.000001   0.000007  -0.000000
             25         26         27         28         29         30
     1  Si   0.000007   0.000036   0.000032  -0.036434   0.003089  -0.022661
     2  H   -0.000000  -0.000001   0.000017   0.005407  -0.000741  -0.001811
     3  H   -0.000000  -0.000001   0.000011   0.003315  -0.000134   0.001202
     4  C    0.000000   0.000002   0.000016   0.069816  -0.003790  -0.076121
     5  C   -0.000002  -0.000007  -0.000110  -0.150567   0.007777   0.048018
     6  C    0.000073  -0.000034  -0.002333  -0.071481   0.020942   0.031158
     7  C   -0.000132   0.000054   0.001397   0.054375  -0.003464   0.016631
     8  S    0.000343   0.000361  -0.004833   0.069419   0.002355  -0.024091
     9  C    0.000521   0.001988  -0.019181  -0.011170   0.036598  -0.093815
    10  C    0.000014   0.000047   0.001290   0.199769   0.020864  -0.078856
    11  C   -0.000972  -0.007833   0.077284  -2.028627   0.099162  -0.201249
    12  S    0.016623  -0.008510  -0.222402  -0.789407   0.015586   0.160991
    13  C   -0.001990  -0.005164  -0.251679   1.599779  -0.772933  -0.151133
    14  C   -0.000985  -0.052802   1.789026  -0.413605  -0.297597   0.309627
    15  N    0.002036   0.016014  -0.185684  -0.228558   0.065579   0.031628
    16  C   -0.033035  -0.070236  -0.276586  -0.713978  -0.074963   0.041985
    17  C    0.031199  -0.098339  -1.641438  -0.556529  -0.010204   0.000968
    18  S    0.146717   0.140887  -1.307239  -0.325097   0.027794   0.095887
    19  C    0.110149  -0.569546  -3.363092   0.039275   0.000370  -0.002749
    20  N    0.009507   0.026633  -0.033441   0.001839   0.000621  -0.000034
    21  C   -0.048509   0.120394   0.216489   0.009301  -0.000382  -0.000142
    22  C   -0.192911   0.029835  -4.303093  -0.007674   0.000940   0.000036
    23  C   -1.071415   1.187438 -10.861284  -0.002914  -0.001684  -0.000606
    24  N    0.093396  -0.140504   0.416631   0.000346  -0.000001  -0.000000
    25  S   15.619692  -0.177472   0.568747   0.001112   0.000041  -0.000002
    26  N   -0.177472   7.823561  -0.793700   0.001134   0.000242   0.000393
    27  C    0.568747  -0.793700  25.046812  -0.082781   0.002541  -0.006572
    28  C    0.001112   0.001134  -0.082781  10.492544   0.098023  -0.194666
    29  S    0.000041   0.000242   0.002541   0.098023  16.145353  -0.146791
    30  C   -0.000002   0.000393  -0.006572  -0.194666  -0.146791   8.731035
    31  C   -0.000050  -0.000434  -0.006819  -3.555473   0.465248  -0.434735
[...]
 38571,-0.01361616,0.00032386,0.00089575,-0.00050173,-0.00013193,-0.000
 57060,-0.00110506,0.00008098,-0.00155779,0.00029556,0.00017067,0.00012
 776,0.00070123,-0.00000830,-0.00023826,-0.00005520,0.00002600,-0.00004
 037,-0.00014023,0.00000363,0.00004257,0.00002595,-0.00000445,-0.000065
 19,0.00011969,0.00000624,0.00010667,-0.00003081,-0.00001007,0.00013268
 ,-0.00006392,-0.00000886,0.00004465,-0.00006397,-0.00000328,-0.0000008
 0,0.00002050,-0.00000072,0.00000341,0.00000600,0.00000014,-0.00001222,
 -0.00000770,0.00000284,-0.00002727,-0.00001083,0.00000271,-0.00000167,
 -0.00000150,0.00000008,-0.00000136,-0.00000178,0.00000023,-0.00000110,
 -0.00000140,-0.00000204,0.05772968,0.36139906,-0.00000784,-0.00000355,
 0.00001366,0.00000189,0.00000112,-0.00000433,0.00000170,0.00000007,-0.
 00000317,-0.00000063,0.00000044,-0.00000700,0.00000203,0.00000329,0.00
 000062,-0.00000410,-0.00000660,-0.00000154,0.00000981,0.00001151,0.000
 00044,-0.00000784,0.00000024,-0.00000205,-0.00002579,-0.00003802,-0.00
 003976,0.00001570,0.00000019,0.00001434,0.00000793,0.00006519,-0.00018
 584,0.00003130,-0.00002227,0.00013531,0.00002863,0.00011561,0.00071105
 ,0.00101344,0.00024803,0.00467176,0.00045984,0.00322860,-0.00172378,0.
 00216997,0.00250507,-0.03741839,-0.00034622,-0.00211936,0.00604108,0.0
 0068423,-0.00036167,0.00527520,-0.00033381,0.00000733,-0.00254233,0.00
 020467,0.00000826,0.00065095,-0.00003477,0.00005691,-0.00064160,-0.000
 01601,0.00000721,0.00003867,-0.00000566,-0.00001168,-0.00000179,0.0000
 0370,0.00000918,-0.00002324,-0.00002436,0.00002499,0.00004097,0.000009
 31,-0.00000343,-0.00002889,-0.00000896,0.00000219,-0.00026554,-0.00000
 597,0.00000817,0.00001666,0.00000681,0.00000148,0.00003294,0.00000299,
 -0.00000258,-0.00002002,-0.00000136,-0.00000159,0.00000743,-0.00001467
 ,-0.00001561,-0.00002278,-0.00000055,0.00000026,0.00000053,-0.00000084
 ,0.00000002,0.00000025,-0.00000139,0.00000019,0.00000160,-0.00382993,-
 0.00372113,0.02513622,0.00002345,-0.00000616,0.00001993,-0.00000350,0.
 00000195,-0.00000516,-0.00000469,0.00000237,-0.00000364,-0.00000649,0.
 00000299,-0.00000598,0.00000835,0.00000040,0.00000512,-0.00000328,-0.0
 0000744,0.00000718,-0.00001062,-0.00001222,-0.00000104,-0.00000184,0.0
 0000097,0.00000213,0.00000323,0.00002508,-0.00001293,-0.00000743,-0.00
 000324,-0.00000443,-0.00002179,-0.00001054,0.00000279,0.00000525,0.000
 03170,0.00000297,-0.00007474,0.00004464,0.00000648,0.00000569,-0.00008
 796,-0.00000374,-0.00011085,-0.00002755,0.00001305,0.00005724,-0.00004
 243,-0.00000315,0.00022501,-0.00082269,0.00001114,-0.00027774,0.000101
 92,0.00002406,-0.00412540,-0.00278261,0.00109880,-0.01684157,-0.035452
 56,0.00159426,-0.06045127,-0.04240588,0.00176905,0.00847737,0.02318891
 ,-0.00013262,-0.00357491,0.00271855,0.00126137,0.00061330,0.00105702,0
 .00003288,0.00000838,0.00041215,-0.00014771,0.00036216,-0.00019824,-0.
 00007175,-0.00092680,0.00015008,0.00007179,0.00002267,-0.00006997,-0.0
 0000409,-0.00000756,0.00002398,0.00000256,0.00000054,0.00001146,0.0000
 0028,0.00000021,-0.00000251,-0.00000088,0.00000197,-0.00001280,0.00000
 076,-0.00000157,-0.00000163,-0.00000020,-0.00000093,-0.00000170,-0.000
 00029,-0.00000014,-0.00000166,-0.00000327,-0.00003810,-0.00005485,0.00
 000300,0.07610504,0.00004728,-0.00000622,0.00003736,-0.00000737,0.0000
 0274,-0.00000920,-0.00000939,0.00000357,-0.00000700,-0.00001299,0.0000
 0459,-0.00001223,0.00001523,0.00000082,0.00001015,-0.00000376,-0.00001
 574,0.00001873,-0.00002302,-0.00002499,-0.00000361,-0.00000437,0.00000
 374,0.00000483,0.00000397,0.00004059,-0.00002552,-0.00001128,-0.000003
 99,-0.00001069,-0.00004149,-0.00000560,0.00000695,0.00000185,0.0000500
 3,0.00000295,-0.00014216,-0.00001276,0.00001796,0.00008117,0.00011851,
 -0.00001093,-0.00015570,-0.00021089,0.00001424,0.00015839,0.00000478,-
 0.00001484,-0.00028598,-0.00013374,0.00002907,-0.00003840,0.00011418,0
 .00000518,0.00051641,0.00241778,-0.00006271,-0.00915107,-0.00387403,0.
 00094998,-0.04373436,-0.32944228,0.00405221,-0.00561596,-0.01580659,0.
 00054408,0.00335959,-0.00038352,-0.00036205,-0.00035415,-0.00087750,0.
 00003356,0.00024820,-0.00025867,-0.00002379,-0.00015838,0.00003548,0.0
 0001713,0.00027423,0.00039546,-0.00002865,0.00007302,-0.00009115,-0.00
 001056,-0.00000984,0.00005676,0.00000293,0.00001416,0.00001674,-0.0000
 0052,-0.00000422,-0.00000807,0.00000074,0.00000307,-0.00005086,-0.0000
 0109,-0.00000338,-0.00000346,-0.00000040,-0.00000196,-0.00000433,-0.00
 000023,0.00000015,-0.00000337,-0.00000678,0.00002606,-0.00005352,-0.00
 000275,0.05474995,0.34740778,-0.00000246,-0.00000222,0.00000419,0.0000
 0062,0.00000057,-0.00000118,0.00000060,0.00000025,-0.00000109,0.000000
 37,0.00000014,-0.00000115,0.00000040,0.00000025,0.00000018,0.,-0.00000
 040,-0.00000193,0.00000140,0.00000315,-0.00000006,-0.00000061,-0.00000
 046,-0.00000054,-0.00000010,-0.00000474,0.00000213,0.00000043,0.000001
 30,-0.00000120,0.00000206,0.00000315,-0.00000308,-0.00000094,-0.000003
 19,-0.00000465,0.00000593,-0.00000473,-0.00001355,-0.00000340,0.000009
 67,-0.00001844,0.00001385,0.00000146,0.00002333,-0.00000466,0.00000553
 ,0.00001754,0.00001674,0.00008379,0.00035577,0.00002613,-0.00000978,-0
 .00003612,0.00110121,0.00027691,0.00645535,0.00161619,0.00365779,-0.00
 113028,0.00178065,0.00392904,-0.04282080,-0.00018066,-0.00243722,0.006
 83115,0.00126365,-0.00029578,0.00844423,0.00002943,-0.00011365,0.00091
 360,-0.00014520,-0.00004187,-0.00140675,-0.00007225,0.00002039,-0.0003
 2434,0.00007502,-0.00001268,-0.00022839,-0.00000122,0.00000690,0.00000
 880,0.00000073,-0.00000284,0.00000095,-0.00000019,-0.00000140,-0.00000
 352,0.00000038,0.00000073,-0.00000032,-0.00000030,0.00000091,0.0000002
 7,-0.00000027,0.00000008,0.00000011,-0.00000005,0.00000062,0.00000016,
 0.,0.00000020,0.00000064,0.00000153,0.00000626,-0.00001927,-0.00503936
 ,-0.00514020,0.02704556,0.00000969,-0.00000225,0.00000774,-0.00000151,
 0.00000066,-0.00000194,-0.00000200,0.00000082,-0.00000148,-0.00000329,
 0.00000146,-0.00000268,0.00000292,0.00000008,0.00000130,-0.00000079,-0
 .00000061,0.00000127,-0.00000198,-0.00000343,0.00000152,-0.00000075,0.
 00000078,-0.00000076,0.00000004,0.00000645,-0.00000274,-0.00000480,-0.
 00000054,-0.00000180,0.00000529,-0.00000192,-0.00000043,-0.00000013,0.
 00000463,0.00000090,-0.00000919,0.00001208,0.00001394,0.00005475,-0.00
 008918,-0.00001313,-0.00000447,0.00004389,-0.00001168,-0.00006886,0.00
 008479,0.00002144,0.00001314,-0.00011281,-0.00015667,-0.00004537,-0.00
 000967,-0.00001384,0.00065869,0.00073134,-0.00005741,-0.00150182,0.003
 63214,0.00102313,-0.01479891,-0.01064285,0.00161762,-0.32229921,-0.080
 05346,0.02983397,-0.00242916,0.00023374,0.00050525,0.00057778,0.000109
 48,-0.00029148,0.00008185,-0.00052549,-0.00007013,0.00001008,0.0002915
 0,0.00007778,0.00136812,-0.00010829,0.00037207,-0.00000139,-0.00001233
 ,-0.00000053,0.00000017,0.00000586,0.00000126,0.00000385,0.00000509,-0
 .00000052,-0.00000336,-0.00000286,-0.00000063,-0.00000454,0.00000057,0
 .00000060,-0.00000057,-0.00000082,-0.00000004,-0.00000046,-0.00000120,
 -0.00000002,-0.00000003,-0.00000064,-0.00000110,0.00005203,-0.00004355
 ,0.00001054,0.00057680,0.00020393,-0.00048664,0.33776940,-0.00001315,0
 .00000137,-0.00001095,0.00000197,-0.00000082,0.00000277,0.00000250,-0.
 00000096,0.00000201,0.00000318,-0.00000124,0.00000354,-0.00000421,0.00
 000062,-0.00000342,0.00000125,0.00000551,-0.00000693,0.00000804,0.0000
 0894,0.00000226,0.00000154,-0.00000127,-0.00000258,-0.00000137,-0.0000
 1315,0.00000968,0.00000124,0.00000125,0.00000302,0.00002499,0.00000181
 ,-0.00000290,-0.00000166,-0.00002019,-0.00000111,0.00005661,0.00001696
 ,-0.00000764,0.00004789,-0.00006774,-0.00000354,0.00002350,0.00017785,
 -0.00000101,-0.00012059,-0.00003489,0.00001107,0.00019995,0.00025255,-
 0.00001665,0.00009380,-0.00003924,-0.00001039,-0.00016151,-0.00206136,
 0.00001608,0.00403945,-0.00190189,-0.00043381,0.02034730,0.01207806,-0
 .00208512,-0.08005845,-0.08209331,0.00820204,-0.03024118,-0.00345336,0
 .00310723,0.00072398,0.00317209,-0.00006959,-0.00069771,-0.00017668,0.
 00007400,-0.00144425,-0.00147411,0.00014708,0.00151962,-0.00410961,-0.
 00016854,-0.00003353,0.00003060,0.00000486,0.00000249,-0.00002014,-0.0
 0000105,-0.00000508,-0.00000306,0.00000023,0.00000122,0.00000175,0.000
 00022,-0.00000510,0.00002385,-0.00000024,0.00000094,0.00000093,0.00000
 008,0.00000045,0.00000081,0.00000006,-0.00000008,0.00000114,0.00000222
 ,-0.00004166,0.00004100,0.00000434,-0.00051806,0.00060163,0.00006200,0
 .08624364,0.07905330,-0.00000138,-0.00000232,0.00000544,0.00000058,0.0
 0000061,-0.00000144,0.00000019,0.00000045,-0.00000087,-0.00000033,0.00
 000064,-0.00000212,0.00000147,0.00000007,-0.00000090,-0.00000188,0.000
 00228,0.00000066,0.00000294,-0.00000024,-0.00000040,-0.00000122,0.0000
 0066,0.00000009,0.00000297,-0.00000245,0.00000194,-0.00000145,-0.00000
 004,-0.00000243,0.00000048,-0.00000059,0.00000050,-0.00000122,-0.00000
 013,-0.00000217,0.00001253,-0.00000105,0.00011336,-0.00001233,0.000008
 88,-0.00006831,-0.00001179,-0.00000310,-0.00012261,0.00002158,-0.00000
 792,0.00013263,-0.00014884,0.00001444,-0.00147610,-0.00001308,0.000000
 91,-0.00017426,-0.00006520,-0.00008258,0.00011550,0.00101887,-0.000397
 33,0.00822037,0.00167959,0.00111861,0.00084263,0.02983090,0.00820642,-
 0.03489129,0.00045516,-0.00003194,0.00240262,-0.00028753,-0.00000606,-
 0.00221107,-0.00007213,0.00005334,-0.00058736,0.00007703,-0.00003290,0
 .00076395,0.00037057,0.00000130,0.00490287,0.00000086,0.00000104,0.000
 01051,0.00000120,-0.00000103,0.00000573,0.00000003,-0.00000012,-0.0000
 0103,-0.00000104,-0.00000031,-0.00000072,-0.00000255,0.00000021,-0.000
 01372,0.00000001,0.00000006,0.00000045,-0.00000055,-0.00000009,0.00000
 063,-0.00000019,0.00000019,0.00000055,0.00001078,0.00000345,0.00015293
 ,-0.00049030,-0.00001473,-0.00408929,-0.03237507,-0.00882921,0.0259724
 1,0.00003084,0.00000950,0.00001366,-0.00000673,0.00000054,0.00000276,-
 0.00001216,-0.00000180,0.00000271,-0.00000263,0.00000563,-0.00000376,0
 .00000213,-0.00000384,0.00000661,0.00001119,-0.00000801,0.00001273,-0.
 00001151,-0.00000779,-0.00001080,-0.00000502,0.00001337,-0.00000053,-0
 .00005641,0.00001152,0.00002095,0.00002671,0.00001536,-0.00000965,0.00
 033613,0.00045643,0.00008296,0.00018953,0.00002635,-0.00026121,0.00037
 475,0.00077969,0.00038485,0.00018202,-0.00015394,-0.00001130,-0.000386
 06,-0.00013687,0.00003390,0.00013739,0.00014364,-0.00000453,-0.0001851
 8,0.00004332,0.00001698,-0.00009335,0.00004721,-0.00000018,0.00013484,
 0.00003677,-0.00001624,-0.00005104,-0.00006773,0.00000381,0.00002997,0
 .00002426,-0.00000306,-0.00001879,-0.00000879,0.00000240,-0.00000831,0
 .00000621,0.00000049,-0.00002276,-0.00001996,0.00000221,0.00000776,0.0
 0002164,-0.00000103,-0.00000529,-0.00001252,0.00000112,-0.00002271,0.0
 0002859,0.00000579,-0.00391470,-0.00213541,0.00052080,-0.01119953,0.01
 317935,0.00217009,-0.21534122,0.15011474,0.03722487,0.00796158,-0.0054
 0945,-0.00098334,0.00036596,-0.00197523,0.00115272,-0.00000049,-0.0000
 0402,-0.00000087,0.00000025,-0.00000086,0.00000011,0.00000264,0.000000
 50,0.00000063,-0.00000629,-0.00000641,0.00000188,-0.00000373,-0.000004
 55,0.00000066,-0.00000145,0.00000140,0.00000013,0.22132630,0.00012371,
 -0.00008019,0.00002355,-0.00002052,0.00001843,0.00000156,-0.00004180,0
 .00002788,-0.00000378,-0.00003660,0.00002571,-0.00000551,0.00001648,0.
 00000198,0.00001332,0.00000154,-0.00001021,-0.00000375,-0.00000888,-0.
 00001677,0.00001033,-0.00001048,-0.00000733,-0.00002038,0.00002297,0.0
 0005918,-0.00001489,-0.00001265,0.00000995,0.00000950,0.00105875,0.000
 45266,-0.00021998,0.00022140,-0.00018971,0.00001894,0.00009810,0.00099
 093,-0.00004442,0.00011371,-0.00012682,-0.00001838,-0.00019199,-0.0000
 5683,0.00002093,0.00006458,0.00007081,-0.00000294,-0.00007108,0.000024
 27,0.00001036,-0.00004316,-0.00000705,0.00000130,0.00003363,0.00001639
 ,-0.00000672,-0.00001172,-0.00001928,0.00000170,0.00000653,0.00000797,
 -0.00000032,-0.00000362,-0.00000076,0.00000011,-0.00000066,0.00000286,
 -0.00000039,-0.00000542,-0.00000594,0.00000060,0.00000050,0.00000620,0
 .00000005,-0.00000242,-0.00000472,0.00000014,-0.00000511,0.00000629,0.
 00000308,-0.00417794,-0.00148983,0.00058413,-0.00819291,0.00837681,0.0
 0174447,0.14559546,-0.18667257,-0.03050172,0.02286866,-0.00835697,-0.0
 0435278,-0.00131247,-0.00541394,-0.00029351,-0.00000029,-0.00000511,-0
 .00000276,-0.00000090,-0.00000143,-0.00000658,-0.00000577,-0.00000048,
 0.00000245,-0.00000434,-0.00000145,0.00000077,-0.00000114,-0.00000129,
 0.,-0.00000042,0.00000038,0.00000014,-0.15572977,0.19140933,0.00007460
 ,-0.00021045,0.00011469,-0.00000810,0.00004482,-0.00002197,-0.00002142
 ,0.00003895,-0.00001313,-0.00002291,0.00002941,-0.00003330,0.00003775,
 0.00000389,0.00001248,0.00000755,-0.00000588,0.00001444,-0.00003087,-0
 .00003421,-0.00002277,-0.00001151,0.00005839,-0.00003755,0.00003271,-0
 .00001766,0.00017329,-0.00001652,0.00004661,-0.00007203,0.00024568,-0.
 00020924,0.00060372,-0.00027039,0.00003993,-0.00120005,0.00027326,-0.0
 0021876,0.00199310,-0.00002709,0.00001370,0.00001577,0.00005388,0.0000
 2840,-0.00007119,-0.00002332,-0.00002255,0.00002217,0.00002649,-0.0000
 0699,-0.00000675,0.00001654,-0.00000678,-0.00003073,-0.00001469,-0.000
 00816,0.00000130,0.00000581,0.00000913,-0.00000580,-0.00000526,-0.0000
 0198,0.00000063,0.00000255,-0.00000107,-0.00000152,0.00000007,-0.00000
 029,0.00000205,0.00000249,0.00000241,-0.00000295,-0.00000026,-0.000002
 68,0.00000136,0.00000026,0.00000241,0.00000223,0.00000206,-0.00000363,
 0.00000452,0.00042417,0.00040497,0.00028585,0.00120463,-0.00184778,-0.
 00152494,0.03718128,-0.03099077,-0.03522998,0.00021774,-0.00000524,0.0
 0364284,0.00102064,-0.00008436,0.00770852,-0.00000002,-0.00000170,0.00
 000083,-0.00000484,0.00000616,-0.00000122,-0.00000023,0.00000322,0.000
 00191,0.00000121,0.00000053,0.00000324,0.00000053,0.00000033,0.0000012
 7,0.00000025,-0.00000007,0.00000077,-0.03954761,0.03275433,0.02829221,
 0.00013215,-0.00027296,0.00013038,-0.00003001,0.00007919,-0.00002154,-
 0.00044943,-0.00061213,-0.00056519,-0.00001770,-0.00002835,-0.00011275
 ,-0.00006029,-0.00004550,-0.00000755,0.00019350,0.00016478,-0.00013305
 ,0.00004000,-0.00000062,0.00003254,0.00002646,0.00002522,-0.00001833,-
 0.00028747,0.00013532,-0.00009796,0.00002341,-0.00012948,-0.00012490,0
 .00075015,-0.00075302,-0.00025253,-0.00045094,0.00002004,0.00000907,-0
 .00046587,-0.00080531,0.00011045,-0.00016066,0.00025336,0.00005171,0.0
 0000502,-0.00001708,-0.00004779,-0.00000291,-0.00001070,0.00000622,-0.
 00008502,0.00001262,0.00000342,0.00001107,-0.00008364,0.00000868,0.000
 06908,-0.00000893,-0.00000708,-0.00002826,-0.00003071,0.00000166,0.000
 00812,0.00001413,0.00000051,-0.00000640,-0.00000622,-0.00000078,-0.000
 00748,0.00000259,0.00000303,-0.00001036,-0.00001112,0.00000014,0.00000
 443,0.00001144,0.00000062,-0.00000446,-0.00000397,-0.00000060,-0.00000
 557,0.00001140,-0.00000146,-0.00275651,0.00252109,0.00088650,0.0021303
 2,0.00143924,0.00086619,0.00264216,0.00138398,0.00035641,-0.27811230,-
 0.12427632,0.03855010,-0.01295660,-0.01387191,0.00177321,-0.00001134,-
 0.00005085,-0.00000025,-0.00001208,-0.00000711,0.00002437,0.00000595,0
 .00000813,0.00003706,-0.00000354,-0.00000179,0.00000133,-0.00000171,-0
 .00000291,0.00000036,-0.00000055,0.00000064,0.00000022,0.00023539,-0.0
 0033396,-0.00082711,0.28965025,-0.00040219,-0.00066087,-0.00103788,0.0
 0001226,0.00006753,0.00008379,-0.00012501,-0.00040732,-0.00016686,0.00
 007796,-0.00002267,0.00003115,-0.00003690,-0.00004994,-0.00000113,-0.0
 0012669,-0.00020860,0.00007330,-0.00006901,0.00003223,-0.00008801,-0.0
 0003403,0.00005184,0.00003543,0.00039992,0.00016086,0.00009037,-0.0003
 7320,-0.00001988,0.00003747,-0.00079495,0.00037649,0.00010199,0.000235
 38,0.00007537,0.00000673,0.00041521,0.00072530,-0.00000303,0.00022247,
 -0.00035357,-0.00007778,-0.00024992,0.00000643,0.00006948,0.00008626,0
 .00009716,-0.00001956,-0.00005630,-0.00000356,0.00000398,-0.00001514,0
 .00011593,-0.00000477,0.00005602,0.00003221,0.00000216,-0.00001820,-0.
 00002622,0.00000223,0.00001448,0.00001472,-0.00000269,-0.00000738,-0.0
 0000256,-0.00000027,-0.00000541,0.00000182,0.00000194,-0.00000883,-0.0
 0000953,0.00000085,0.00000206,0.00001479,-0.00000002,-0.00000063,-0.00
 001054,0.00000007,-0.00001123,0.00001283,-0.00000129,0.00343959,-0.002
 52000,-0.00058709,-0.00108732,-0.00344974,-0.00033561,-0.02598122,-0.0
 0924683,0.00375231,-0.12451040,-0.12483518,0.01823947,0.01293875,0.012
 23684,-0.00182228,0.00000393,0.00001879,0.00000250,0.00000202,0.000007
 56,0.00001104,0.00000001,-0.00000621,-0.00003836,0.00000617,-0.0000026
 5,-0.00000042,-0.00000027,-0.00000259,0.00000006,-0.00000061,0.0000006
 1,0.00000045,0.00072094,0.00096068,0.00019267,0.13528140,0.12682847,0.
 00044380,-0.00218740,-0.00055128,-0.00013740,0.00032043,0.00009606,-0.
 00026747,0.00036937,0.00004909,-0.00034178,0.00027980,0.00001817,0.000
 26740,0.00013559,0.00010015,-0.00024383,-0.00008140,0.00011749,-0.0000
 2216,0.00006249,-0.00011027,-0.00013515,0.00010922,-0.00008886,0.00033
 573,0.00002234,-0.00008137,0.00001206,0.00035364,0.00007455,-0.0003103
 3,-0.00000552,-0.00100388,0.00011883,-0.00000185,-0.00024493,0.0001309
 5,0.00012394,0.00061078,0.00008560,-0.00003813,0.00013762,-0.00002926,
 -0.00001023,-0.00028358,0.00000417,0.00000166,0.00006026,0.00000653,-0
 .00001518,-0.00001125,0.00000430,0.00003288,0.00000983,-0.00000552,0.0
 0000598,-0.00003577,0.00000003,-0.00000253,-0.00000473,0.00000289,-0.0
 0000060,0.00000747,-0.00000051,0.00000078,-0.00000098,-0.00000050,-0.0
 0000036,0.00000279,0.00000253,0.00000068,-0.00000222,-0.00000146,0.000
 00178,0.00000225,0.00000237,-0.00000113,-0.00000218,0.00000093,-0.0000
 0163,0.00000541,0.00088541,-0.00051929,0.00182073,0.00071465,-0.000704
 15,0.00676608,-0.00055768,-0.00098733,0.00442091,0.03806289,0.01803656
 ,-0.03577935,0.00241758,0.00286298,0.00031163,0.00002448,0.00005990,-0
 .00000389,-0.00000742,0.00002668,-0.00007817,-0.00001701,0.00000539,-0
 .00001932,0.00000083,0.00000002,0.00000548,0.00000042,0.00000008,0.000
 00074,0.00000015,-0.00000004,-0.00000044,-0.00081171,0.00029705,-0.004
 62331,-0.04063533,-0.01855243,0.02830830\\0.00002946,-0.00002116,0.000
 01056,-0.00001248,0.00001029,-0.00000486,-0.00000558,-0.00000020,0.000
 00279,-0.00002781,0.00002109,-0.00000949,0.00000337,0.00000994,0.00001
 075,0.00001697,-0.00001199,0.00001888,-0.00000802,0.00000275,0.0000039
 8,0.00001057,-0.00002062,0.00000778,-0.00000302,0.00004073,0.00003417,
 -0.00001229,-0.00001036,-0.00006451,0.00002302,-0.00001765,-0.00001124
 ,0.00000839,-0.00000259,-0.00000363,0.00000607,0.00000823,0.00001527,0
 .00003919,-0.00002590,0.00000973,0.00000627,0.00002641,0.00000787,-0.0
 0002451,-0.00001059,-0.00003432,0.00002602,0.00002583,0.00002561,-0.00
 002667,-0.00000621,-0.00002710,-0.00000837,-0.00002577,0.00000614,-0.0
 0000479,0.00000316,0.00000286,0.00000583,0.00000444,-0.00000589,-0.000
 00986,-0.00000469,0.00000159,-0.00002344,0.00000474,-0.00000051,0.0000
 0559,-0.00001779,0.00002184,-0.00002036,0.00001150,-0.00002595,0.00003
 508,-0.00000626,0.00003070,0.00000084,0.00002369,-0.00002030,-0.000000
 72,0.00000588,-0.00000371,0.00000741,-0.00001990,-0.00001409,-0.000006
 57,-0.00003745,0.00001845,0.00000379,0.00002663,-0.00001692,-0.0000293
 7,0.00003369,0.00001441,0.00000547,-0.00001352,-0.00000445,-0.00000024
 ,-0.00000574,-0.00000840,0.00000481,-0.00000148,0.00000499,-0.00000001
 ,-0.00000007,0.00000341,-0.00000205,0.00000149,0.00000153,0.00000176,0
 .00000454,0.00000119,-0.00000070,0.00000210,-0.00000888,-0.00001308,-0
 .00000718,0.00000977\\\@


 ERWIN WITH HIS PSI CAN DO
 CALCULATIONS QUITE A FEW.
 BUT ONE THING HAS NOT BEEN SEEN
 JUST WHAT DOES PSI REALLY MEAN.
 -- WALTER HUCKEL, TRANS. BY FELIX BLOCH
 Job cpu time:  0 days 20 hours 15 minutes 25.0 seconds.
 File lengths (MBytes):  RWF=   1917 Int=      0 D2E=      0 Chk=     31 Scr=      1
 Normal termination of Gaussian 09 at Sun Dec 29 04:48:24 2013.
