 Entering Gaussian System, Link 0=g09
 Initial command:
 /opt/gaussian/g09/l1.exe /panfs/panfs.cluster/home/shuo/Gau-11418.inp -scrdir=/panfs/panfs.cluster/home/shuo/
 Default is to use a total of  12 processors:
                               12 via shared-memory
                                1 via Linda
 Entering Link 1 = /opt/gaussian/g09/l1.exe PID=     11419.
  
 Copyright (c) 1988,1990,1992,1993,1995,1998,2003,2009,2011,
            Gaussian, Inc.  All Rights Reserved.
  
 This is part of the Gaussian(R) 09 program.  It is based on
 the Gaussian(R) 03 system (copyright 2003, Gaussian, Inc.),
 the Gaussian(R) 98 system (copyright 1998, Gaussian, Inc.),
 the Gaussian(R) 94 system (copyright 1995, Gaussian, Inc.),
 the Gaussian 92(TM) system (copyright 1992, Gaussian, Inc.),
 the Gaussian 90(TM) system (copyright 1990, Gaussian, Inc.),
 the Gaussian 88(TM) system (copyright 1988, Gaussian, Inc.),
 the Gaussian 86(TM) system (copyright 1986, Carnegie Mellon
 University), and the Gaussian 82(TM) system (copyright 1983,
 Carnegie Mellon University). Gaussian is a federally registered
 trademark of Gaussian, Inc.
  
 This software contains proprietary and confidential information,
 including trade secrets, belonging to Gaussian, Inc.
  
 This software is provided under written license and may be
 used, copied, transmitted, or stored only in accord with that
 written license.
  
 The following legend is applicable only to US Government
 contracts under FAR:
  
                    RESTRICTED RIGHTS LEGEND
  
 Use, reproduction and disclosure by the US Government is
 subject to restrictions as set forth in subparagraphs (a)
 and (c) of the Commercial Computer Software - Restricted
 Rights clause in FAR 52.227-19.
  
 Gaussian, Inc.
 340 Quinnipiac St., Bldg. 40, Wallingford CT 06492
  
  
 ---------------------------------------------------------------
 Warning -- This program may not be used in any manner that
 competes with the business of Gaussian, Inc. or will provide
 assistance to any competitor of Gaussian, Inc.  The licensee
 of this program is prohibited from giving any competitor of
 Gaussian, Inc. access to this program.  By using this program,
 the user acknowledges that Gaussian, Inc. is engaged in the
 business of creating and licensing software in the field of
 computational chemistry and represents and warrants to the
 licensee that it is not a competitor of Gaussian, Inc. and that
 it will not use this program in any manner prohibited above.
 ---------------------------------------------------------------
  

 Cite this work as:
 Gaussian 09, Revision C.01,
 M. J. Frisch, G. W. Trucks, H. B. Schlegel, G. E. Scuseria, 
 M. A. Robb, J. R. Cheeseman, G. Scalmani, V. Barone, B. Mennucci, 
 G. A. Petersson, H. Nakatsuji, M. Caricato, X. Li, H. P. Hratchian, 
 A. F. Izmaylov, J. Bloino, G. Zheng, J. L. Sonnenberg, M. Hada, 
 M. Ehara, K. Toyota, R. Fukuda, J. Hasegawa, M. Ishida, T. Nakajima, 
 Y. Honda, O. Kitao, H. Nakai, T. Vreven, J. A. Montgomery, Jr., 
 J. E. Peralta, F. Ogliaro, M. Bearpark, J. J. Heyd, E. Brothers, 
 K. N. Kudin, V. N. Staroverov, T. Keith, R. Kobayashi, J. Normand, 
 K. Raghavachari, A. Rendell, J. C. Burant, S. S. Iyengar, J. Tomasi, 
 M. Cossi, N. Rega, J. M. Millam, M. Klene, J. E. Knox, J. B. Cross, 
 V. Bakken, C. Adamo, J. Jaramillo, R. Gomperts, R. E. Stratmann, 
 O. Yazyev, A. J. Austin, R. Cammi, C. Pomelli, J. W. Ochterski, 
 R. L. Martin, K. Morokuma, V. G. Zakrzewski, G. A. Voth, 
 P. Salvador, J. J. Dannenberg, S. Dapprich, A. D. Daniels, 
 O. Farkas, J. B. Foresman, J. V. Ortiz, J. Cioslowski, 
 and D. J. Fox, Gaussian, Inc., Wallingford CT, 2010.
 
 ******************************************
 Gaussian 09:  EM64L-G09RevC.01 23-Sep-2011
                29-Dec-2013 
 ******************************************
 %chk=87_C20H6N4OS4Se.chk
 %NProcShared=12
 Will use up to   12 processors via shared memory.
 %Mem=8000MB
 Default route:  MaxDisk=100GB
 --------------------------------------------
 #B3LYP/6-31++G(d,p) opt scf=direct freq test
 --------------------------------------------
 1/14=-1,18=20,19=15,26=3,38=1/1,3;
 2/9=110,12=2,17=6,18=5,40=1/2;
 3/5=1,6=6,7=1111,11=2,16=1,25=1,30=1,71=1,74=-5/1,2,3;
 4//1;
 5/5=2,38=5/2;
 6/7=2,8=2,9=2,10=2,28=1/1;
 7//1,2,3,16;
 1/14=-1,18=20,19=15/3(2);
 2/9=110/2;
 99//99;
 2/9=110/2;
 3/5=1,6=6,7=1111,11=2,16=1,25=1,30=1,71=1,74=-5/1,2,3;
 4/5=5,16=3/1;
 5/5=2,38=5/2;
 7//1,2,3,16;
 1/14=-1,18=20,19=15/3(-5);
 2/9=110/2;
 6/7=2,8=2,9=2,10=2,19=2,28=1/1;
 99/9=1/99;
 ----------------------------------------------------------------------
 Geom opt of No.87 candidate from the CEPDB database with SMILE code of
  [SiH2]1cc2c(ccc(-c3cccnc3)c2c1)-c1ccc([Se]1)-c1nccc2nsnc12, HPC, 2013
 1227, Shuo Dai, Gaussian09
 ----------------------------------------------------------------------
 Charge =  0 Multiplicity = 1
 Symbolic Z-Matrix:
 Si                   -2.577    -0.704     0.001 
 H                    -3.43535  -1.04992  -1.07602 
 H                    -3.33723  -1.00957   1.16077 
 C                    -2.016     1.043     0. 
 C                    -0.263     0.731    -0.001 
 C                     0.747     1.531    -0.002 
 C                     2.056     1.029     0.004 
 C                     2.243    -0.363    -0.002 
 C                     1.191    -1.182    -0.001 
 C                     1.39983  -2.61082  -0.00093 
 C                     2.39261  -3.11938  -0.73276 
 C                     2.6153   -4.52432  -0.7057 
 C                     1.62993  -5.36785  -0.16714 
 N                     0.66028  -4.86695   0.54027 
 C                     0.60263  -3.48678   0.77535 
 C                    -0.137    -0.665     0. 
 C                    -1.246    -1.422     0.001 
 C                     0.52284   2.99593  -0.00957 
 C                     0.43648   3.64283  -1.15982 
 C                     0.46009   5.08839  -0.81628 
 C                     0.55252   5.14576   0.50175 
 Se                    0.59599   3.89405   0.98604 
 C                    -0.62695   5.85314   1.05382 
 N                    -1.69969   5.18075   1.52458 
 C                    -2.77189   5.82986   2.05003 
 C                    -2.81218   7.1781    2.1383 
 C                    -1.73616   7.93535   1.67114 
 N                    -1.45899   9.24746   1.60297 
 S                    -0.26973   9.39274   1.05506 
 N                     0.25043   8.21163   0.75528 
 C                    -0.61271   7.26244   1.11403 
 H                    -2.3341    1.57256   0.87366 
 H                    -2.38676   1.65763  -0.79351 
 H                     2.86547   1.66908   0.01265 
 H                     3.19833  -0.75331  -0.0072 
 H                     2.9887   -2.50437  -1.30849 
 H                     3.49264  -4.91987  -1.0783 
 H                     1.67529  -6.38546  -0.33279 
 H                    -0.01715  -3.11085   1.5099 
 H                    -1.21347  -2.03828   0.87509 
 H                    -1.21889  -1.94943  -0.92958 
 H                     0.36695   3.22871  -2.10253 
 H                     0.41386   5.8842   -1.47169 
 H                    -3.57577   5.27939   2.39031 
 H                    -3.63508   7.64592   2.54939 
 

 GradGradGradGradGradGradGradGradGradGradGradGradGradGradGradGradGradGrad
 Berny optimization.
 Initialization pass.
                           ----------------------------
                           !    Initial Parameters    !
                           ! (Angstroms and Degrees)  !
 --------------------------                            --------------------------
 ! Name  Definition              Value          Derivative Info.                !
 --------------------------------------------------------------------------------
 ! R1    R(1,2)                  1.42           estimate D2E/DX2                !
 ! R2    R(1,3)                  1.42           estimate D2E/DX2                !
 ! R3    R(1,4)                  1.8349         estimate D2E/DX2                !
 ! R4    R(1,17)                 1.5123         estimate D2E/DX2                !
 ! R5    R(4,5)                  1.7805         estimate D2E/DX2                !
 ! R6    R(4,32)                 1.07           estimate D2E/DX2                !
 ! R7    R(4,33)                 1.07           estimate D2E/DX2                !
 ! R8    R(5,6)                  1.2884         estimate D2E/DX2                !
 ! R9    R(5,16)                 1.4017         estimate D2E/DX2                !
 ! R10   R(6,7)                  1.402          estimate D2E/DX2                !
 ! R11   R(6,18)                 1.482          estimate D2E/DX2                !
 ! R12   R(7,8)                  1.4045         estimate D2E/DX2                !
 ! R13   R(7,34)                 1.032          estimate D2E/DX2                !
 ! R14   R(8,9)                  1.3332         estimate D2E/DX2                !
 ! R15   R(8,35)                 1.032          estimate D2E/DX2                !
 ! R16   R(9,10)                 1.444          estimate D2E/DX2                !
 ! R17   R(9,16)                 1.4251         estimate D2E/DX2                !
 ! R18   R(10,11)                1.3341         estimate D2E/DX2                !
 ! R19   R(10,15)                1.4161         estimate D2E/DX2                !
 ! R20   R(11,12)                1.4227         estimate D2E/DX2                !
 ! R21   R(11,36)                1.032          estimate D2E/DX2                !
 ! R22   R(12,13)                1.4045         estimate D2E/DX2                !
 ! R23   R(12,37)                1.032          estimate D2E/DX2                !
 ! R24   R(13,14)                1.3006         estimate D2E/DX2                !
 ! R25   R(13,38)                1.032          estimate D2E/DX2                !
 ! R26   R(14,15)                1.4012         estimate D2E/DX2                !
 ! R27   R(15,39)                1.032          estimate D2E/DX2                !
 ! R28   R(16,17)                1.3427         estimate D2E/DX2                !
 ! R29   R(17,40)                1.07           estimate D2E/DX2                !
 ! R30   R(17,41)                1.07           estimate D2E/DX2                !
 ! R31   R(18,19)                1.3225         estimate D2E/DX2                !
 ! R32   R(18,22)                1.3428         estimate D2E/DX2                !
 ! R33   R(19,20)                1.486          estimate D2E/DX2                !
 ! R34   R(19,22)                2.1664         estimate D2E/DX2                !
 ! R35   R(19,42)                1.032          estimate D2E/DX2                !
 ! R36   R(20,21)                1.3225         estimate D2E/DX2                !
 ! R37   R(20,22)                2.1664         estimate D2E/DX2                !
 ! R38   R(20,43)                1.032          estimate D2E/DX2                !
 ! R39   R(21,22)                1.3428         estimate D2E/DX2                !
 ! R40   R(21,23)                1.482          estimate D2E/DX2                !
 ! R41   R(23,24)                1.3507         estimate D2E/DX2                !
 ! R42   R(23,31)                1.4107         estimate D2E/DX2                !
 ! R43   R(24,25)                1.3591         estimate D2E/DX2                !
 ! R44   R(25,26)                1.3517         estimate D2E/DX2                !
 ! R45   R(25,44)                1.032          estimate D2E/DX2                !
 ! R46   R(26,27)                1.3962         estimate D2E/DX2                !
 ! R47   R(26,45)                1.032          estimate D2E/DX2                !
 ! R48   R(27,28)                1.3428         estimate D2E/DX2                !
 ! R49   R(27,29)                2.1573         estimate D2E/DX2                !
 ! R50   R(27,31)                1.4231         estimate D2E/DX2                !
 ! R51   R(28,29)                1.3174         estimate D2E/DX2                !
 ! R52   R(29,30)                1.3249         estimate D2E/DX2                !
 ! R53   R(29,31)                2.1585         estimate D2E/DX2                !
 ! R54   R(30,31)                1.3322         estimate D2E/DX2                !
 ! A1    A(2,1,3)              104.089          estimate D2E/DX2                !
 ! A2    A(2,1,4)              114.6038         estimate D2E/DX2                !
 ! A3    A(2,1,17)             114.6041         estimate D2E/DX2                !
 ! A4    A(3,1,4)              111.6551         estimate D2E/DX2                !
 ! A5    A(3,1,17)             111.6553         estimate D2E/DX2                !
 ! A6    A(4,1,17)             100.5414         estimate D2E/DX2                !
 ! A7    A(1,4,5)               97.7111         estimate D2E/DX2                !
 ! A8    A(1,4,32)             112.326          estimate D2E/DX2                !
 ! A9    A(1,4,33)             116.1918         estimate D2E/DX2                !
 ! A10   A(5,4,32)             112.3257         estimate D2E/DX2                !
 ! A11   A(5,4,33)             116.1921         estimate D2E/DX2                !
 ! A12   A(32,4,33)            102.6043         estimate D2E/DX2                !
 ! A13   A(4,5,6)              131.5261         estimate D2E/DX2                !
 ! A14   A(4,5,16)             105.2493         estimate D2E/DX2                !
 ! A15   A(6,5,16)             123.2246         estimate D2E/DX2                !
 ! A16   A(5,6,7)              120.6357         estimate D2E/DX2                !
 ! A17   A(5,6,18)             119.6821         estimate D2E/DX2                !
 ! A18   A(7,6,18)             119.6823         estimate D2E/DX2                !
 ! A19   A(6,7,8)              118.6313         estimate D2E/DX2                !
 ! A20   A(6,7,34)             120.6843         estimate D2E/DX2                !
 ! A21   A(8,7,34)             120.6844         estimate D2E/DX2                !
 ! A22   A(7,8,9)              120.2496         estimate D2E/DX2                !
 ! A23   A(7,8,35)             119.8749         estimate D2E/DX2                !
 ! A24   A(9,8,35)             119.8755         estimate D2E/DX2                !
 ! A25   A(8,9,10)             119.5861         estimate D2E/DX2                !
 ! A26   A(8,9,16)             120.8273         estimate D2E/DX2                !
 ! A27   A(10,9,16)            119.5865         estimate D2E/DX2                !
 ! A28   A(9,10,11)            118.9985         estimate D2E/DX2                !
 ! A29   A(9,10,15)            122.0506         estimate D2E/DX2                !
 ! A30   A(11,10,15)           118.9354         estimate D2E/DX2                !
 ! A31   A(10,11,12)           118.8473         estimate D2E/DX2                !
 ! A32   A(10,11,36)           120.5763         estimate D2E/DX2                !
 ! A33   A(12,11,36)           120.5764         estimate D2E/DX2                !
 ! A34   A(11,12,13)           119.3779         estimate D2E/DX2                !
 ! A35   A(11,12,37)           120.3108         estimate D2E/DX2                !
 ! A36   A(13,12,37)           120.3113         estimate D2E/DX2                !
 ! A37   A(12,13,14)           120.0216         estimate D2E/DX2                !
 ! A38   A(12,13,38)           119.9893         estimate D2E/DX2                !
 ! A39   A(14,13,38)           119.989          estimate D2E/DX2                !
 ! A40   A(13,14,15)           120.0837         estimate D2E/DX2                !
 ! A41   A(10,15,14)           119.6126         estimate D2E/DX2                !
 ! A42   A(10,15,39)           120.194          estimate D2E/DX2                !
 ! A43   A(14,15,39)           120.1934         estimate D2E/DX2                !
 ! A44   A(5,16,9)             116.4287         estimate D2E/DX2                !
 ! A45   A(5,16,17)            119.1599         estimate D2E/DX2                !
 ! A46   A(9,16,17)            124.4114         estimate D2E/DX2                !
 ! A47   A(1,17,16)            117.3383         estimate D2E/DX2                !
 ! A48   A(1,17,40)            107.4701         estimate D2E/DX2                !
 ! A49   A(1,17,41)            104.8521         estimate D2E/DX2                !
 ! A50   A(16,17,40)           107.4704         estimate D2E/DX2                !
 ! A51   A(16,17,41)           104.8522         estimate D2E/DX2                !
 ! A52   A(40,17,41)           115.2007         estimate D2E/DX2                !
 ! A53   A(6,18,19)            119.8568         estimate D2E/DX2                !
 ! A54   A(6,18,22)            130.4732         estimate D2E/DX2                !
 ! A55   A(18,19,20)           105.886          estimate D2E/DX2                !
 ! A56   A(18,19,42)           127.0573         estimate D2E/DX2                !
 ! A57   A(20,19,42)           127.0567         estimate D2E/DX2                !
 ! A58   A(22,19,42)           163.001          estimate D2E/DX2                !
 ! A59   A(19,20,21)           105.8851         estimate D2E/DX2                !
 ! A60   A(19,20,43)           127.0573         estimate D2E/DX2                !
 ! A61   A(21,20,43)           127.0576         estimate D2E/DX2                !
 ! A62   A(22,20,43)           162.999          estimate D2E/DX2                !
 ! A63   A(20,21,23)           109.6539         estimate D2E/DX2                !
 ! A64   A(22,21,23)           109.6541         estimate D2E/DX2                !
 ! A65   A(18,22,20)            75.4328         estimate D2E/DX2                !
 ! A66   A(18,22,21)           110.7494         estimate D2E/DX2                !
 ! A67   A(19,22,21)            75.4326         estimate D2E/DX2                !
 ! A68   A(21,23,24)           121.6205         estimate D2E/DX2                !
 ! A69   A(21,23,31)           118.9942         estimate D2E/DX2                !
 ! A70   A(24,23,31)           119.3706         estimate D2E/DX2                !
 ! A71   A(23,24,25)           121.5705         estimate D2E/DX2                !
 ! A72   A(24,25,26)           121.6781         estimate D2E/DX2                !
 ! A73   A(24,25,44)           119.1604         estimate D2E/DX2                !
 ! A74   A(26,25,44)           119.1616         estimate D2E/DX2                !
 ! A75   A(25,26,27)           119.7444         estimate D2E/DX2                !
 ! A76   A(25,26,45)           120.1275         estimate D2E/DX2                !
 ! A77   A(27,26,45)           120.1281         estimate D2E/DX2                !
 ! A78   A(26,27,28)           134.9115         estimate D2E/DX2                !
 ! A79   A(26,27,31)           118.8753         estimate D2E/DX2                !
 ! A80   A(28,27,31)           106.2131         estimate D2E/DX2                !
 ! A81   A(27,29,30)            74.2913         estimate D2E/DX2                !
 ! A82   A(28,29,30)           110.499          estimate D2E/DX2                !
 ! A83   A(28,29,31)            74.7145         estimate D2E/DX2                !
 ! A84   A(23,31,27)           118.7586         estimate D2E/DX2                !
 ! A85   A(23,31,30)           134.9813         estimate D2E/DX2                !
 ! A86   A(27,31,30)           106.2601         estimate D2E/DX2                !
 ! A87   L(26,27,29,6,-1)      189.6655         estimate D2E/DX2                !
 ! A88   L(23,31,29,26,-1)     189.4582         estimate D2E/DX2                !
 ! A89   L(26,27,29,6,-2)      179.7378         estimate D2E/DX2                !
 ! A90   L(23,31,29,26,-2)     179.9927         estimate D2E/DX2                !
 ! D1    D(2,1,4,5)           -123.4128         estimate D2E/DX2                !
 ! D2    D(2,1,4,32)           118.5525         estimate D2E/DX2                !
 ! D3    D(2,1,4,33)             0.8494         estimate D2E/DX2                !
 ! D4    D(3,1,4,5)            118.5607         estimate D2E/DX2                !
 ! D5    D(3,1,4,32)             0.526          estimate D2E/DX2                !
 ! D6    D(3,1,4,33)          -117.1772         estimate D2E/DX2                !
 ! D7    D(17,1,4,5)             0.0224         estimate D2E/DX2                !
 ! D8    D(17,1,4,32)         -118.0123         estimate D2E/DX2                !
 ! D9    D(17,1,4,33)          124.2846         estimate D2E/DX2                !
 ! D10   D(2,1,17,16)          123.4187         estimate D2E/DX2                !
 ! D11   D(2,1,17,40)         -115.4493         estimate D2E/DX2                !
 ! D12   D(2,1,17,41)            7.5937         estimate D2E/DX2                !
 ! D13   D(3,1,17,16)         -118.5544         estimate D2E/DX2                !
 ! D14   D(3,1,17,40)            2.5776         estimate D2E/DX2                !
 ! D15   D(3,1,17,41)          125.6206         estimate D2E/DX2                !
 ! D16   D(4,1,17,16)           -0.0163         estimate D2E/DX2                !
 ! D17   D(4,1,17,40)          121.1157         estimate D2E/DX2                !
 ! D18   D(4,1,17,41)         -115.8413         estimate D2E/DX2                !
 ! D19   D(1,4,5,6)            179.9963         estimate D2E/DX2                !
 ! D20   D(1,4,5,16)            -0.024          estimate D2E/DX2                !
 ! D21   D(32,4,5,6)           -61.9688         estimate D2E/DX2                !
 ! D22   D(32,4,5,16)          118.011          estimate D2E/DX2                !
 ! D23   D(33,4,5,6)            55.7343         estimate D2E/DX2                !
 ! D24   D(33,4,5,16)         -124.2859         estimate D2E/DX2                !
 ! D25   D(4,5,6,7)            179.6851         estimate D2E/DX2                !
 ! D26   D(4,5,6,18)            -0.3151         estimate D2E/DX2                !
 ! D27   D(16,5,6,7)            -0.2916         estimate D2E/DX2                !
 ! D28   D(16,5,6,18)          179.7082         estimate D2E/DX2                !
 ! D29   D(4,5,16,9)           179.9793         estimate D2E/DX2                !
 ! D30   D(4,5,16,17)            0.0184         estimate D2E/DX2                !
 ! D31   D(6,5,16,9)            -0.0388         estimate D2E/DX2                !
 ! D32   D(6,5,16,17)         -179.9997         estimate D2E/DX2                !
 ! D33   D(5,6,7,8)              0.6096         estimate D2E/DX2                !
 ! D34   D(5,6,7,34)          -179.3902         estimate D2E/DX2                !
 ! D35   D(18,6,7,8)          -179.3902         estimate D2E/DX2                !
 ! D36   D(18,6,7,34)            0.61           estimate D2E/DX2                !
 ! D37   D(5,6,18,19)          -90.5079         estimate D2E/DX2                !
 ! D38   D(5,6,18,22)          101.8733         estimate D2E/DX2                !
 ! D39   D(7,6,18,19)           89.4919         estimate D2E/DX2                !
 ! D40   D(7,6,18,22)          -78.1269         estimate D2E/DX2                !
 ! D41   D(6,7,8,9)             -0.6055         estimate D2E/DX2                !
 ! D42   D(6,7,8,35)           179.3947         estimate D2E/DX2                !
 ! D43   D(34,7,8,9)           179.3943         estimate D2E/DX2                !
 ! D44   D(34,7,8,35)           -0.6055         estimate D2E/DX2                !
 ! D45   D(7,8,9,10)          -179.7128         estimate D2E/DX2                !
 ! D46   D(7,8,9,16)             0.2872         estimate D2E/DX2                !
 ! D47   D(35,8,9,10)            0.2871         estimate D2E/DX2                !
 ! D48   D(35,8,9,16)         -179.7129         estimate D2E/DX2                !
 ! D49   D(8,9,10,11)          -38.797          estimate D2E/DX2                !
 ! D50   D(8,9,10,15)          139.7536         estimate D2E/DX2                !
 ! D51   D(16,9,10,11)         141.203          estimate D2E/DX2                !
 ! D52   D(16,9,10,15)         -40.2465         estimate D2E/DX2                !
 ! D53   D(8,9,16,5)             0.0396         estimate D2E/DX2                !
 ! D54   D(8,9,16,17)          179.9981         estimate D2E/DX2                !
 ! D55   D(10,9,16,5)         -179.9604         estimate D2E/DX2                !
 ! D56   D(10,9,16,17)          -0.0018         estimate D2E/DX2                !
 ! D57   D(9,10,11,12)         178.5382         estimate D2E/DX2                !
 ! D58   D(9,10,11,36)          -1.4611         estimate D2E/DX2                !
 ! D59   D(15,10,11,12)         -0.058          estimate D2E/DX2                !
 ! D60   D(15,10,11,36)        179.9427         estimate D2E/DX2                !
 ! D61   D(9,10,15,14)         167.1203         estimate D2E/DX2                !
 ! D62   D(9,10,15,39)         -12.8803         estimate D2E/DX2                !
 ! D63   D(11,10,15,14)        -14.3283         estimate D2E/DX2                !
 ! D64   D(11,10,15,39)        165.6711         estimate D2E/DX2                !
 ! D65   D(10,11,12,13)         14.1276         estimate D2E/DX2                !
 ! D66   D(10,11,12,37)       -165.8721         estimate D2E/DX2                !
 ! D67   D(36,11,12,13)       -165.873          estimate D2E/DX2                !
 ! D68   D(36,11,12,37)         14.1273         estimate D2E/DX2                !
 ! D69   D(11,12,13,14)        -13.9919         estimate D2E/DX2                !
 ! D70   D(11,12,13,38)        166.0072         estimate D2E/DX2                !
 ! D71   D(37,12,13,14)        166.0077         estimate D2E/DX2                !
 ! D72   D(37,12,13,38)        -13.9931         estimate D2E/DX2                !
 ! D73   D(12,13,14,15)         -0.5091         estimate D2E/DX2                !
 ! D74   D(38,13,14,15)        179.4918         estimate D2E/DX2                !
 ! D75   D(13,14,15,10)         14.7999         estimate D2E/DX2                !
 ! D76   D(13,14,15,39)       -165.1996         estimate D2E/DX2                !
 ! D77   D(5,16,17,1)           -0.0009         estimate D2E/DX2                !
 ! D78   D(5,16,17,40)        -121.1327         estimate D2E/DX2                !
 ! D79   D(5,16,17,41)         115.8241         estimate D2E/DX2                !
 ! D80   D(9,16,17,1)         -179.9584         estimate D2E/DX2                !
 ! D81   D(9,16,17,40)          58.9098         estimate D2E/DX2                !
 ! D82   D(9,16,17,41)         -64.1334         estimate D2E/DX2                !
 ! D83   D(6,18,19,20)        -170.0975         estimate D2E/DX2                !
 ! D84   D(6,18,19,42)           9.9032         estimate D2E/DX2                !
 ! D85   D(6,18,22,20)         168.686          estimate D2E/DX2                !
 ! D86   D(6,18,22,21)         168.9502         estimate D2E/DX2                !
 ! D87   D(18,19,20,21)         -0.2454         estimate D2E/DX2                !
 ! D88   D(18,19,20,43)        179.7539         estimate D2E/DX2                !
 ! D89   D(42,19,20,21)        179.7539         estimate D2E/DX2                !
 ! D90   D(42,19,20,43)         -0.2467         estimate D2E/DX2                !
 ! D91   D(42,19,22,21)       -179.7748         estimate D2E/DX2                !
 ! D92   D(19,20,21,23)       -119.4791         estimate D2E/DX2                !
 ! D93   D(43,20,21,23)         60.5216         estimate D2E/DX2                !
 ! D94   D(43,20,22,18)       -179.3115         estimate D2E/DX2                !
 ! D95   D(23,21,22,18)        119.4449         estimate D2E/DX2                !
 ! D96   D(23,21,22,19)        119.6089         estimate D2E/DX2                !
 ! D97   D(20,21,23,24)         96.7244         estimate D2E/DX2                !
 ! D98   D(20,21,23,31)        -84.6747         estimate D2E/DX2                !
 ! D99   D(22,21,23,24)        -22.6019         estimate D2E/DX2                !
 ! D100  D(22,21,23,31)        155.9991         estimate D2E/DX2                !
 ! D101  D(21,23,24,25)        178.9438         estimate D2E/DX2                !
 ! D102  D(31,23,24,25)          0.348          estimate D2E/DX2                !
 ! D103  D(21,23,29,28)       -178.7914         estimate D2E/DX2                !
 ! D104  D(24,23,29,28)         -0.1037         estimate D2E/DX2                !
 ! D105  D(21,23,31,27)       -178.6852         estimate D2E/DX2                !
 ! D106  D(21,23,31,30)          1.3308         estimate D2E/DX2                !
 ! D107  D(24,23,31,27)         -0.0522         estimate D2E/DX2                !
 ! D108  D(24,23,31,30)        179.9638         estimate D2E/DX2                !
 ! D109  D(23,24,25,26)         -0.6087         estimate D2E/DX2                !
 ! D110  D(23,24,25,44)        179.3918         estimate D2E/DX2                !
 ! D111  D(24,25,26,27)          0.5473         estimate D2E/DX2                !
 ! D112  D(24,25,26,45)       -179.453          estimate D2E/DX2                !
 ! D113  D(44,25,26,27)       -179.4533         estimate D2E/DX2                !
 ! D114  D(44,25,26,45)          0.5465         estimate D2E/DX2                !
 ! D115  D(25,26,27,28)        179.7131         estimate D2E/DX2                !
 ! D116  D(25,26,27,31)         -0.2448         estimate D2E/DX2                !
 ! D117  D(45,26,27,28)         -0.2866         estimate D2E/DX2                !
 ! D118  D(45,26,27,31)        179.7555         estimate D2E/DX2                !
 ! D119  D(25,26,29,30)         -0.2332         estimate D2E/DX2                !
 ! D120  D(45,26,29,30)        179.7891         estimate D2E/DX2                !
 ! D121  D(26,27,31,23)          0.0033         estimate D2E/DX2                !
 ! D122  D(26,27,31,30)        179.9915         estimate D2E/DX2                !
 ! D123  D(28,27,31,23)       -179.9656         estimate D2E/DX2                !
 ! D124  D(28,27,31,30)          0.0226         estimate D2E/DX2                !
 --------------------------------------------------------------------------------
 Trust Radius=3.00D-01 FncErr=1.00D-07 GrdErr=1.00D-06
 Number of steps in this run=    270 maximum allowed number of steps=    270.
 GradGradGradGradGradGradGradGradGradGradGradGradGradGradGradGradGradGrad

                          Input orientation:                          
 ---------------------------------------------------------------------
 Center     Atomic      Atomic             Coordinates (Angstroms)
 Number     Number       Type             X           Y           Z
 ---------------------------------------------------------------------
      1         14           0       -2.577000   -0.704000    0.001000
      2          1           0       -3.435350   -1.049920   -1.076020
      3          1           0       -3.337230   -1.009570    1.160770
      4          6           0       -2.016000    1.043000    0.000000
      5          6           0       -0.263000    0.731000   -0.001000
      6          6           0        0.747000    1.531000   -0.002000
      7          6           0        2.056000    1.029000    0.004000
      8          6           0        2.243000   -0.363000   -0.002000
      9          6           0        1.191000   -1.182000   -0.001000
     10          6           0        1.399830   -2.610820   -0.000930
     11          6           0        2.392610   -3.119380   -0.732760
     12          6           0        2.615300   -4.524320   -0.705700
     13          6           0        1.629930   -5.367850   -0.167140
     14          7           0        0.660280   -4.866950    0.540270
     15          6           0        0.602630   -3.486780    0.775350
     16          6           0       -0.137000   -0.665000    0.000000
     17          6           0       -1.246000   -1.422000    0.001000
     18          6           0        0.522840    2.995930   -0.009570
     19          6           0        0.436480    3.642830   -1.159820
     20          6           0        0.460090    5.088390   -0.816280
     21          6           0        0.552520    5.145760    0.501750
     22         34           0        0.595990    3.894050    0.986040
     23          6           0       -0.626950    5.853140    1.053820
     24          7           0       -1.699690    5.180750    1.524580
     25          6           0       -2.771890    5.829860    2.050030
     26          6           0       -2.812180    7.178100    2.138300
     27          6           0       -1.736160    7.935350    1.671140
     28          7           0       -1.458990    9.247460    1.602970
     29         16           0       -0.269730    9.392740    1.055060
     30          7           0        0.250430    8.211630    0.755280
     31          6           0       -0.612710    7.262440    1.114030
     32          1           0       -2.334100    1.572560    0.873660
     33          1           0       -2.386760    1.657630   -0.793510
     34          1           0        2.865470    1.669080    0.012650
     35          1           0        3.198330   -0.753310   -0.007200
     36          1           0        2.988700   -2.504370   -1.308490
     37          1           0        3.492640   -4.919870   -1.078300
     38          1           0        1.675290   -6.385460   -0.332790
     39          1           0       -0.017150   -3.110850    1.509900
     40          1           0       -1.213470   -2.038280    0.875090
     41          1           0       -1.218890   -1.949430   -0.929580
     42          1           0        0.366950    3.228710   -2.102530
     43          1           0        0.413860    5.884200   -1.471690
     44          1           0       -3.575770    5.279390    2.390310
     45          1           0       -3.635080    7.645920    2.549390
 ---------------------------------------------------------------------
                    Distance matrix (angstroms):
                    1          2          3          4          5
     1  Si   0.000000
     2  H    1.419999   0.000000
     3  H    1.419996   2.239305   0.000000
     4  C    1.834865   2.748215   2.702976   0.000000
     5  C    2.722834   3.793567   3.718895   1.780549   0.000000
     6  C    4.005522   5.030578   4.948481   2.805765   1.288449
     7  C    4.946513   5.970199   5.880545   4.072026   2.338074
     8  C    4.832048   5.819711   5.736641   4.485078   2.734387
     9  C    3.798199   4.751445   4.678067   3.903265   2.402849
    10  C    4.410345   5.193380   5.133545   5.001829   3.732662
    11  C    5.574001   6.193998   6.392794   6.107224   4.734254
    12  C    6.484925   6.987056   7.160293   7.276126   6.033208
    13  C    6.283154   6.717711   6.740225   7.376974   6.388017
    14  N    5.301033   5.827203   5.589677   6.510136   5.699339
    15  C    4.295757   5.066670   4.669862   5.289357   4.375123
    16  C    2.440312   3.490716   3.421635   2.539273   1.401675
    17  C    1.512311   2.468131   2.426604   2.582465   2.366791
    18  C    4.826863   5.759643   5.684529   3.203082   2.397400
    19  C    5.415117   6.084406   6.424239   3.757520   3.211057
    20  C    6.591179   7.274666   7.450737   4.812745   4.491591
    21  C    6.653145   7.535179   7.311125   4.866383   4.517514
    22  Se   5.672762   6.704225   6.288580   3.990395   3.423010
    23  C    6.921503   7.750843   7.379285   5.116390   5.242273
    24  N    6.141763   6.971147   6.413576   4.421015   4.918511
    25  C    6.850389   7.585759   6.920130   5.261941   6.041492
    26  C    8.170120   8.855535   8.262517   6.545661   7.255344
    27  C    8.839386   9.548257   9.101401   7.097571   7.541148
    28  N   10.141391  10.822154  10.436953   8.378123   8.748326
    29  S   10.410509  11.118084  10.845680   8.595392   8.725884
    30  N    9.383590  10.134838   9.902841   7.556217   7.536272
    31  C    8.280183   9.047593   8.709268   6.472381   6.635156
    32  H    2.450155   3.448392   2.784977   1.070001   2.400564
    33  H    2.498947   2.917221   3.440430   1.069996   2.448892
    34  H    5.937350   6.948273   6.853235   4.921472   3.266115
    35  H    5.775546   6.725776   6.644048   5.515072   3.766168
    36  H    5.994423   6.590742   6.953349   6.272400   4.769770
    37  H    7.468533   7.935588   8.182359   8.189241   6.870061
    38  H    7.104391   7.425565   7.500418   8.301710   7.383160
    39  H    3.823943   4.755892   3.944642   4.850739   4.135586
    40  H    2.098464   3.117761   2.377018   3.302139   3.056115
    41  H    2.064349   2.396510   3.120940   3.233286   2.993441
    42  H    5.343958   5.815315   6.506389   3.856995   3.324428
    43  H    7.383660   7.940717   8.277958   5.613137   5.401531
    44  H    6.519762   7.217709   6.412463   5.108176   6.113973
    45  H    8.794031   9.423435   8.771231   7.260810   8.105031
                    6          7          8          9         10
     6  C    0.000000
     7  C    1.401970   0.000000
     8  C    2.413556   1.404517   0.000000
     9  C    2.749092   2.374188   1.333216   0.000000
    10  C    4.192954   3.698496   2.400756   1.444000   0.000000
    11  C    4.986790   4.226722   2.855525   2.394323   1.334099
    12  C    6.375942   5.626353   4.236789   3.700856   2.373931
    13  C    6.957080   6.413308   5.044963   4.212078   2.771604
    14  N    6.421475   6.082585   4.804646   3.762113   2.435150
    15  C    5.079688   4.806197   3.612906   2.502181   1.416137
    16  C    2.367251   2.771083   2.399085   1.425087   2.479529
    17  C    3.562621   4.112252   3.646178   2.448790   2.900640
    18  C    1.482000   2.493908   3.773780   4.231029   5.674930
    19  C    2.428332   3.287770   4.544308   5.019078   6.432667
    20  C    3.660655   4.438292   5.793054   6.365273   7.799086
    21  C    3.654870   4.410887   5.784282   6.379730   7.818897
    22  Se   2.565742   3.362223   4.670261   5.205244   6.628243
    23  C    4.656543   5.618956   6.927609   7.342396   8.766924
    24  N    4.651603   5.801241   6.971974   7.153186   8.523073
    25  C    5.922298   7.109361   8.228698   8.311282   9.636118
    26  C    7.009878   8.128090   9.327589   9.512798  10.869236
    27  C    7.069737   8.053416   9.353915   9.720617  11.128879
    28  N    8.184502   9.080471  10.423128  10.879743  12.303014
    29  S    7.997379   8.744478  10.129445  10.727261  12.165032
    30  N    6.741726   7.444104   8.835615   9.470846  10.909555
    31  C    5.995310   6.870950   8.218755   8.706620  10.137787
    32  H    3.203386   4.508297   5.046089   4.558395   5.675192
    33  H    3.234652   4.557336   5.113131   4.635940   5.760739
    34  H    2.123016   1.031998   2.125331   3.306462   4.523917
    35  H    3.350689   2.116996   1.032000   2.052605   2.585534
    36  H    4.797535   3.882945   2.616954   2.586488   2.060474
    37  H    7.093002   6.214850   4.846141   4.519933   3.297316
    38  H    7.977561   7.431863   6.058196   5.236470   3.799199
    39  H    4.941309   4.868680   3.865850   2.731832   2.130838
    40  H    4.165632   4.566885   3.939928   2.698560   2.815058
    41  H    4.103477   4.524104   3.919419   2.694212   2.856138
    42  H    2.727432   3.482683   4.564227   4.954780   6.291556
    43  H    4.606661   5.333597   6.673324   7.259343   8.677594
    44  H    6.201606   7.448297   8.450905   8.377948   9.629644
    45  H    7.943832   9.091261  10.256911  10.379196  11.707056
                   11         12         13         14         15
    11  C    0.000000
    12  C    1.422737   0.000000
    13  C    2.440743   1.404473   0.000000
    14  N    2.770483   2.343489   1.300596   0.000000
    15  C    2.369263   2.705705   2.341379   1.401234   0.000000
    16  C    3.599978   4.792444   5.026607   4.310908   3.018387
    17  C    4.081542   5.003344   4.885589   3.973965   2.877563
    18  C    6.435531   7.836909   8.438204   7.883279   6.530543
    19  C    7.052397   8.464976   9.143418   8.680826   7.389440
    20  C    8.432621   9.851972  10.541483  10.049333   8.722795
    21  C    8.557014   9.961097  10.589817  10.013364   8.637020
    22  Se   7.441123   8.820916   9.390508   8.772569   7.383840
    23  C    9.634092  11.013618  11.510641  10.809303   9.424623
    24  N    9.525474  10.852726  11.190230  10.367960   8.999339
    25  C   10.700695  11.992702  12.234401  11.334942   9.990594
    26  C   11.889950  13.209561  13.507341  12.637045  11.280879
    27  C   12.042945  13.409994  13.845034  13.073663  11.693478
    28  N   13.161656  14.546193  15.042673  14.312135  12.926566
    29  S   12.916559  14.321600  14.932431  14.299255  12.912060
    30  N   11.627338  13.035778  13.680503  13.086767  11.703728
    31  C   10.964706  12.355532  12.891666  12.209497  10.823007
    32  H    6.851034   8.010174   8.060154   7.109483   5.850724
    33  H    6.757654   7.952661   8.116866   7.323494   6.153270
    34  H    4.869146   6.239937   7.146836   6.918160   5.681993
    35  H    2.602673   3.879219   4.876417   4.864510   3.849922
    36  H    1.032001   2.140790   3.368747   3.797530   3.316753
    37  H    2.138043   1.031996   2.121459   3.262642   3.720474
    38  H    3.367759   2.118141   1.032002   2.024439   3.283431
    39  H    3.291890   3.719755   3.258740   2.117305   1.031995
    40  H    4.093626   4.831022   4.500800   3.409460   2.325149
    41  H    3.801375   4.623980   4.514719   3.768775   2.930557
    42  H    6.802780   8.192416   8.901781   8.521159   7.309962
    43  H    9.248023  10.666319  11.392511  10.940564   9.638469
    44  H   10.766358  12.001140  12.124503  11.149663   9.844433
    45  H   12.767037  14.063343  14.298884  13.381278  12.043356
                   16         17         18         19         20
    16  C    0.000000
    17  C    1.342733   0.000000
    18  C    3.719931   4.758888   0.000000
    19  C    4.497940   5.461753   1.322502   0.000000
    20  C    5.841603   6.779666   2.243459   1.486008   0.000000
    21  C    5.872999   6.827950   2.210000   2.243452   1.322512
    22  Se   4.721704   5.711709   1.342836   2.166396   2.166397
    23  C    6.620932   7.376945   3.258292   3.304021   2.294291
    24  N    6.240123   6.791424   3.473715   3.759578   3.186347
    25  C    7.302635   7.688715   4.809195   5.037844   4.383059
    26  C    8.558220   8.999038   5.764222   5.824905   4.878953
    27  C    8.905955   9.517858   5.685573   5.582153   4.372179
    28  N   10.127884  10.791156   6.753485   6.529754   5.180106
    29  S   10.113798  10.909755   6.533053   6.202088   4.749945
    30  N    8.917125   9.778296   5.278516   4.957434   3.502626
    31  C    8.019456   8.778348   4.555772   4.401451   3.098950
    32  H    3.255335   3.303466   3.311825   4.012128   4.798381
    33  H    3.329518   3.378861   3.297178   3.470718   4.458160
    34  H    3.803014   5.143841   2.692386   3.342210   4.262002
    35  H    3.336507   4.494361   4.605980   5.318120   6.502156
    36  H    3.855571   4.562781   6.166114   6.657627   8.017864
    37  H    5.695695   5.987879   8.521842   9.092117  10.460893
    38  H    6.009892   5.768994   9.457436  10.138305  11.548147
    39  H    2.876864   2.576638   6.316102   7.276358   8.536182
    40  H    1.952042   1.069997   5.398210   6.256053   7.513385
    41  H    1.919470   1.069998   5.323216   5.836663   7.236209
    42  H    4.453715   5.353088   2.111627   1.032004   2.263078
    43  H    6.735083   7.635739   3.239101   2.263076   1.031995
    44  H    7.271485   7.486338   5.269935   5.601777   5.158184
    45  H    9.370557   9.717467   6.742328   6.808860   5.885500
                   21         22         23         24         25
    21  C    0.000000
    22  Se   1.342834   0.000000
    23  C    1.481998   2.310457   0.000000
    24  N    2.473834   2.686218   1.350738   0.000000
    25  C    3.730532   4.027661   2.365110   1.359064   0.000000
    26  C    4.257923   4.871171   2.776121   2.367212   1.351727
    27  C    3.793065   4.715972   2.438653   2.758737   2.376843
    28  N    4.699234   5.767369   3.537692   4.074581   3.688300
    29  S    4.361088   5.566851   3.557580   4.472817   4.465970
    30  N    3.091132   4.337529   2.534048   3.685244   4.060003
    31  C    2.492585   3.580976   1.410657   2.384011   2.755075
    32  H    4.608541   3.739970   4.611961   3.720915   4.438481
    33  H    4.741742   4.131001   4.910383   4.272936   5.063748
    34  H    4.204314   3.323931   5.548639   5.954699   7.296769
    35  H    6.485242   5.418178   7.707380   7.845382   9.122163
    36  H    8.230215   7.206227   9.407519   9.437603  10.673493
    37  H   10.604611   9.504592  11.729224  11.651515  12.829165
    38  H   11.615770  10.419814  12.530217  12.190879  13.216251
    39  H    8.337416   7.051170   8.996276   8.460602   9.371053
    40  H    7.407330   6.203144   7.915204   7.264478   8.106589
    41  H    7.451733   6.411681   8.072445   7.556027   8.473915
    42  H    3.239103   3.167712   4.223507   4.608404   5.819111
    43  H    2.111631   3.167697   2.731749   3.733573   4.749154
    44  H    4.541728   4.614621   3.287998   2.068549   1.032003
    45  H    5.289577   5.867073   3.807839   3.297428   2.071842
                   26         27         28         29         30
    26  C    0.000000
    27  C    1.396240   0.000000
    28  N    2.529813   1.342797   0.000000
    29  S    3.541482   2.157303   1.317441   0.000000
    30  N    3.515751   2.204920   2.171092   1.324936   0.000000
    31  C    2.427738   1.423137   2.212590   2.158539   1.332169
    32  H    5.766277   6.440388   7.758982   8.090102   7.125381
    33  H    6.265148   6.775511   8.013076   8.229882   7.232457
    34  H    8.191666   7.949322   8.869155   8.400656   7.084835
    35  H   10.180209  10.132069  11.148932  10.774886   9.467927
    36  H   11.801728  11.840196  12.898219  12.559656  11.251219
    37  H   14.016353  14.147666  15.245363  14.951838  13.649551
    38  H   14.498753  14.857299  16.061104  15.958096  14.706773
    39  H   10.680336  11.180319  12.442483  12.514409  11.350753
    40  H    9.438921  10.018992  11.311853  11.471323  10.354613
    41  H    9.760239  10.234265  11.482239  11.553550  10.404076
    42  H    6.609780   6.388749   7.300009   6.954926   5.745446
    43  H    5.011341   4.325180   4.926725   4.377398   3.225374
    44  H    2.061960   3.309908   4.565768   5.443569   5.090301
    45  H    1.031996   2.112106   2.862867   4.075535   4.316949
                   31         32         33         34         35
    31  C    0.000000
    32  H    5.949428   0.000000
    33  H    6.180603   1.670169   0.000000
    34  H    6.678057   5.271260   5.313751   0.000000
    35  H    8.946141   6.065754   6.133852   2.445233   0.000000
    36  H   10.687812   7.050910   6.817846   4.379301   2.191691
    37  H   13.041046   8.939390   8.826775   6.708038   4.312087
    38  H   13.913785   8.992264   9.022406   8.149323   5.843524
    39  H   10.397911   5.263781   5.801651   5.779186   4.266017
    40  H    9.323165   3.780738   4.221444   5.579075   4.679056
    41  H    9.455281   4.110934   3.793853   5.537455   4.668332
    42  H    5.251378   4.346977   3.429977   3.626160   5.316352
    43  H    3.104729   5.625139   5.115398   5.097146   7.345376
    44  H    3.786965   4.193156   4.966649   7.757395   9.382428
    45  H    3.367794   6.433220   6.970861   9.187754  11.125588
                   36         37         38         39         40
    36  H    0.000000
    37  H    2.478222   0.000000
    38  H    4.211876   2.450816   0.000000
    39  H    4.164886   4.721224   4.121035   0.000000
    40  H    4.758518   5.853782   5.357414   1.727591   0.000000
    41  H    4.260909   5.571727   5.330178   2.957049   1.806864
    42  H    6.353918   8.787397   9.862860   7.306655   6.253410
    43  H    8.776363  11.241066  12.386802   9.486125   8.421477
    44  H   10.833296  12.884820  13.078900   9.156147   7.837388
    45  H   12.719516  14.895087  15.276996  11.396405  10.121818
                   41         42         43         44         45
    41  H    0.000000
    42  H    5.541104   0.000000
    43  H    8.020319   2.729796   0.000000
    44  H    8.296529   6.319489   5.585516   0.000000
    45  H   10.488658   7.560975   5.972157   2.372612   0.000000
 Stoichiometry    C22H16N4SSeSi
 Framework group  C1[X(C22H16N4SSeSi)]
 Deg. of freedom   129
 Full point group                 C1      NOp   1
 Largest Abelian subgroup         C1      NOp   1
 Largest concise Abelian subgroup C1      NOp   1
                         Standard orientation:                         
 ---------------------------------------------------------------------
 Center     Atomic      Atomic             Coordinates (Angstroms)
 Number     Number       Type             X           Y           Z
 ---------------------------------------------------------------------
      1         14           0        2.784822    2.913045    0.691434
      2          1           0        3.118180    3.609880    1.882943
      3          1           0        2.825726    3.912473   -0.316465
      4          6           0        1.160626    2.060460    0.734044
      5          6           0        1.742153    0.419753    0.359528
      6          6           0        1.116840   -0.699312    0.229997
      7          6           0        1.813980   -1.875548   -0.079816
      8          6           0        3.208610   -1.810769   -0.233050
      9          6           0        3.845946   -0.647706   -0.096843
     10          6           0        5.279372   -0.596419   -0.263563
     11          6           0        6.021743   -1.599068    0.209089
     12          6           0        7.430702   -1.560541    0.015362
     13          6           0        8.038072   -0.360334   -0.388556
     14          7           0        7.309775    0.616879   -0.842635
     15          6           0        5.919595    0.470509   -0.939745
     16          6           0        3.130275    0.545519    0.211225
     17          6           0        3.697875    1.752732    0.364185
     18          6           0       -0.353493   -0.743526    0.410247
     19          6           0       -0.863212   -0.982757    1.606896
     20          6           0       -2.317728   -1.199707    1.393502
     21          6           0       -2.517546   -1.060844    0.093568
     22         34           0       -1.341813   -0.793385   -0.497468
     23          6           0       -3.462594    0.054641   -0.149114
     24          7           0       -3.028586    1.296764   -0.454502
     25          6           0       -3.896460    2.313990   -0.697609
     26          6           0       -5.235000    2.129926   -0.657654
     27          6           0       -5.752109    0.870238   -0.348998
     28          7           0       -6.986562    0.357170   -0.222549
     29         16           0       -6.876297   -0.918188    0.088829
     30          7           0       -5.600779   -1.266239    0.174677
     31          6           0       -4.849051   -0.198075   -0.087250
     32          1           0        0.486714    2.432366   -0.009213
     33          1           0        0.595039    2.166614    1.636116
     34          1           0        1.312748   -2.770526   -0.192950
     35          1           0        3.742013   -2.666695   -0.451904
     36          1           0        5.581646   -2.388903    0.706583
     37          1           0        8.001055   -2.406558    0.170177
     38          1           0        9.062590   -0.253787   -0.325016
     39          1           0        5.365543    1.136326   -1.500753
     40          1           0        4.202244    1.988649   -0.549515
     41          1           0        4.330784    1.651651    1.220984
     42          1           0       -0.355112   -1.012631    2.504656
     43          1           0       -3.026468   -1.414635    2.112185
     44          1           0       -3.524048    3.250801   -0.918344
     45          1           0       -5.872255    2.917431   -0.854523
 ---------------------------------------------------------------------
 Rotational constants (GHZ):      0.4767420      0.0551108      0.0510511
 Standard basis: 6-31++G(d,p) (6D, 7F)
 There are   670 symmetry adapted basis functions of A   symmetry.
 Integral buffers will be    131072 words long.
 Raffenetti 2 integral format.
 Two-electron integral symmetry is turned on.
   670 basis functions,  1159 primitive gaussians,   670 cartesian basis functions
   120 alpha electrons      120 beta electrons
       nuclear repulsion energy      3519.5960626410 Hartrees.
 NAtoms=   45 NActive=   45 NUniq=   45 SFac= 1.00D+00 NAtFMM=   60 NAOKFM=F Big=F
 One-electron integrals computed using PRISM.
 NBasis=   670 RedAO= T  NBF=   670
 NBsUse=   661 1.00D-06 NBFU=   661
 Harris functional with IExCor=  402 diagonalized for initial guess.
 ExpMin= 3.00D-02 ExpMax= 5.61D+05 ExpMxC= 5.42D+03 IAcc=3 IRadAn=         5 AccDes= 0.00D+00
 HarFok:  IExCor=  402 AccDes= 0.00D+00 IRadAn=         5 IDoV= 1
 ScaDFX=  1.000000  1.000000  1.000000  1.000000
 FoFCou: FMM=F IPFlag=           0 FMFlag=      100000 FMFlg1=           0
         NFxFlg=           0 DoJE=T BraDBF=F KetDBF=T FulRan=T
         Omega=  0.000000  0.000000  1.000000  0.000000  0.000000 ICntrl=     500 IOpCl=  0
         NMat0=    1 NMatS0=    1 NMatT0=    0 NMatD0=    1 NMtDS0=    0 NMtDT0=    0
         I1Cent=           4 NGrid=           0.
 Petite list used in FoFCou.
 Initial guess orbital symmetries:
       Occupied  (A) (A) (A) (A) (A) (A) (A) (A) (A) (A) (A) (A)
                 (A) (A) (A) (A) (A) (A) (A) (A) (A) (A) (A) (A)
                 (A) (A) (A) (A) (A) (A) (A) (A) (A) (A) (A) (A)
                 (A) (A) (A) (A) (A) (A) (A) (A) (A) (A) (A) (A)
                 (A) (A) (A) (A) (A) (A) (A) (A) (A) (A) (A) (A)
                 (A) (A) (A) (A) (A) (A) (A) (A) (A) (A) (A) (A)
                 (A) (A) (A) (A) (A) (A) (A) (A) (A) (A) (A) (A)
                 (A) (A) (A) (A) (A) (A) (A) (A) (A) (A) (A) (A)
                 (A) (A) (A) (A) (A) (A) (A) (A) (A) (A) (A) (A)
                 (A) (A) (A) (A) (A) (A) (A) (A) (A) (A) (A) (A)
       Virtual   (A) (A) (A) (A) (A) (A) (A) (A) (A) (A) (A) (A)
                 (A) (A) (A) (A) (A) (A) (A) (A) (A) (A) (A) (A)
                 (A) (A) (A) (A) (A) (A) (A) (A) (A) (A) (A) (A)
                 (A) (A) (A) (A) (A) (A) (A) (A) (A) (A) (A) (A)
                 (A) (A) (A) (A) (A) (A) (A) (A) (A) (A) (A) (A)
                 (A) (A) (A) (A) (A) (A) (A) (A) (A) (A) (A) (A)
                 (A) (A) (A) (A) (A) (A) (A) (A) (A) (A) (A) (A)
                 (A) (A) (A) (A) (A) (A) (A) (A) (A) (A) (A) (A)
                 (A) (A) (A) (A) (A) (A) (A) (A) (A) (A) (A) (A)
                 (A) (A) (A) (A) (A) (A) (A) (A) (A) (A) (A) (A)
                 (A) (A) (A) (A) (A) (A) (A) (A) (A) (A) (A) (A)
                 (A) (A) (A) (A) (A) (A) (A) (A) (A) (A) (A) (A)
                 (A) (A) (A) (A) (A) (A) (A) (A) (A) (A) (A) (A)
                 (A) (A) (A) (A) (A) (A) (A) (A) (A) (A) (A) (A)
                 (A) (A) (A) (A) (A) (A) (A) (A) (A) (A) (A) (A)
                 (A) (A) (A) (A) (A) (A) (A) (A) (A) (A) (A) (A)
                 (A) (A) (A) (A) (A) (A) (A) (A) (A) (A) (A) (A)
                 (A) (A) (A) (A) (A) (A) (A) (A) (A) (A) (A) (A)
                 (A) (A) (A) (A) (A) (A) (A) (A) (A) (A) (A) (A)
                 (A) (A) (A) (A) (A) (A) (A) (A) (A) (A) (A) (A)
                 (A) (A) (A) (A) (A) (A) (A) (A) (A) (A) (A) (A)
                 (A) (A) (A) (A) (A) (A) (A) (A) (A) (A) (A) (A)
                 (A) (A) (A) (A) (A) (A) (A) (A) (A) (A) (A) (A)
                 (A) (A) (A) (A) (A) (A) (A) (A) (A) (A) (A) (A)
                 (A) (A) (A) (A) (A) (A) (A) (A) (A) (A) (A) (A)
                 (A) (A) (A) (A) (A) (A) (A) (A) (A) (A) (A) (A)
                 (A) (A) (A) (A) (A) (A) (A) (A) (A) (A) (A) (A)
                 (A) (A) (A) (A) (A) (A) (A) (A) (A) (A) (A) (A)
                 (A) (A) (A) (A) (A) (A) (A) (A) (A) (A) (A) (A)
                 (A) (A) (A) (A) (A) (A) (A) (A) (A) (A) (A) (A)
                 (A) (A) (A) (A) (A) (A) (A) (A) (A) (A) (A) (A)
                 (A) (A) (A) (A) (A) (A) (A) (A) (A) (A) (A) (A)
                 (A) (A) (A) (A) (A) (A) (A) (A) (A) (A) (A) (A)
                 (A) (A) (A) (A) (A) (A) (A) (A) (A) (A) (A) (A)
                 (A) (A) (A) (A) (A) (A) (A) (A) (A) (A) (A) (A)
                 (A) (A) (A) (A) (A) (A) (A) (A) (A) (A) (A) (A)
                 (A) (A) (A) (A) (A) (A) (A) (A) (A) (A) (A) (A)
                 (A) (A) (A) (A) (A) (A) (A) (A) (A) (A) (A) (A)
                 (A) (A) (A) (A) (A) (A) (A) (A) (A) (A) (A) (A)
                 (A) (A) (A) (A) (A) (A) (A) (A) (A) (A) (A) (A)
                 (A) (A) (A) (A) (A) (A) (A) (A) (A) (A) (A) (A)
                 (A) (A) (A) (A) (A) (A) (A) (A) (A) (A) (A) (A)
                 (A) (A) (A) (A) (A) (A) (A) (A) (A) (A) (A) (A)
                 (A) (A) (A) (A) (A) (A) (A) (A) (A) (A) (A) (A)
                 (A) (A) (A) (A) (A) (A) (A) (A) (A) (A) (A) (A)
                 (A)
 The electronic state of the initial guess is 1-A.
 Requested convergence on RMS density matrix=1.00D-08 within 128 cycles.
 Requested convergence on MAX density matrix=1.00D-06.
 Requested convergence on             energy=1.00D-06.
 No special actions if energy rises.
 SCF Done:  E(RB3LYP) =  -4153.02915288     A.U. after   17 cycles
             Convg  =    0.3698D-08             -V/T =  2.0030

 **********************************************************************

            Population analysis using the SCF density.

 **********************************************************************

 Orbital symmetries:
       Occupied  (A) (A) (A) (A) (A) (A) (A) (A) (A) (A) (A) (A)
                 (A) (A) (A) (A) (A) (A) (A) (A) (A) (A) (A) (A)
                 (A) (A) (A) (A) (A) (A) (A) (A) (A) (A) (A) (A)
                 (A) (A) (A) (A) (A) (A) (A) (A) (A) (A) (A) (A)
                 (A) (A) (A) (A) (A) (A) (A) (A) (A) (A) (A) (A)
                 (A) (A) (A) (A) (A) (A) (A) (A) (A) (A) (A) (A)
                 (A) (A) (A) (A) (A) (A) (A) (A) (A) (A) (A) (A)
                 (A) (A) (A) (A) (A) (A) (A) (A) (A) (A) (A) (A)
                 (A) (A) (A) (A) (A) (A) (A) (A) (A) (A) (A) (A)
                 (A) (A) (A) (A) (A) (A) (A) (A) (A) (A) (A) (A)
       Virtual   (A) (A) (A) (A) (A) (A) (A) (A) (A) (A) (A) (A)
                 (A) (A) (A) (A) (A) (A) (A) (A) (A) (A) (A) (A)
                 (A) (A) (A) (A) (A) (A) (A) (A) (A) (A) (A) (A)
                 (A) (A) (A) (A) (A) (A) (A) (A) (A) (A) (A) (A)
                 (A) (A) (A) (A) (A) (A) (A) (A) (A) (A) (A) (A)
                 (A) (A) (A) (A) (A) (A) (A) (A) (A) (A) (A) (A)
                 (A) (A) (A) (A) (A) (A) (A) (A) (A) (A) (A) (A)
                 (A) (A) (A) (A) (A) (A) (A) (A) (A) (A) (A) (A)
                 (A) (A) (A) (A) (A) (A) (A) (A) (A) (A) (A) (A)
                 (A) (A) (A) (A) (A) (A) (A) (A) (A) (A) (A) (A)
                 (A) (A) (A) (A) (A) (A) (A) (A) (A) (A) (A) (A)
                 (A) (A) (A) (A) (A) (A) (A) (A) (A) (A) (A) (A)
                 (A) (A) (A) (A) (A) (A) (A) (A) (A) (A) (A) (A)
                 (A) (A) (A) (A) (A) (A) (A) (A) (A) (A) (A) (A)
                 (A) (A) (A) (A) (A) (A) (A) (A) (A) (A) (A) (A)
                 (A) (A) (A) (A) (A) (A) (A) (A) (A) (A) (A) (A)
                 (A) (A) (A) (A) (A) (A) (A) (A) (A) (A) (A) (A)
                 (A) (A) (A) (A) (A) (A) (A) (A) (A) (A) (A) (A)
                 (A) (A) (A) (A) (A) (A) (A) (A) (A) (A) (A) (A)
                 (A) (A) (A) (A) (A) (A) (A) (A) (A) (A) (A) (A)
                 (A) (A) (A) (A) (A) (A) (A) (A) (A) (A) (A) (A)
                 (A) (A) (A) (A) (A) (A) (A) (A) (A) (A) (A) (A)
                 (A) (A) (A) (A) (A) (A) (A) (A) (A) (A) (A) (A)
                 (A) (A) (A) (A) (A) (A) (A) (A) (A) (A) (A) (A)
                 (A) (A) (A) (A) (A) (A) (A) (A) (A) (A) (A) (A)
                 (A) (A) (A) (A) (A) (A) (A) (A) (A) (A) (A) (A)
                 (A) (A) (A) (A) (A) (A) (A) (A) (A) (A) (A) (A)
                 (A) (A) (A) (A) (A) (A) (A) (A) (A) (A) (A) (A)
                 (A) (A) (A) (A) (A) (A) (A) (A) (A) (A) (A) (A)
                 (A) (A) (A) (A) (A) (A) (A) (A) (A) (A) (A) (A)
                 (A) (A) (A) (A) (A) (A) (A) (A) (A) (A) (A) (A)
                 (A) (A) (A) (A) (A) (A) (A) (A) (A) (A) (A) (A)
                 (A) (A) (A) (A) (A) (A) (A) (A) (A) (A) (A) (A)
                 (A) (A) (A) (A) (A) (A) (A) (A) (A) (A) (A) (A)
                 (A) (A) (A) (A) (A) (A) (A) (A) (A) (A) (A) (A)
                 (A) (A) (A) (A) (A) (A) (A) (A) (A) (A) (A) (A)
                 (A) (A) (A) (A) (A) (A) (A) (A) (A) (A) (A) (A)
                 (A) (A) (A) (A) (A) (A) (A) (A) (A) (A) (A) (A)
                 (A) (A) (A) (A) (A) (A) (A) (A) (A) (A) (A) (A)
                 (A) (A) (A) (A) (A) (A) (A) (A) (A) (A) (A) (A)
                 (A) (A) (A) (A) (A) (A) (A) (A) (A) (A) (A) (A)
                 (A) (A) (A) (A) (A) (A) (A) (A) (A) (A) (A) (A)
                 (A) (A) (A) (A) (A) (A) (A) (A) (A) (A) (A) (A)
                 (A) (A) (A) (A) (A) (A) (A) (A) (A) (A) (A) (A)
                 (A) (A) (A) (A) (A) (A) (A) (A) (A) (A) (A) (A)
                 (A)
 The electronic state is 1-A.
 Alpha  occ. eigenvalues -- -453.88341 -88.97275 -66.07679 -57.49501 -52.16329
 Alpha  occ. eigenvalues --  -52.16145 -52.16136 -14.35530 -14.35171 -14.35156
 Alpha  occ. eigenvalues --  -14.34589 -10.27359 -10.25665 -10.24862 -10.23695
 Alpha  occ. eigenvalues --  -10.23601 -10.22600 -10.20861 -10.20861 -10.20792
 Alpha  occ. eigenvalues --  -10.20717 -10.20667 -10.20590 -10.20545 -10.20068
 Alpha  occ. eigenvalues --  -10.19957 -10.19476 -10.19381 -10.18956 -10.18831
 Alpha  occ. eigenvalues --  -10.17732 -10.17730 -10.14626  -8.04682  -7.76316
 Alpha  occ. eigenvalues --   -6.01103  -6.00473  -6.00275  -5.80761  -5.79702
 Alpha  occ. eigenvalues --   -5.79534  -5.24577  -3.60437  -3.60271  -3.60207
 Alpha  occ. eigenvalues --   -2.17217  -2.16784  -2.15915  -2.15256  -2.15095
 Alpha  occ. eigenvalues --   -1.17141  -1.04164  -0.97220  -0.96062  -0.94987
 Alpha  occ. eigenvalues --   -0.90697  -0.85352  -0.84069  -0.83909  -0.82166
 Alpha  occ. eigenvalues --   -0.79105  -0.77639  -0.75541  -0.75394  -0.72098
 Alpha  occ. eigenvalues --   -0.69549  -0.69044  -0.68045  -0.65907  -0.65001
 Alpha  occ. eigenvalues --   -0.62577  -0.61878  -0.60528  -0.58894  -0.57253
 Alpha  occ. eigenvalues --   -0.55409  -0.55128  -0.54522  -0.54353  -0.53676
 Alpha  occ. eigenvalues --   -0.52897  -0.51307  -0.50696  -0.50046  -0.49079
 Alpha  occ. eigenvalues --   -0.48123  -0.47289  -0.45969  -0.45146  -0.44523
 Alpha  occ. eigenvalues --   -0.44089  -0.42960  -0.42569  -0.42124  -0.41168
 Alpha  occ. eigenvalues --   -0.40901  -0.40618  -0.39879  -0.39048  -0.38150
 Alpha  occ. eigenvalues --   -0.37476  -0.37081  -0.36997  -0.34142  -0.33521
 Alpha  occ. eigenvalues --   -0.33181  -0.32908  -0.32018  -0.31249  -0.30668
 Alpha  occ. eigenvalues --   -0.29802  -0.29488  -0.28752  -0.27714  -0.27518
 Alpha  occ. eigenvalues --   -0.26471  -0.25720  -0.24811  -0.23576  -0.22913
 Alpha virt. eigenvalues --   -0.06849  -0.05651  -0.04467  -0.03025  -0.02628
 Alpha virt. eigenvalues --   -0.01407  -0.01097  -0.00514  -0.00219   0.00387
 Alpha virt. eigenvalues --    0.00443   0.00634   0.00790   0.01131   0.01542
 Alpha virt. eigenvalues --    0.01965   0.02314   0.02468   0.03058   0.03326
 Alpha virt. eigenvalues --    0.03434   0.03636   0.03769   0.04048   0.04237
 Alpha virt. eigenvalues --    0.04629   0.04892   0.05243   0.05667   0.05982
 Alpha virt. eigenvalues --    0.06185   0.06497   0.06716   0.07035   0.07384
 Alpha virt. eigenvalues --    0.07712   0.08161   0.08567   0.09023   0.09066
 Alpha virt. eigenvalues --    0.09506   0.09589   0.09913   0.10033   0.10455
 Alpha virt. eigenvalues --    0.10622   0.11049   0.11183   0.11405   0.11507
 Alpha virt. eigenvalues --    0.11756   0.11895   0.12011   0.12118   0.12357
 Alpha virt. eigenvalues --    0.12432   0.12555   0.12693   0.13011   0.13133
 Alpha virt. eigenvalues --    0.13495   0.13532   0.13860   0.13981   0.14105
 Alpha virt. eigenvalues --    0.14326   0.14450   0.14658   0.14850   0.15185
 Alpha virt. eigenvalues --    0.15384   0.15683   0.15850   0.15940   0.15966
 Alpha virt. eigenvalues --    0.16374   0.16719   0.16809   0.17178   0.17290
 Alpha virt. eigenvalues --    0.17509   0.17601   0.17894   0.18110   0.18254
 Alpha virt. eigenvalues --    0.18505   0.18689   0.18976   0.19407   0.19572
 Alpha virt. eigenvalues --    0.20077   0.20219   0.20445   0.20697   0.21043
 Alpha virt. eigenvalues --    0.21293   0.21475   0.21568   0.21985   0.22276
 Alpha virt. eigenvalues --    0.22373   0.22506   0.22915   0.23061   0.23163
 Alpha virt. eigenvalues --    0.23683   0.23898   0.24047   0.24344   0.24711
 Alpha virt. eigenvalues --    0.24898   0.25083   0.25190   0.25357   0.25875
 Alpha virt. eigenvalues --    0.26015   0.26405   0.26675   0.26916   0.27045
 Alpha virt. eigenvalues --    0.27358   0.27593   0.28117   0.28360   0.28539
 Alpha virt. eigenvalues --    0.28626   0.29254   0.29299   0.29445   0.29819
 Alpha virt. eigenvalues --    0.30005   0.30241   0.30669   0.30987   0.31271
 Alpha virt. eigenvalues --    0.31498   0.31645   0.32114   0.32359   0.32431
 Alpha virt. eigenvalues --    0.32721   0.32933   0.33321   0.33678   0.34359
 Alpha virt. eigenvalues --    0.34562   0.34731   0.34901   0.35108   0.35387
 Alpha virt. eigenvalues --    0.35797   0.36204   0.36458   0.36741   0.37061
 Alpha virt. eigenvalues --    0.37194   0.37358   0.37588   0.38207   0.38584
 Alpha virt. eigenvalues --    0.39002   0.39549   0.40249   0.40429   0.40891
 Alpha virt. eigenvalues --    0.41518   0.41547   0.42094   0.42626   0.42807
 Alpha virt. eigenvalues --    0.43170   0.43689   0.44842   0.45251   0.46166
 Alpha virt. eigenvalues --    0.46883   0.47340   0.48415   0.51271   0.52392
 Alpha virt. eigenvalues --    0.52950   0.54721   0.55420   0.55852   0.56585
 Alpha virt. eigenvalues --    0.56961   0.59062   0.60093   0.60302   0.61083
 Alpha virt. eigenvalues --    0.61813   0.62840   0.63039   0.64518   0.65599
 Alpha virt. eigenvalues --    0.66096   0.67021   0.67388   0.67907   0.69158
 Alpha virt. eigenvalues --    0.69396   0.70314   0.70536   0.70704   0.71600
 Alpha virt. eigenvalues --    0.71809   0.72277   0.72776   0.73202   0.73503
 Alpha virt. eigenvalues --    0.73914   0.74138   0.74461   0.75077   0.75410
 Alpha virt. eigenvalues --    0.76260   0.76557   0.76829   0.77083   0.77505
 Alpha virt. eigenvalues --    0.77879   0.78250   0.78811   0.79269   0.79840
 Alpha virt. eigenvalues --    0.80050   0.80635   0.81138   0.81917   0.82473
 Alpha virt. eigenvalues --    0.82908   0.83281   0.83700   0.84154   0.84856
 Alpha virt. eigenvalues --    0.85620   0.86591   0.87143   0.87422   0.88378
 Alpha virt. eigenvalues --    0.89046   0.89822   0.90221   0.90765   0.91022
 Alpha virt. eigenvalues --    0.91550   0.92837   0.93304   0.94013   0.94794
 Alpha virt. eigenvalues --    0.95542   0.95712   0.96254   0.96384   0.96654
 Alpha virt. eigenvalues --    0.97203   0.98523   0.98815   0.99065   0.99537
 Alpha virt. eigenvalues --    1.00308   1.00526   1.00920   1.01152   1.02156
 Alpha virt. eigenvalues --    1.02851   1.03097   1.03657   1.04478   1.05673
 Alpha virt. eigenvalues --    1.06134   1.06850   1.07468   1.07640   1.08623
 Alpha virt. eigenvalues --    1.09629   1.09684   1.10179   1.11190   1.11826
 Alpha virt. eigenvalues --    1.12299   1.13237   1.14093   1.14676   1.15357
 Alpha virt. eigenvalues --    1.15920   1.17004   1.18035   1.18087   1.19763
 Alpha virt. eigenvalues --    1.19804   1.20642   1.21529   1.21747   1.22178
 Alpha virt. eigenvalues --    1.23288   1.23377   1.24309   1.24994   1.25263
 Alpha virt. eigenvalues --    1.26134   1.27447   1.27880   1.29093   1.29989
 Alpha virt. eigenvalues --    1.31018   1.31718   1.31865   1.31991   1.32554
 Alpha virt. eigenvalues --    1.33037   1.33268   1.33855   1.34553   1.35259
 Alpha virt. eigenvalues --    1.36414   1.37016   1.37930   1.39004   1.39333
 Alpha virt. eigenvalues --    1.39918   1.40437   1.41889   1.42537   1.44328
 Alpha virt. eigenvalues --    1.45024   1.45601   1.47401   1.47683   1.48916
 Alpha virt. eigenvalues --    1.50877   1.50982   1.52204   1.53067   1.54098
 Alpha virt. eigenvalues --    1.54892   1.56088   1.58243   1.59394   1.61498
 Alpha virt. eigenvalues --    1.62618   1.62906   1.64464   1.65682   1.66244
 Alpha virt. eigenvalues --    1.67341   1.69292   1.71932   1.72922   1.73889
 Alpha virt. eigenvalues --    1.74809   1.75777   1.77017   1.77472   1.80589
 Alpha virt. eigenvalues --    1.81440   1.83409   1.84066   1.84526   1.85419
 Alpha virt. eigenvalues --    1.86294   1.86623   1.86864   1.87453   1.88843
 Alpha virt. eigenvalues --    1.90488   1.91004   1.92707   1.93629   1.94793
 Alpha virt. eigenvalues --    1.95122   1.95418   1.96851   1.97706   1.99656
 Alpha virt. eigenvalues --    1.99841   2.00960   2.01231   2.02629   2.02908
 Alpha virt. eigenvalues --    2.03757   2.04043   2.04847   2.06030   2.06342
 Alpha virt. eigenvalues --    2.07450   2.08427   2.09370   2.10495   2.11126
 Alpha virt. eigenvalues --    2.12205   2.12500   2.13858   2.14737   2.15740
 Alpha virt. eigenvalues --    2.16248   2.19651   2.20272   2.21388   2.22356
 Alpha virt. eigenvalues --    2.23017   2.24258   2.24511   2.24996   2.25748
 Alpha virt. eigenvalues --    2.26550   2.27045   2.28316   2.28983   2.29653
 Alpha virt. eigenvalues --    2.30872   2.32056   2.33000   2.33313   2.33871
 Alpha virt. eigenvalues --    2.36021   2.36714   2.37554   2.38511   2.39603
 Alpha virt. eigenvalues --    2.40530   2.40692   2.41891   2.42190   2.43145
 Alpha virt. eigenvalues --    2.43536   2.45985   2.46277   2.46766   2.47193
 Alpha virt. eigenvalues --    2.49139   2.50076   2.50661   2.51206   2.52094
 Alpha virt. eigenvalues --    2.52499   2.53230   2.54891   2.55523   2.56319
 Alpha virt. eigenvalues --    2.57661   2.58096   2.58786   2.60011   2.60402
 Alpha virt. eigenvalues --    2.61414   2.61619   2.63021   2.63578   2.64133
 Alpha virt. eigenvalues --    2.64387   2.66370   2.67412   2.67689   2.67926
 Alpha virt. eigenvalues --    2.69884   2.71211   2.71378   2.73066   2.73827
 Alpha virt. eigenvalues --    2.74609   2.75438   2.76268   2.76658   2.77229
 Alpha virt. eigenvalues --    2.78146   2.78525   2.79206   2.80712   2.82004
 Alpha virt. eigenvalues --    2.83355   2.84536   2.85193   2.85620   2.87326
 Alpha virt. eigenvalues --    2.88424   2.89493   2.92047   2.93450   2.93642
 Alpha virt. eigenvalues --    2.96155   2.99987   3.02238   3.03899   3.05385
 Alpha virt. eigenvalues --    3.06954   3.08435   3.12969   3.14163   3.15672
 Alpha virt. eigenvalues --    3.18542   3.21897   3.24423   3.32414   3.32786
 Alpha virt. eigenvalues --    3.34964   3.37874   3.41106   3.42630   3.45072
 Alpha virt. eigenvalues --    3.46010   3.47025   3.47547   3.48909   3.51571
 Alpha virt. eigenvalues --    3.55680   3.56575   3.60634   3.80535   3.82389
 Alpha virt. eigenvalues --    3.85929   3.93007   3.97539   4.17531   4.26535
 Alpha virt. eigenvalues --    4.30500   4.33181   4.35058   4.36521   4.37912
 Alpha virt. eigenvalues --    4.39138   4.41671   4.42638   4.43476   4.46579
 Alpha virt. eigenvalues --    4.47181   4.49574   4.51864   4.52544   4.53917
 Alpha virt. eigenvalues --    4.57867   4.57987   4.59381   4.67434   4.71905
 Alpha virt. eigenvalues --    4.75468   4.78731   4.83891   4.95258   8.65100
 Alpha virt. eigenvalues --   86.11631
          Condensed to atoms (all electrons):
              1          2          3          4          5          6
     1  Si  14.042391   0.321977   0.346341  -1.003624   0.295387  -0.088142
     2  H    0.321977   0.811456  -0.078219   0.078051  -0.058447   0.011932
     3  H    0.346341  -0.078219   0.797890   0.001790   0.017025  -0.009142
     4  C   -1.003624   0.078051   0.001790   9.777121  -1.766707   0.481785
     5  C    0.295387  -0.058447   0.017025  -1.766707   9.402808   0.293202
     6  C   -0.088142   0.011932  -0.009142   0.481785   0.293202  13.449508
     7  C    0.104349   0.004353  -0.018070   0.206402  -0.199165   0.130424
     8  C   -0.150436   0.005597  -0.004486   0.765316  -0.088224  -4.151876
     9  C    0.023685   0.003134   0.014677  -0.757351  -0.459900  -0.664090
    10  C    0.036446  -0.008170  -0.002923  -0.116136  -0.308052  -0.382482
    11  C   -0.013703   0.003706  -0.004991  -0.028891  -0.322738  -0.563181
    12  C   -0.059683   0.000970   0.001710   0.044857   0.147811   0.124214
    13  C    0.027548  -0.000130  -0.001472  -0.022197  -0.048203  -0.033121
    14  N   -0.014153   0.000434   0.000779   0.006092   0.009425  -0.004132
    15  C    0.133896   0.008756  -0.006549  -0.095657  -0.012620   0.314539
    16  C   -0.225409   0.020067  -0.037426   0.273471  -0.309433  -0.243145
    17  C    0.605797  -0.020678   0.063408  -1.617249   0.529363  -0.192967
    18  C    0.017293  -0.014481   0.014728  -0.544002   1.480075   3.148467
    19  C   -0.072444   0.011250  -0.001668   0.435865  -2.353512  -6.063621
    20  C   -0.038316  -0.000659   0.002239  -0.021963   0.217535   2.673331
    21  C    0.011848  -0.001949   0.004701  -0.246537  -0.204078  -0.982932
    22  Se   0.023257  -0.003512   0.003818  -0.096439   0.366301  -0.099625
    23  C   -0.026390   0.000120   0.002464   0.077891  -0.369514  -0.751235
    24  N    0.009036  -0.000181  -0.000060   0.005583  -0.027887  -0.010846
    25  C   -0.004505   0.000604   0.000005   0.014633  -0.064501  -0.036120
    26  C    0.022743  -0.000528  -0.002010   0.013039   0.051914   0.029196
    27  C   -0.008041   0.000181   0.000566   0.001553  -0.033352   0.003940
    28  N   -0.000021   0.000000   0.000002  -0.000196  -0.000567   0.000241
    29  S   -0.000103   0.000004   0.000003   0.000183  -0.001361  -0.009082
    30  N   -0.000129   0.000002  -0.000001   0.000473  -0.001435   0.001229
    31  C   -0.008577   0.000184   0.000400   0.029563  -0.125535  -0.129875
    32  H   -0.246086   0.013022  -0.020123   0.413671  -0.299622   0.008003
    33  H   -0.078206  -0.021540   0.017955   0.477175  -0.067435   0.092193
    34  H    0.013301   0.000744  -0.001290  -0.008079  -0.019799  -0.159115
    35  H   -0.020567  -0.000604   0.001402   0.030062   0.110874  -0.043263
    36  H    0.007940   0.000899  -0.000637  -0.015264  -0.062717   0.025513
    37  H   -0.002866   0.000040   0.000060   0.001698   0.006405  -0.000521
    38  H    0.002265  -0.000002  -0.000116  -0.000643  -0.001034  -0.000859
    39  H    0.110972  -0.004259   0.002356  -0.018068   0.021219   0.036711
    40  H   -0.613378   0.050968  -0.081355   0.286806  -0.073845  -0.087190
    41  H   -0.254109  -0.048333   0.040475   0.124288   0.010891   0.034259
    42  H   -0.013816   0.001312  -0.000092   0.013096  -0.111427  -0.304360
    43  H   -0.000267   0.000022   0.000022   0.002324  -0.008162   0.073444
    44  H   -0.000905  -0.000045   0.000057   0.004631  -0.001281  -0.001555
    45  H    0.000273  -0.000002  -0.000011  -0.000124   0.000590  -0.000401
              7          8          9         10         11         12
     1  Si   0.104349  -0.150436   0.023685   0.036446  -0.013703  -0.059683
     2  H    0.004353   0.005597   0.003134  -0.008170   0.003706   0.000970
     3  H   -0.018070  -0.004486   0.014677  -0.002923  -0.004991   0.001710
     4  C    0.206402   0.765316  -0.757351  -0.116136  -0.028891   0.044857
     5  C   -0.199165  -0.088224  -0.459900  -0.308052  -0.322738   0.147811
     6  C    0.130424  -4.151876  -0.664090  -0.382482  -0.563181   0.124214
     7  C   11.416749   0.939770  -3.646041  -0.657712  -0.315857   0.267916
     8  C    0.939770  13.266695  -0.693981  -0.787480  -0.839275   0.506137
     9  C   -3.646041  -0.693981  10.693213   0.079563  -1.996439   0.510149
    10  C   -0.657712  -0.787480   0.079563  10.689303  -2.257167   0.908936
    11  C   -0.315857  -0.839275  -1.996439  -2.257167  22.012807  -6.156787
    12  C    0.267916   0.506137   0.510149   0.908936  -6.156787   9.915778
    13  C   -0.046309  -0.189296  -0.432722  -0.279692   2.829888  -1.940430
    14  N   -0.006814  -0.030473   0.010728   0.057350  -0.131008   0.203145
    15  C    0.055323   0.347700   1.079790  -1.406898  -6.501898   1.774608
    16  C   -0.778125  -0.065813   1.140919  -0.478081  -0.425202   0.129837
    17  C   -0.574292  -1.592875   0.378616   1.085213   0.373274  -0.272038
    18  C   -1.897390  -2.011878   0.168520  -0.097084   0.015528  -0.011850
    19  C    1.463477   1.271641  -0.000146   0.020040  -0.037429   0.002145
    20  C   -0.186421   0.094902   0.256832   0.008918   0.014367  -0.000285
    21  C   -0.553019  -0.318118   0.057182   0.002766   0.003852  -0.001785
    22  Se  -0.392808  -0.607098  -0.177005  -0.009037  -0.011222   0.000815
    23  C    0.269503   0.132803   0.053250   0.002668  -0.000033  -0.000024
    24  N    0.041477   0.008712   0.000091   0.000577   0.000098  -0.000012
    25  C    0.025487   0.007449  -0.002944   0.000505   0.000024  -0.000008
    26  C   -0.007569  -0.003132  -0.000535  -0.000305  -0.000029   0.000002
    27  C    0.016667   0.006195   0.002157   0.000054   0.000001   0.000001
    28  N   -0.000130  -0.000011   0.000000  -0.000000   0.000000   0.000000
    29  S    0.001119   0.000181  -0.000007   0.000001  -0.000002   0.000000
    30  N    0.001264  -0.000013   0.000092   0.000001   0.000002  -0.000000
    31  C    0.042767   0.033263   0.009684  -0.001936  -0.000598   0.000065
    32  H   -0.005822   0.024574   0.014728   0.024045   0.006517  -0.001191
    33  H   -0.020810   0.011741  -0.012884  -0.014610  -0.002592   0.002603
    34  H    0.312192   0.053708   0.041957   0.019191   0.041045  -0.011880
    35  H    0.161148   0.575671  -0.228404  -0.114948  -0.289887   0.110694
    36  H   -0.019857  -0.124521  -0.095853  -0.205491   1.079416  -0.415675
    37  H    0.001206   0.013908   0.036629   0.110550  -0.454552   0.635156
    38  H   -0.002075  -0.012138  -0.018126  -0.018212   0.200062  -0.404960
    39  H    0.045163   0.036599   0.016510  -0.274346  -0.225059   0.064635
    40  H   -0.085272  -0.063101  -0.052342   0.202432   0.247391  -0.055072
    41  H    0.035775   0.105451   0.056252  -0.118827  -0.125742   0.098183
    42  H    0.038509   0.039149   0.001691   0.000376  -0.006159   0.000162
    43  H    0.023438   0.015741   0.007881   0.000355   0.000344  -0.000034
    44  H   -0.000900  -0.000076  -0.000153  -0.000088  -0.000007   0.000001
    45  H   -0.000120  -0.000042   0.000024   0.000000  -0.000000  -0.000000
             13         14         15         16         17         18
     1  Si   0.027548  -0.014153   0.133896  -0.225409   0.605797   0.017293
     2  H   -0.000130   0.000434   0.008756   0.020067  -0.020678  -0.014481
     3  H   -0.001472   0.000779  -0.006549  -0.037426   0.063408   0.014728
     4  C   -0.022197   0.006092  -0.095657   0.273471  -1.617249  -0.544002
     5  C   -0.048203   0.009425  -0.012620  -0.309433   0.529363   1.480075
     6  C   -0.033121  -0.004132   0.314539  -0.243145  -0.192967   3.148467
     7  C   -0.046309  -0.006814   0.055323  -0.778125  -0.574292  -1.897390
     8  C   -0.189296  -0.030473   0.347700  -0.065813  -1.592875  -2.011878
     9  C   -0.432722   0.010728   1.079790   1.140919   0.378616   0.168520
    10  C   -0.279692   0.057350  -1.406898  -0.478081   1.085213  -0.097084
    11  C    2.829888  -0.131008  -6.501898  -0.425202   0.373274   0.015528
    12  C   -1.940430   0.203145   1.774608   0.129837  -0.272038  -0.011850
    13  C    6.785962   0.059508  -1.146778  -0.114060   0.160037   0.004508
    14  N    0.059508   6.660856   0.417655  -0.017837   0.029331  -0.000704
[...]
 0000809,0.00000002,-0.00000546,0.00000813,0.00000261,-0.00000040,0.000
 00603,-0.00000161,-0.00001444,0.00000482,0.00000944,-0.00040512,0.0001
 7487,0.00009515,0.00000571,-0.00001663,-0.00003213,-0.00080241,0.00191
 470,0.00812621,-0.11733234,0.03673396,0.13266649,-0.00125341,-0.000871
 48,0.00403454,0.00177403,0.00090644,0.00088524,0.00417091,0.00016457,0
 .00317119,0.00101064,-0.00033265,0.00065048,-0.00031983,0.00015992,0.0
 0012442,-0.00015986,0.00003230,-0.00028727,-0.00007396,0.00006483,0.00
 009348,0.00006223,-0.00009257,0.00001107,-0.00003488,0.00004523,0.0000
 0840,0.00002630,0.00004090,0.00000490,-0.00003342,-0.00002965,0.000017
 97,-0.00011987,0.00010010,-0.00004068,0.00002770,0.00000009,-0.0000326
 7,-0.00006360,0.00002807,0.00003149,-0.00013571,0.00009789,-0.00008086
 ,-0.00002017,0.00004202,-0.00004773,0.00001421,0.00001038,0.00000317,-
 0.00000285,0.00000290,0.00000244,-0.00000155,0.00000085,0.00000146,0.0
 0000786,0.00000125,0.00000550,-0.00000305,-0.00000018,-0.00000959,-0.0
 0001384,-0.00001249,-0.00000064,0.11722195,-0.00009105,0.00001382,0.00
 001702,0.00001799,-0.00000543,-0.00000269,0.00002728,-0.00000248,-0.00
 000875,0.00003162,-0.00003952,-0.00009648,-0.00033260,-0.00027054,0.00
 004689,-0.00058951,0.00143187,-0.00068759,0.00014757,0.00030608,-0.000
 21266,0.00000496,-0.00031018,-0.00000040,0.00023434,0.00009542,0.00005
 994,0.00003247,-0.00004385,0.00001315,-0.00000497,0.00002375,0.0000017
 2,-0.00001449,0.00000988,-0.00001862,-0.00000214,0.00000041,0.00000659
 ,0.00000203,0.00002470,-0.00000994,-0.00002156,-0.00000250,0.00000341,
 -0.00013799,0.00012226,0.00007888,0.00001746,0.00000758,-0.00002183,-0
 .01100199,0.00639041,0.01846913,0.03566463,-0.07065630,-0.05103842,0.0
 1411227,0.00049326,-0.02341511,0.00172628,-0.00624677,-0.00057873,-0.0
 0102690,-0.00148248,0.00327655,0.00024388,0.00144261,-0.00060342,0.000
 32908,-0.00023325,-0.00057005,-0.00003389,0.00000594,-0.00010312,0.000
 08044,-0.00000904,-0.00004056,-0.00003904,0.00002789,0.00001232,0.0000
 2401,-0.00002526,-0.00002810,-0.00001797,-0.00008157,0.00006533,-0.000
 01051,0.00006576,-0.00000196,0.00000652,-0.00002787,0.00005935,0.00005
 875,0.00002521,-0.00000837,0.00002495,0.00001978,0.00004717,0.00002876
 ,-0.00003573,0.00020594,-0.00000884,0.00000537,0.00001131,0.00001332,-
 0.00001169,-0.00000366,-0.00000444,0.00000200,0.00000173,-0.00000148,0
 .00000564,-0.00000051,0.00000551,-0.00000416,0.00000689,0.00000986,0.0
 0001920,-0.00000097,0.00000329,-0.00000039,0.00000781,-0.03888993,0.06
 818511,0.00007932,-0.00008045,-0.00000217,-0.00001557,0.00001928,-0.00
 000619,-0.00002788,0.00001267,0.00000018,-0.00001415,0.00001225,0.0000
 9651,0.00023929,0.00001614,-0.00000138,-0.00187869,-0.00132698,0.00016
 160,0.00026388,0.00054163,0.00017349,-0.00031030,0.00005382,0.00008896
 ,-0.00006581,-0.00006711,-0.00005747,-0.00003061,0.00000836,-0.0000072
 7,-0.00001585,-0.00001142,-0.00003168,0.00002539,0.00000285,0.00002952
 ,-0.00000715,-0.00000173,-0.00001021,-0.00000248,-0.00001801,0.0000105
 1,0.00000909,0.00000106,-0.00000446,-0.00008844,-0.00004723,0.00001675
 ,-0.00002971,-0.00001523,-0.00000814,0.01015692,-0.00542469,-0.0121674
 8,0.13397772,-0.05147448,-0.24180217,0.00068059,0.00165838,-0.00027814
 ,0.00097799,0.00037159,0.00039339,0.00326713,0.00181439,0.00097019,0.0
 0049554,0.00022098,0.00064225,0.00004456,-0.00021832,-0.00026498,-0.00
 019179,-0.00003425,0.00001868,-0.00002381,-0.00001981,-0.00002806,0.00
 007516,-0.00007427,0.00003373,-0.00000245,-0.00002783,-0.00003556,-0.0
 0000551,-0.00004080,0.00004561,-0.00001157,0.00000322,0.00000426,-0.00
 007799,-0.00001784,-0.00007589,-0.00005015,-0.00005326,0.00001666,-0.0
 0002021,-0.00001134,-0.00004237,-0.00035087,0.00004044,-0.00032895,-0.
 00000512,0.00004458,-0.00001192,-0.00000011,0.00000774,0.00001218,0.00
 000159,-0.00000131,-0.00000302,0.00000223,-0.00000332,0.00000157,0.000
 00191,0.00000597,-0.00000233,-0.00000886,-0.00002051,-0.00000099,-0.00
 002239,-0.00000392,-0.00001411,-0.14614389,0.05459286,0.25282789,0.000
 01383,-0.00004983,0.00006539,-0.00000613,0.00002010,-0.00000855,0.0000
 0368,-0.00000618,0.00000148,-0.00000063,0.00010719,0.00000780,-0.00001
 428,0.00009626,-0.00006306,0.00042316,0.00036430,-0.00057779,0.0000848
 3,-0.00007816,0.00003553,0.00000541,0.00007982,-0.00000502,0.00001583,
 -0.00002214,0.00001857,-0.00001409,0.00003267,0.00001854,-0.00001899,-
 0.00001425,-0.00000700,0.00001907,0.00000298,-0.00000021,-0.00000524,0
 .00001117,-0.00000344,-0.00000567,-0.00000646,-0.00000483,-0.00000640,
 0.00000687,-0.00000226,-0.00004863,0.00008429,0.00008943,-0.00000576,-
 0.00000759,-0.00000613,0.00179263,0.00244633,0.00248752,0.00510633,0.0
 0691321,-0.00629854,-0.05807654,-0.05157740,0.04752924,0.00275280,-0.0
 1280223,0.01135503,0.00253779,0.00001023,0.00324795,-0.00303828,-0.000
 50987,-0.00260839,0.00008693,0.00030674,0.00025156,-0.00001946,-0.0001
 0327,-0.00011145,0.00002167,0.00006403,-0.00004019,0.00004508,-0.00003
 604,0.00023342,0.00029199,-0.00036595,-0.00040569,0.00001080,0.0005681
 5,-0.00042000,-0.00052160,-0.00028159,0.00020063,-0.00010769,0.0002960
 7,0.00074463,-0.00002970,0.00003181,0.00001565,0.00000609,0.00000195,0
 .00000560,-0.00002105,0.00000663,-0.00002813,-0.00000052,0.00000437,0.
 00001236,0.00000106,-0.00000089,0.00000166,0.00000076,-0.00000035,0.00
 000088,0.00000049,-0.00000278,0.00000097,0.00000078,-0.00000406,0.0000
 0076,-0.00000180,0.00000535,0.00000212,0.00000124,0.00000568,-0.000004
 06,-0.00134054,-0.00063656,-0.00092153,0.05000895,0.00001070,-0.000061
 57,0.00003936,-0.00000116,0.00002004,-0.00000641,-0.00000284,0.0000015
 4,-0.00000564,0.00004285,0.00004817,0.00007667,0.00022807,-0.00028096,
 0.00004370,-0.00061763,-0.00016329,0.00033284,-0.00006787,-0.00007318,
 0.00016394,0.00002060,-0.00000616,-0.00005674,0.00004154,-0.00001949,0
 .00003183,-0.00003389,0.00001184,0.00000096,-0.00002019,-0.00001044,-0
 .00001275,0.00001759,0.00000682,0.00001349,-0.00000369,-0.00000252,-0.
 00000175,-0.00000629,-0.00000455,-0.00000159,0.00001314,-0.00000431,-0
 .00000317,-0.00007677,0.00000244,-0.00002040,0.00000852,-0.00002375,-0
 .00000646,0.00189914,-0.00387633,-0.00122625,-0.00734265,-0.01202896,0
 .01564140,-0.05249262,-0.23811598,0.13450665,0.00173252,0.00617115,-0.
 00255282,0.00156323,0.00187788,-0.00192197,-0.00070493,0.00088827,0.00
 014591,0.00008838,-0.00028083,-0.00006414,-0.00012954,0.00000476,0.000
 17923,0.00004536,-0.00007867,-0.00006947,0.00008196,0.00015048,-0.0001
 1314,-0.00034056,0.00030563,0.00052866,0.00003636,-0.00172020,0.000264
 76,0.00090946,-0.00342658,-0.00071849,0.00024072,0.00071667,-0.0006631
 6,-0.00006418,0.00000305,0.00002089,-0.00002998,-0.00000805,0.00000500
 ,-0.00000425,0.00000283,0.00002808,0.00000701,-0.00001468,-0.00000100,
 0.00000037,-0.00000391,0.00000355,0.00000072,-0.00000414,-0.00000251,0
 .00000134,-0.00000027,0.00000063,-0.00000164,-0.00000037,-0.00000026,-
 0.00000366,-0.00000630,-0.00000114,-0.00000813,-0.00000604,-0.00000064
 ,-0.00004943,0.00079941,-0.00042514,0.05503058,0.24920638,-0.00000932,
 -0.00006724,0.00003491,0.00000506,0.00003083,0.00000759,0.00000693,0.0
 0001374,0.00000023,0.00001905,0.00016457,-0.00001271,0.00012258,-0.000
 16032,0.00004054,-0.00026575,-0.00009564,0.00057931,0.00007254,-0.0000
 6073,-0.00012665,-0.00001592,0.00004993,-0.00003366,0.00000939,-0.0000
 5352,0.00001008,0.00001976,0.00002685,0.00002660,-0.00000290,-0.000008
 85,0.00000382,0.00000157,0.00000455,-0.00000559,-0.00000438,-0.0000017
 5,-0.00000369,-0.00000362,0.00000274,-0.00000139,-0.00000522,-0.000006
 14,-0.00001117,-0.00006633,0.00002585,-0.00006039,-0.00001272,0.000009
 08,-0.00000167,0.00256636,-0.00271072,0.00023646,-0.00283469,-0.008336
 29,0.00894470,0.04810175,0.13320916,-0.14731810,0.00733433,0.02080356,
 -0.00953608,0.00311444,0.00055160,-0.00084732,-0.00261902,0.00004218,-
 0.00027304,0.00031740,-0.00037557,-0.00011590,-0.00016247,0.00009381,0
 .00006143,0.00004306,-0.00008499,0.00006687,0.00022348,0.00006681,-0.0
 0020887,-0.00035433,0.00053592,0.00055206,-0.00029264,-0.00059253,0.00
 044712,-0.00007078,0.00121166,-0.00056274,0.00069593,-0.00057653,-0.00
 086239,-0.00007224,-0.00003125,0.00006720,0.00002531,0.00002108,-0.000
 05435,0.00000115,0.00002260,0.00001705,0.00000314,-0.00000242,0.000010
 09,0.00000022,0.00000050,-0.00000196,0.00000053,0.00000030,0.00000324,
 -0.00000003,0.00000031,0.00000097,0.00000049,0.00000037,0.00000438,-0.
 00000213,-0.00000273,-0.00000072,-0.00000692,0.00000079,0.00000026,-0.
 00108430,0.00047729,-0.00036278,-0.05480650,-0.14419672,0.14924317,-0.
 00001052,-0.00001746,-0.00000965,0.00000219,0.00000987,0.00000489,0.00
 000272,0.00001029,-0.00000065,-0.00000122,-0.00002067,-0.00001422,0.00
 001346,0.00003540,-0.00008422,-0.00000493,-0.00003559,-0.00011218,0.00
 001121,0.00001180,-0.00008849,0.00000765,0.00001037,0.00007817,0.00002
 993,-0.00000534,-0.00002054,-0.00001685,-0.00001255,-0.00000839,-0.000
 00802,-0.00000550,-0.00001466,0.00000416,-0.00000253,-0.00000099,0.000
 00956,0.00000759,0.00001468,0.00000226,0.00000873,0.00000048,-0.000013
 54,0.00000232,-0.00000175,-0.00005460,-0.00001339,0.00006013,-0.000004
 63,0.00000131,-0.00000643,0.00004140,-0.00002053,0.00037502,-0.0000079
 4,0.00008065,0.00007845,-0.00023900,0.00006525,-0.00033291,0.00031919,
 -0.00010776,0.00059684,0.00005794,-0.00003089,0.00000659,0.00418564,0.
 00164008,0.00268211,-0.00783399,0.00246294,0.01262583,-0.10381560,-0.0
 3435658,0.11129638,0.00628971,0.00080217,0.00289161,0.00688818,0.00081
 842,0.00310242,0.00063266,0.00004803,0.00039241,-0.00102740,-0.0002375
 8,-0.00065879,-0.00028452,-0.00009327,-0.00011336,0.00000037,0.0002452
 9,-0.00012206,0.00001236,-0.00001104,-0.00000085,0.00000681,0.00002411
 ,0.00002142,0.00000694,-0.00000257,-0.00000667,-0.00000498,0.00000597,
 0.00000453,0.00000267,-0.00000104,-0.00000086,-0.00000040,0.00000194,0
 .00000062,-0.00000259,0.00000024,-0.00000097,0.00000566,-0.00000034,0.
 00000344,0.00000453,-0.00000152,-0.00000056,0.00000137,0.00000455,-0.0
 0000244,-0.00002657,0.00002180,-0.00000663,0.00005876,0.00000545,0.000
 03497,0.09798596,0.00000798,-0.00001457,-0.00001160,-0.00000122,0.0000
 0213,0.00000265,-0.00000351,0.00000220,0.00000326,-0.00000817,0.000006
 27,-0.00001817,0.00001114,-0.00000259,-0.00003557,-0.00000425,0.000022
 02,0.00006584,-0.00000011,-0.00001220,-0.00002602,0.00000259,0.0000007
 8,0.00001372,0.00000256,0.00000344,-0.00003744,-0.00000547,0.00000554,
 0.00001031,0.00000117,-0.00000238,0.00000126,-0.00000048,-0.00000372,-
 0.00000223,0.00000176,0.00000202,0.00000340,-0.00000037,0.00000130,0.0
 0000103,0.00000354,-0.00000286,-0.00000621,-0.00000755,-0.00000461,0.0
 0002997,-0.00000442,0.00000107,-0.00000116,-0.00000857,-0.00006962,0.0
 0000630,0.00003062,-0.00001570,0.00000366,-0.00004823,-0.00032460,-0.0
 0006590,0.00038872,0.00064839,-0.00033236,-0.00001250,0.00018752,-0.00
 002849,0.00301950,-0.00212344,-0.00381385,0.01569346,0.00318871,-0.028
 33450,-0.03500611,-0.07665635,0.06863292,-0.01352575,-0.00263034,0.026
 03493,0.00118763,-0.00514454,0.00105087,-0.00065766,0.00004969,0.00132
 353,-0.00032003,-0.00029997,0.00031034,-0.00007031,0.00043388,-0.00006
 407,0.00031342,-0.00093286,-0.00027681,0.00000566,-0.00000743,0.000002
 96,0.00000697,0.00000530,-0.00000296,0.00000203,0.00000399,-0.00001337
 ,-0.00000151,0.00000018,0.00000082,-0.00000078,0.00000009,-0.00000031,
 -0.00000035,0.00000044,0.00000074,-0.00000070,0.00000018,-0.00000035,-
 0.00000032,-0.00000025,0.00000196,0.00000186,-0.00000195,-0.00000045,-
 0.00000058,0.00000111,0.00000048,0.00000410,-0.00003172,0.00000136,0.0
 0000270,0.00000584,0.00000904,0.02926507,0.08300601,0.00006045,0.00003
 828,0.00001104,-0.00001016,-0.00000573,-0.00000478,-0.00001806,-0.0000
 0483,-0.00000124,-0.00003003,-0.00003212,-0.00001878,0.00004248,-0.000
 02127,-0.00003839,0.00000852,0.00006332,-0.00010687,-0.00000891,-0.000
 03992,-0.00004627,0.00000294,-0.00000597,0.00003878,0.00000899,-0.0000
 1280,-0.00000322,-0.00001725,0.00001730,-0.00000501,-0.00001063,-0.000
 01060,-0.00000596,0.00000529,-0.00000797,0.00000870,0.00000705,0.00000
 307,0.00000151,0.00000055,-0.00001082,0.00000555,0.00000406,-0.0000046
 0,-0.00000777,-0.00002324,0.00001114,0.00002844,-0.00000607,-0.0000225
 4,-0.00000656,0.00011835,0.00001567,0.00008529,-0.00004847,-0.00019294
 ,-0.00000567,-0.00021471,-0.00009027,0.00007422,0.00062806,0.00027116,
 -0.00040409,0.00002680,0.00003384,-0.00001296,0.00222444,-0.00108716,0
 .00202523,0.00969172,-0.00504713,-0.01614855,0.11148845,0.06731789,-0.
 25518614,0.00609232,0.00104126,-0.00285562,0.00300497,0.00164630,0.003
 09169,0.00054822,0.00010426,-0.00011343,-0.00064246,0.00015535,-0.0003
 4123,-0.00013399,-0.00001683,-0.00012830,-0.00010834,-0.00029143,0.000
 25840,0.00001008,0.00000755,-0.00000177,0.00002232,0.00002176,0.000020
 86,-0.00000920,0.00000397,0.00000364,0.00000374,-0.00000461,0.00000046
 ,-0.00000201,0.00000250,0.00000283,0.00000196,-0.00000121,-0.00000158,
 0.00000070,-0.00000285,-0.00000063,0.00000128,0.00000225,-0.00000152,-
 0.00000164,-0.00000596,0.00000155,-0.00000188,-0.00000330,-0.00000169,
 0.00001096,-0.00001418,-0.00001641,0.00002036,0.00000453,0.00003269,-0
 .13061645,-0.06374715,0.27049129,0.00001287,-0.00001518,0.00000239,-0.
 00000252,-0.00000157,-0.00000302,-0.00000674,-0.00000101,0.00000006,-0
 .00000361,0.00003821,0.00001509,0.00000573,-0.00002655,0.00003149,-0.0
 0005460,-0.00000418,0.00003707,0.00000506,0.00001616,0.00002435,-0.000
 01682,-0.00000493,-0.00002925,-0.00000633,0.00000045,-0.00000709,0.000
 00096,0.00000029,0.00000116,0.00000740,0.00000399,0.00000637,-0.000004
 84,0.00000127,-0.00000021,-0.00000324,-0.00000299,-0.00000403,-0.00000
 152,-0.00000182,-0.00000192,0.00000678,-0.00000272,0.00000048,0.000022
 93,0.00000645,-0.00001459,-0.00000273,0.00000515,0.00000255,0.00002893
 ,0.00002039,-0.00017395,0.00003060,-0.00006943,0.00002453,-0.00012680,
 0.00003537,0.00004175,-0.00109952,-0.00020019,-0.00084615,-0.00000005,
 0.00003104,0.00000677,0.00012298,-0.00028744,0.00064926,0.00685323,-0.
 00015562,0.00303136,0.00334500,-0.00257001,-0.00182375,-0.08609133,0.0
 8900714,0.07355598,-0.00262104,0.01153112,0.00640951,-0.00090844,-0.00
 005716,-0.00215291,-0.00065288,0.00006404,-0.00000079,0.00022336,0.000
 39128,0.00094323,0.00307954,-0.00125225,0.00300971,-0.00001330,-0.0000
 0889,0.00000328,-0.00000023,-0.00000837,-0.00001821,-0.00000371,0.0000
 0098,0.00000513,0.00000004,0.00000072,-0.00000067,-0.00000085,0.000000
 05,0.00000012,0.00000043,-0.00000020,0.00000061,0.00000090,0.00000053,
 0.00000046,-0.00000113,0.00000050,0.00000081,-0.00000075,0.00000056,-0
 .00000069,-0.00000082,-0.00000100,0.00000110,0.00004861,-0.00000318,0.
 00003120,-0.00000694,-0.00002371,-0.00002722,-0.00322598,-0.00026353,-
 0.00213155,0.08106138,0.00002425,0.00001724,0.00000899,-0.00000456,-0.
 00000476,-0.00000322,-0.00000622,-0.00000566,0.00000108,-0.00001742,-0
 .00001415,-0.00001458,0.00001506,-0.00000174,-0.00005759,0.00000803,0.
 00002478,0.00011476,-0.00000774,-0.00000910,-0.00001955,0.00000073,-0.
 00000526,0.00000163,-0.00001013,0.00000120,-0.00003742,0.00000842,0.00
 001608,0.00001247,-0.00000357,-0.00000515,0.00001279,0.00000015,-0.000
 00265,-0.00000561,0.00000186,0.00000487,-0.00000181,-0.00000078,-0.000
 00709,0.00000100,-0.00000023,-0.00000070,-0.00000331,0.00000364,0.0000
 0594,0.00001885,-0.00000265,-0.00000824,-0.00000197,-0.00010958,0.0000
 4897,0.00004423,0.00008318,-0.00000090,-0.00005544,-0.00001027,-0.0000
 7624,-0.00010981,0.00006011,0.00006469,-0.00031943,-0.00006917,0.00018
 446,0.00008633,-0.00073284,-0.00016836,0.00133946,0.00000415,-0.004475
 10,0.00286644,0.01270698,-0.01367575,-0.01879858,0.08906168,-0.2177823
 5,-0.11523587,-0.00360925,0.00881172,0.00493401,0.00020194,0.00075981,
 -0.00101345,-0.00000491,0.00048809,-0.00024763,-0.00046507,0.00019632,
 0.00096022,-0.00034746,-0.00026343,0.00171589,0.00000338,0.00000665,-0
 .00000269,0.00000317,0.00000346,0.00000103,-0.00000244,0.00000489,-0.0
 0001196,0.00000189,-0.00000212,0.00000058,-0.00000090,0.00000129,0.000
 00024,0.00000078,-0.00000132,-0.00000007,0.00000052,-0.00000201,0.0000
 0031,-0.00000003,-0.00000053,-0.00000112,-0.00000138,-0.00000068,0.000
 00176,-0.00000030,-0.00000216,0.00000006,0.00001807,-0.00000264,-0.000
 01035,0.00000613,-0.00000165,-0.00001119,-0.00061350,0.00070360,-0.000
 07721,-0.09619372,0.22517570,-0.00000412,-0.00001354,-0.00000353,0.000
 00013,0.00000117,0.00000032,-0.00000140,0.00000071,0.,0.00000410,0.000
 02404,0.00001261,-0.00000824,-0.00000869,0.00002843,-0.00003897,-0.000
 01577,-0.00003957,0.00000297,0.00002227,0.00002809,-0.00000655,-0.0000
 0071,-0.00001335,0.00000811,-0.00000007,0.00000910,-0.00000081,-0.0000
 0680,0.00000113,0.00000259,0.00000368,-0.00000089,0.00000309,0.0000019
 1,-0.00000025,-0.00000408,-0.00000266,-0.00000176,-0.00000164,0.000002
 12,-0.00000135,-0.00000057,0.00000092,0.00000430,0.00000129,0.00000533
 ,-0.00000906,0.00000040,0.00000440,0.00000120,0.00000840,-0.00003167,0
 .00002094,0.00001183,0.00011776,-0.00000747,0.00001722,-0.00004893,-0.
 00007284,-0.00094182,-0.00004889,-0.00010942,-0.00000998,-0.00013681,0
 .00003571,0.00080267,0.00069046,-0.00092474,0.00300598,0.00316471,0.00
 255362,-0.00525427,0.00801569,0.00940610,0.07359311,-0.11518535,-0.136
 49135,0.00971879,-0.02162935,-0.00978289,-0.00219170,-0.00055402,0.001
 83676,0.00000951,-0.00036779,-0.00058072,0.00114439,-0.00052374,-0.001
 07660,0.00279020,0.00326932,-0.00105127,-0.00000425,-0.00000816,0.0000
 0051,-0.00000536,-0.00001130,-0.00001036,-0.00000032,-0.00000170,0.000
 00383,-0.00000043,0.00000187,-0.00000020,0.00000013,-0.00000039,-0.000
 00062,0.00000006,0.00000035,-0.00000012,0.00000053,0.00000040,0.000000
 52,0.00000052,-0.00000060,0.00000034,0.00000031,0.00000011,0.00000054,
 0.00000029,-0.00000016,0.00000048,0.00001825,0.00000484,0.00002019,-0.
 00002431,0.00003967,0.00001039,-0.00204627,-0.00069238,-0.00071770,-0.
 08059981,0.12391773,0.13692093\\-0.00003710,0.00004102,-0.00001446,-0.
 00000444,0.00000338,-0.00000125,-0.00000005,-0.00000742,-0.00000698,0.
 00000725,-0.00000841,0.00000942,0.00000018,-0.00000694,-0.00000928,-0.
 00000225,0.00000077,0.00000254,-0.00000259,0.00000077,0.00000714,0.000
 00209,-0.00000143,0.00000289,0.00000346,-0.00000515,-0.00000204,-0.000
 00989,0.00000451,0.00000721,0.00001096,-0.00001297,-0.00000660,0.00000
 178,0.00001037,-0.00000303,-0.00000761,0.00000294,0.00000993,0.0000042
 2,-0.00000465,-0.00000758,-0.00000167,0.00000338,-0.00000529,0.0000019
 5,0.00000749,0.00000287,0.00004096,-0.00002120,0.00000839,-0.00000328,
 0.00000525,-0.00001404,0.00000211,-0.00001601,0.00000820,-0.00001427,0
 .00000753,0.00001718,0.00000143,-0.00003853,0.00002234,0.00001011,0.00
 004943,-0.00002976,0.00000037,-0.00001119,-0.00000060,-0.00000221,-0.0
 0000205,-0.00000033,0.00000371,0.00000401,0.00000428,-0.00000380,-0.00
 000015,0.00000509,0.00000654,-0.00001405,-0.00000192,-0.00000047,0.000
 00432,-0.00000647,0.00000184,-0.00003049,0.00001271,-0.00000151,0.0000
 2886,-0.00000637,-0.00000522,0.00001038,0.00000779,0.00000108,0.000006
 43,-0.00000139,-0.00000304,-0.00000015,-0.00000363,0.00000032,0.000000
 42,0.00000108,0.00000013,0.00000107,-0.00000259,-0.00000053,0.00000279
 ,-0.00000012,0.00000044,-0.00000019,-0.00000063,0.00000027,-0.00000082
 ,-0.00000251,0.00000191,-0.00000068,0.00000041,-0.00000270,-0.00000547
 ,-0.00000262,-0.00000231,-0.00000720,0.00000614,0.00000005,0.00000903,
 -0.00000254,0.00000574,-0.00000545,-0.00000344,-0.00000257,-0.00000285
 ,-0.00000013,-0.00000141,-0.00000071,-0.00000005\\\@


 MY DESCRIPTION OF EXPERIENCE IS NOT WHAT HAPPENS
 TO A MAN.  EXPERIENCE IS WHAT A MAN DOES WITH WHAT
 HAPPENS TO HIM.
                         - CHUCK KNOX, SEATTLE SEAHAWKS, 1985
 Job cpu time:  1 days  1 hours  0 minutes 46.3 seconds.
 File lengths (MBytes):  RWF=   2147 Int=      0 D2E=      0 Chk=     33 Scr=      1
 Normal termination of Gaussian 09 at Mon Dec 30 11:36:40 2013.
