 Entering Gaussian System, Link 0=g09
 Initial command:
 /opt/gaussian/g09/l1.exe /panfs/panfs.cluster/home/shuo/Gau-26764.inp -scrdir=/panfs/panfs.cluster/home/shuo/
 Default is to use a total of  12 processors:
                               12 via shared-memory
                                1 via Linda
 Entering Link 1 = /opt/gaussian/g09/l1.exe PID=     26765.
  
 Copyright (c) 1988,1990,1992,1993,1995,1998,2003,2009,2011,
            Gaussian, Inc.  All Rights Reserved.
  
 This is part of the Gaussian(R) 09 program.  It is based on
 the Gaussian(R) 03 system (copyright 2003, Gaussian, Inc.),
 the Gaussian(R) 98 system (copyright 1998, Gaussian, Inc.),
 the Gaussian(R) 94 system (copyright 1995, Gaussian, Inc.),
 the Gaussian 92(TM) system (copyright 1992, Gaussian, Inc.),
 the Gaussian 90(TM) system (copyright 1990, Gaussian, Inc.),
 the Gaussian 88(TM) system (copyright 1988, Gaussian, Inc.),
 the Gaussian 86(TM) system (copyright 1986, Carnegie Mellon
 University), and the Gaussian 82(TM) system (copyright 1983,
 Carnegie Mellon University). Gaussian is a federally registered
 trademark of Gaussian, Inc.
  
 This software contains proprietary and confidential information,
 including trade secrets, belonging to Gaussian, Inc.
  
 This software is provided under written license and may be
 used, copied, transmitted, or stored only in accord with that
 written license.
  
 The following legend is applicable only to US Government
 contracts under FAR:
  
                    RESTRICTED RIGHTS LEGEND
  
 Use, reproduction and disclosure by the US Government is
 subject to restrictions as set forth in subparagraphs (a)
 and (c) of the Commercial Computer Software - Restricted
 Rights clause in FAR 52.227-19.
  
 Gaussian, Inc.
 340 Quinnipiac St., Bldg. 40, Wallingford CT 06492
  
  
 ---------------------------------------------------------------
 Warning -- This program may not be used in any manner that
 competes with the business of Gaussian, Inc. or will provide
 assistance to any competitor of Gaussian, Inc.  The licensee
 of this program is prohibited from giving any competitor of
 Gaussian, Inc. access to this program.  By using this program,
 the user acknowledges that Gaussian, Inc. is engaged in the
 business of creating and licensing software in the field of
 computational chemistry and represents and warrants to the
 licensee that it is not a competitor of Gaussian, Inc. and that
 it will not use this program in any manner prohibited above.
 ---------------------------------------------------------------
  

 Cite this work as:
 Gaussian 09, Revision C.01,
 M. J. Frisch, G. W. Trucks, H. B. Schlegel, G. E. Scuseria, 
 M. A. Robb, J. R. Cheeseman, G. Scalmani, V. Barone, B. Mennucci, 
 G. A. Petersson, H. Nakatsuji, M. Caricato, X. Li, H. P. Hratchian, 
 A. F. Izmaylov, J. Bloino, G. Zheng, J. L. Sonnenberg, M. Hada, 
 M. Ehara, K. Toyota, R. Fukuda, J. Hasegawa, M. Ishida, T. Nakajima, 
 Y. Honda, O. Kitao, H. Nakai, T. Vreven, J. A. Montgomery, Jr., 
 J. E. Peralta, F. Ogliaro, M. Bearpark, J. J. Heyd, E. Brothers, 
 K. N. Kudin, V. N. Staroverov, T. Keith, R. Kobayashi, J. Normand, 
 K. Raghavachari, A. Rendell, J. C. Burant, S. S. Iyengar, J. Tomasi, 
 M. Cossi, N. Rega, J. M. Millam, M. Klene, J. E. Knox, J. B. Cross, 
 V. Bakken, C. Adamo, J. Jaramillo, R. Gomperts, R. E. Stratmann, 
 O. Yazyev, A. J. Austin, R. Cammi, C. Pomelli, J. W. Ochterski, 
 R. L. Martin, K. Morokuma, V. G. Zakrzewski, G. A. Voth, 
 P. Salvador, J. J. Dannenberg, S. Dapprich, A. D. Daniels, 
 O. Farkas, J. B. Foresman, J. V. Ortiz, J. Cioslowski, 
 and D. J. Fox, Gaussian, Inc., Wallingford CT, 2010.
 
 ******************************************
 Gaussian 09:  EM64L-G09RevC.01 23-Sep-2011
                29-Dec-2013 
 ******************************************
 %chk=86_C20H12N4S3.chk
 %NProcShared=12
 Will use up to   12 processors via shared memory.
 %Mem=8000MB
 Default route:  MaxDisk=100GB
 --------------------------------------------
 #B3LYP/6-31++G(d,p) opt scf=direct freq test
 --------------------------------------------
 1/14=-1,18=20,19=15,26=3,38=1/1,3;
 2/9=110,12=2,17=6,18=5,40=1/2;
 3/5=1,6=6,7=1111,11=2,16=1,25=1,30=1,71=1,74=-5/1,2,3;
 4//1;
 5/5=2,38=5/2;
 6/7=2,8=2,9=2,10=2,28=1/1;
 7//1,2,3,16;
 1/14=-1,18=20,19=15/3(2);
 2/9=110/2;
 99//99;
 2/9=110/2;
 3/5=1,6=6,7=1111,11=2,16=1,25=1,30=1,71=1,74=-5/1,2,3;
 4/5=5,16=3/1;
 5/5=2,38=5/2;
 7//1,2,3,16;
 1/14=-1,18=20,19=15/3(-5);
 2/9=110/2;
 6/7=2,8=2,9=2,10=2,19=2,28=1/1;
 99/9=1/99;
 ----------------------------------------------------------------------
 Geom opt of No.86 candidate from the CEPDB database with SMILE code of
  c1cc2c(scc2o1)-c1cc2c3nsnc3c3c4sccc4[Se]c3c2c2nsnc12, HPC, 20131227, 
 Shuo Dai, Gaussian09
 ----------------------------------------------------------------------
 Charge =  0 Multiplicity = 1
 Symbolic Z-Matrix:
 C                    -2.081     0.046    -0.001 
 C                    -1.331    -1.086    -0.001 
 C                    -0.004    -0.694     0.005 
 C                     1.336    -1.106    -0.001 
 S                     2.1      -0.047    -0.001 
 C                     1.295     1.1       0. 
 C                    -0.013     0.696     0. 
 O                    -1.299     1.089     0. 
 C                     1.79539  -2.47497  -0.0063 
 C                     3.1499   -2.74228  -0.04043 
 C                     3.59347  -4.05621  -0.05106 
 C                     4.95518  -4.35126  -0.08435 
 N                     6.05803  -3.55003  -0.11259 
 S                     7.12858  -4.28994  -0.13933 
 N                     6.77193  -5.59766  -0.12872 
 C                     5.38714  -5.64726  -0.09369 
 C                     4.50274  -6.70719  -0.07186 
 C                     4.67382  -8.09932  -0.07456 
 S                     6.10795  -8.91043  -0.10841 
 C                     7.35046  -7.82831  -0.13958 
 C                     3.21606  -9.94972  -0.03789 
 C                     3.47782  -8.63258  -0.04508 
 Se                    2.56277  -7.66762  -0.02338 
 C                     3.15626  -6.49169  -0.03891 
 C                     2.66059  -5.10447  -0.026 
 C                     1.29721  -4.8207    0.00734 
 N                     0.42958  -5.78699   0.02316 
 S                    -1.13912  -5.4556    0.06154 
 N                    -0.39645  -3.24041   0.0668 
 C                     0.87356  -3.50861   0.02347 
 H                    -3.11256   0.07603  -0.00169 
 H                    -1.6841   -2.05571  -0.00476 
 H                     1.62906   2.07644   0.00063 
 H                     3.83013  -1.96639  -0.05797 
 H                     8.20475  -7.24972  -0.16078 
 H                     2.59455  -10.77344  -0.02228 
 

 GradGradGradGradGradGradGradGradGradGradGradGradGradGradGradGradGradGrad
 Berny optimization.
 Initialization pass.
                           ----------------------------
                           !    Initial Parameters    !
                           ! (Angstroms and Degrees)  !
 --------------------------                            --------------------------
 ! Name  Definition              Value          Derivative Info.                !
 --------------------------------------------------------------------------------
 ! R1    R(1,2)                  1.3579         estimate D2E/DX2                !
 ! R2    R(1,8)                  1.3036         estimate D2E/DX2                !
 ! R3    R(1,31)                 1.032          estimate D2E/DX2                !
 ! R4    R(2,3)                  1.3837         estimate D2E/DX2                !
 ! R5    R(2,32)                 1.032          estimate D2E/DX2                !
 ! R6    R(3,4)                  1.4019         estimate D2E/DX2                !
 ! R7    R(3,7)                  1.39           estimate D2E/DX2                !
 ! R8    R(4,5)                  1.3058         estimate D2E/DX2                !
 ! R9    R(4,9)                  1.444          estimate D2E/DX2                !
 ! R10   R(5,6)                  1.4013         estimate D2E/DX2                !
 ! R11   R(6,7)                  1.369          estimate D2E/DX2                !
 ! R12   R(6,33)                 1.032          estimate D2E/DX2                !
 ! R13   R(7,8)                  1.3447         estimate D2E/DX2                !
 ! R14   R(9,10)                 1.3811         estimate D2E/DX2                !
 ! R15   R(9,30)                 1.3853         estimate D2E/DX2                !
 ! R16   R(10,11)                1.3868         estimate D2E/DX2                !
 ! R17   R(10,34)                1.032          estimate D2E/DX2                !
 ! R18   R(11,12)                1.3937         estimate D2E/DX2                !
 ! R19   R(11,25)                1.4035         estimate D2E/DX2                !
 ! R20   R(12,13)                1.3635         estimate D2E/DX2                !
 ! R21   R(12,14)                2.175          estimate D2E/DX2                !
 ! R22   R(12,16)                1.3661         estimate D2E/DX2                !
 ! R23   R(13,14)                1.3016         estimate D2E/DX2                !
 ! R24   R(14,15)                1.3555         estimate D2E/DX2                !
 ! R25   R(15,16)                1.3861         estimate D2E/DX2                !
 ! R26   R(16,17)                1.3806         estimate D2E/DX2                !
 ! R27   R(17,18)                1.4026         estimate D2E/DX2                !
 ! R28   R(17,23)                2.1652         estimate D2E/DX2                !
 ! R29   R(17,24)                1.364          estimate D2E/DX2                !
 ! R30   R(18,19)                1.648          estimate D2E/DX2                !
 ! R31   R(18,22)                1.3098         estimate D2E/DX2                !
 ! R32   R(18,23)                2.1553         estimate D2E/DX2                !
 ! R33   R(19,20)                1.648          estimate D2E/DX2                !
 ! R34   R(20,35)                1.032          estimate D2E/DX2                !
 ! R35   R(21,22)                1.3429         estimate D2E/DX2                !
 ! R36   R(21,36)                1.032          estimate D2E/DX2                !
 ! R37   R(22,23)                1.33           estimate D2E/DX2                !
 ! R38   R(23,24)                1.3173         estimate D2E/DX2                !
 ! R39   R(24,25)                1.4732         estimate D2E/DX2                !
 ! R40   R(25,26)                1.393          estimate D2E/DX2                !
 ! R41   R(26,27)                1.2987         estimate D2E/DX2                !
 ! R42   R(26,30)                1.3789         estimate D2E/DX2                !
 ! R43   R(27,28)                1.6038         estimate D2E/DX2                !
 ! R44   R(29,30)                1.2987         estimate D2E/DX2                !
 ! A1    A(2,1,8)              109.6127         estimate D2E/DX2                !
 ! A2    A(2,1,31)             125.1937         estimate D2E/DX2                !
 ! A3    A(8,1,31)             125.1936         estimate D2E/DX2                !
 ! A4    A(1,2,3)              107.0688         estimate D2E/DX2                !
 ! A5    A(1,2,32)             126.4654         estimate D2E/DX2                !
 ! A6    A(3,2,32)             126.4658         estimate D2E/DX2                !
 ! A7    A(2,3,4)              146.4485         estimate D2E/DX2                !
 ! A8    A(2,3,7)              106.0851         estimate D2E/DX2                !
 ! A9    A(4,3,7)              107.4605         estimate D2E/DX2                !
 ! A10   A(3,4,5)              108.7171         estimate D2E/DX2                !
 ! A11   A(3,4,9)              125.6416         estimate D2E/DX2                !
 ! A12   A(5,4,9)              125.6413         estimate D2E/DX2                !
 ! A13   A(4,5,6)              109.1296         estimate D2E/DX2                !
 ! A14   A(5,6,7)              107.8981         estimate D2E/DX2                !
 ! A15   A(5,6,33)             126.0508         estimate D2E/DX2                !
 ! A16   A(7,6,33)             126.0511         estimate D2E/DX2                !
 ! A17   A(3,7,6)              106.7932         estimate D2E/DX2                !
 ! A18   A(3,7,8)              107.3639         estimate D2E/DX2                !
 ! A19   A(6,7,8)              145.8426         estimate D2E/DX2                !
 ! A20   A(1,8,7)              109.868          estimate D2E/DX2                !
 ! A21   A(4,9,10)             119.7099         estimate D2E/DX2                !
 ! A22   A(4,9,30)             119.7091         estimate D2E/DX2                !
 ! A23   A(10,9,30)            120.5809         estimate D2E/DX2                !
 ! A24   A(9,10,11)            119.8195         estimate D2E/DX2                !
 ! A25   A(9,10,34)            120.0905         estimate D2E/DX2                !
 ! A26   A(11,10,34)           120.0901         estimate D2E/DX2                !
 ! A27   A(10,11,12)           120.8813         estimate D2E/DX2                !
 ! A28   A(10,11,25)           119.6637         estimate D2E/DX2                !
 ! A29   A(12,11,25)           119.4549         estimate D2E/DX2                !
 ! A30   A(11,12,13)           131.7881         estimate D2E/DX2                !
 ! A31   A(11,12,16)           120.6594         estimate D2E/DX2                !
 ! A32   A(13,12,16)           107.5525         estimate D2E/DX2                !
 ! A33   A(14,12,16)            73.1783         estimate D2E/DX2                !
 ! A34   A(12,14,15)            73.1231         estimate D2E/DX2                !
 ! A35   A(13,14,15)           109.3805         estimate D2E/DX2                !
 ! A36   A(14,15,16)           107.312          estimate D2E/DX2                !
 ! A37   A(12,16,15)           106.3866         estimate D2E/DX2                !
 ! A38   A(12,16,17)           121.7127         estimate D2E/DX2                !
 ! A39   A(15,16,17)           131.9007         estimate D2E/DX2                !
 ! A40   A(16,17,18)           133.1434         estimate D2E/DX2                !
 ! A41   A(16,17,23)           156.1818         estimate D2E/DX2                !
 ! A42   A(16,17,24)           120.7598         estimate D2E/DX2                !
 ! A43   A(18,17,24)           106.0968         estimate D2E/DX2                !
 ! A44   A(17,18,19)           126.4913         estimate D2E/DX2                !
 ! A45   A(17,18,22)           107.0176         estimate D2E/DX2                !
 ! A46   A(19,18,22)           126.4912         estimate D2E/DX2                !
 ! A47   A(19,18,23)           162.0694         estimate D2E/DX2                !
 ! A48   A(18,19,20)           109.4712         estimate D2E/DX2                !
 ! A49   A(22,21,36)           154.2004         estimate D2E/DX2                !
 ! A50   A(18,22,21)           125.2684         estimate D2E/DX2                !
 ! A51   A(21,22,23)           125.2685         estimate D2E/DX2                !
 ! A52   A(17,23,22)            72.8444         estimate D2E/DX2                !
 ! A53   A(18,23,24)            74.7662         estimate D2E/DX2                !
 ! A54   A(22,23,24)           109.7248         estimate D2E/DX2                !
 ! A55   A(17,24,25)           118.7588         estimate D2E/DX2                !
 ! A56   A(23,24,25)           133.5435         estimate D2E/DX2                !
 ! A57   A(11,25,24)           118.6543         estimate D2E/DX2                !
 ! A58   A(11,25,26)           119.9229         estimate D2E/DX2                !
 ! A59   A(24,25,26)           121.4226         estimate D2E/DX2                !
 ! A60   A(25,26,27)           120.1704         estimate D2E/DX2                !
 ! A61   A(25,26,30)           119.6587         estimate D2E/DX2                !
 ! A62   A(27,26,30)           120.1709         estimate D2E/DX2                !
 ! A63   A(26,27,28)           119.9995         estimate D2E/DX2                !
 ! A64   A(9,30,26)            120.3514         estimate D2E/DX2                !
 ! A65   A(9,30,29)            119.8245         estimate D2E/DX2                !
 ! A66   A(26,30,29)           119.8241         estimate D2E/DX2                !
 ! A67   L(11,12,14,16,-1)     193.8377         estimate D2E/DX2                !
 ! A68   L(19,20,35,1,-1)      186.9434         estimate D2E/DX2                !
 ! A69   L(11,12,14,16,-2)     179.9641         estimate D2E/DX2                !
 ! A70   L(19,20,35,1,-2)      180.0449         estimate D2E/DX2                !
 ! D1    D(8,1,2,3)              0.2132         estimate D2E/DX2                !
 ! D2    D(8,1,2,32)          -179.7871         estimate D2E/DX2                !
 ! D3    D(31,1,2,3)          -179.787          estimate D2E/DX2                !
 ! D4    D(31,1,2,32)            0.2127         estimate D2E/DX2                !
 ! D5    D(2,1,8,7)              0.0315         estimate D2E/DX2                !
 ! D6    D(31,1,8,7)          -179.9682         estimate D2E/DX2                !
 ! D7    D(1,2,3,4)           -179.2579         estimate D2E/DX2                !
 ! D8    D(1,2,3,7)             -0.3624         estimate D2E/DX2                !
 ! D9    D(32,2,3,4)             0.7424         estimate D2E/DX2                !
 ! D10   D(32,2,3,7)           179.6379         estimate D2E/DX2                !
 ! D11   D(2,3,4,5)            179.2638         estimate D2E/DX2                !
 ! D12   D(2,3,4,9)             -0.7364         estimate D2E/DX2                !
 ! D13   D(7,3,4,5)              0.3763         estimate D2E/DX2                !
 ! D14   D(7,3,4,9)           -179.6239         estimate D2E/DX2                !
 ! D15   D(2,3,7,6)           -179.7442         estimate D2E/DX2                !
 ! D16   D(2,3,7,8)              0.3824         estimate D2E/DX2                !
 ! D17   D(4,3,7,6)             -0.3841         estimate D2E/DX2                !
 ! D18   D(4,3,7,8)            179.7426         estimate D2E/DX2                !
 ! D19   D(3,4,5,6)             -0.2156         estimate D2E/DX2                !
 ! D20   D(9,4,5,6)            179.7845         estimate D2E/DX2                !
 ! D21   D(3,4,9,10)           178.6405         estimate D2E/DX2                !
 ! D22   D(3,4,9,30)            -1.3869         estimate D2E/DX2                !
 ! D23   D(5,4,9,10)            -1.3597         estimate D2E/DX2                !
 ! D24   D(5,4,9,30)           178.613          estimate D2E/DX2                !
 ! D25   D(4,5,6,7)             -0.0274         estimate D2E/DX2                !
 ! D26   D(4,5,6,33)           179.9723         estimate D2E/DX2                !
 ! D27   D(5,6,7,3)              0.2582         estimate D2E/DX2                !
 ! D28   D(5,6,7,8)           -179.957          estimate D2E/DX2                !
 ! D29   D(33,6,7,3)          -179.7415         estimate D2E/DX2                !
 ! D30   D(33,6,7,8)             0.0433         estimate D2E/DX2                !
 ! D31   D(3,7,8,1)             -0.2627         estimate D2E/DX2                !
 ! D32   D(6,7,8,1)            179.9533         estimate D2E/DX2                !
 ! D33   D(4,9,10,11)         -179.7394         estimate D2E/DX2                !
 ! D34   D(4,9,10,34)            0.2609         estimate D2E/DX2                !
 ! D35   D(30,9,10,11)           0.2882         estimate D2E/DX2                !
 ! D36   D(30,9,10,34)        -179.7115         estimate D2E/DX2                !
 ! D37   D(4,9,30,26)          179.4468         estimate D2E/DX2                !
 ! D38   D(4,9,30,29)           -0.5531         estimate D2E/DX2                !
 ! D39   D(10,9,30,26)          -0.5809         estimate D2E/DX2                !
 ! D40   D(10,9,30,29)         179.4193         estimate D2E/DX2                !
 ! D41   D(9,10,11,12)        -179.9517         estimate D2E/DX2                !
 ! D42   D(9,10,11,25)          -0.0472         estimate D2E/DX2                !
 ! D43   D(34,10,11,12)          0.048          estimate D2E/DX2                !
 ! D44   D(34,10,11,25)        179.9525         estimate D2E/DX2                !
 ! D45   D(10,11,12,13)         -0.0617         estimate D2E/DX2                !
 ! D46   D(10,11,12,16)        179.9508         estimate D2E/DX2                !
 ! D47   D(25,11,12,13)       -179.9664         estimate D2E/DX2                !
 ! D48   D(25,11,12,16)          0.0462         estimate D2E/DX2                !
 ! D49   D(10,11,14,15)        179.9464         estimate D2E/DX2                !
 ! D50   D(25,11,14,15)          0.0179         estimate D2E/DX2                !
 ! D51   D(10,11,25,24)        179.9568         estimate D2E/DX2                !
 ! D52   D(10,11,25,26)          0.0947         estimate D2E/DX2                !
 ! D53   D(12,11,25,24)         -0.1373         estimate D2E/DX2                !
 ! D54   D(12,11,25,26)       -179.9994         estimate D2E/DX2                !
 ! D55   D(16,12,14,15)         -0.0006         estimate D2E/DX2                !
 ! D56   D(11,12,16,15)        179.9646         estimate D2E/DX2                !
 ! D57   D(11,12,16,17)          0.0518         estimate D2E/DX2                !
 ! D58   D(13,12,16,15)         -0.0255         estimate D2E/DX2                !
 ! D59   D(13,12,16,17)       -179.9384         estimate D2E/DX2                !
 ! D60   D(14,12,16,15)          0.0006         estimate D2E/DX2                !
 ! D61   D(14,12,16,17)       -179.9123         estimate D2E/DX2                !
 ! D62   D(12,14,15,16)          0.0006         estimate D2E/DX2                !
 ! D63   D(13,14,15,16)          0.0286         estimate D2E/DX2                !
 ! D64   D(14,15,16,12)         -0.0009         estimate D2E/DX2                !
 ! D65   D(14,15,16,17)        179.8995         estimate D2E/DX2                !
 ! D66   D(12,16,17,18)       -179.9799         estimate D2E/DX2                !
 ! D67   D(12,16,17,23)         -0.1041         estimate D2E/DX2                !
 ! D68   D(12,16,17,24)         -0.0512         estimate D2E/DX2                !
 ! D69   D(15,16,17,18)          0.1323         estimate D2E/DX2                !
 ! D70   D(15,16,17,23)       -179.9919         estimate D2E/DX2                !
 ! D71   D(15,16,17,24)       -179.9389         estimate D2E/DX2                !
 ! D72   D(16,17,18,19)         -0.0373         estimate D2E/DX2                !
 ! D73   D(16,17,18,22)        179.9626         estimate D2E/DX2                !
 ! D74   D(24,17,18,19)       -179.9736         estimate D2E/DX2                !
 ! D75   D(24,17,18,22)          0.0264         estimate D2E/DX2                !
 ! D76   D(16,17,23,22)       -179.9195         estimate D2E/DX2                !
 ! D77   D(16,17,24,25)         -0.0437         estimate D2E/DX2                !
 ! D78   D(18,17,24,25)        179.9022         estimate D2E/DX2                !
 ! D79   D(17,18,19,20)          0.0            estimate D2E/DX2                !
 ! D80   D(22,18,19,20)       -179.9999         estimate D2E/DX2                !
 ! D81   D(23,18,19,20)       -179.9512         estimate D2E/DX2                !
 ! D82   D(17,18,22,21)        179.9738         estimate D2E/DX2                !
 ! D83   D(19,18,22,21)         -0.0263         estimate D2E/DX2                !
 ! D84   D(19,18,23,24)        179.9477         estimate D2E/DX2                !
 ! D85   D(36,21,22,18)       -179.9942         estimate D2E/DX2                !
 ! D86   D(36,21,22,23)          0.0052         estimate D2E/DX2                !
 ! D87   D(21,22,23,17)       -179.9828         estimate D2E/DX2                !
 ! D88   D(21,22,23,24)       -179.9841         estimate D2E/DX2                !
 ! D89   D(18,23,24,25)       -179.8914         estimate D2E/DX2                !
 ! D90   D(22,23,24,25)       -179.9006         estimate D2E/DX2                !
 ! D91   D(17,24,25,11)          0.137          estimate D2E/DX2                !
 ! D92   D(17,24,25,26)        179.997          estimate D2E/DX2                !
 ! D93   D(23,24,25,11)       -179.9689         estimate D2E/DX2                !
 ! D94   D(23,24,25,26)         -0.1089         estimate D2E/DX2                !
 ! D95   D(11,25,26,27)        179.6189         estimate D2E/DX2                !
 ! D96   D(11,25,26,30)         -0.3817         estimate D2E/DX2                !
 ! D97   D(24,25,26,27)         -0.2394         estimate D2E/DX2                !
 ! D98   D(24,25,26,30)        179.7601         estimate D2E/DX2                !
 ! D99   D(25,26,27,28)       -179.9998         estimate D2E/DX2                !
 ! D100  D(30,26,27,28)          0.0007         estimate D2E/DX2                !
 ! D101  D(25,26,30,9)           0.6232         estimate D2E/DX2                !
 ! D102  D(25,26,30,29)       -179.377          estimate D2E/DX2                !
 ! D103  D(27,26,30,9)        -179.3773         estimate D2E/DX2                !
 ! D104  D(27,26,30,29)          0.6225         estimate D2E/DX2                !
 --------------------------------------------------------------------------------
 Trust Radius=3.00D-01 FncErr=1.00D-07 GrdErr=1.00D-06
 Number of steps in this run=    216 maximum allowed number of steps=    216.
 GradGradGradGradGradGradGradGradGradGradGradGradGradGradGradGradGradGrad

                          Input orientation:                          
 ---------------------------------------------------------------------
 Center     Atomic      Atomic             Coordinates (Angstroms)
 Number     Number       Type             X           Y           Z
 ---------------------------------------------------------------------
      1          6           0       -2.081000    0.046000   -0.001000
      2          6           0       -1.331000   -1.086000   -0.001000
      3          6           0       -0.004000   -0.694000    0.005000
      4          6           0        1.336000   -1.106000   -0.001000
      5         16           0        2.100000   -0.047000   -0.001000
      6          6           0        1.295000    1.100000    0.000000
      7          6           0       -0.013000    0.696000    0.000000
      8          8           0       -1.299000    1.089000    0.000000
      9          6           0        1.795390   -2.474970   -0.006300
     10          6           0        3.149900   -2.742280   -0.040430
     11          6           0        3.593470   -4.056210   -0.051060
     12          6           0        4.955180   -4.351260   -0.084350
     13          7           0        6.058030   -3.550030   -0.112590
     14         16           0        7.128580   -4.289940   -0.139330
     15          7           0        6.771930   -5.597660   -0.128720
     16          6           0        5.387140   -5.647260   -0.093690
     17          6           0        4.502740   -6.707190   -0.071860
     18          6           0        4.673820   -8.099320   -0.074560
     19         16           0        6.107950   -8.910430   -0.108410
     20          6           0        7.350460   -7.828310   -0.139580
     21          6           0        3.216060   -9.949720   -0.037890
     22          6           0        3.477820   -8.632580   -0.045080
     23         34           0        2.562770   -7.667620   -0.023380
     24          6           0        3.156260   -6.491690   -0.038910
     25          6           0        2.660590   -5.104470   -0.026000
     26          6           0        1.297210   -4.820700    0.007340
     27          7           0        0.429580   -5.786990    0.023160
     28         16           0       -1.139120   -5.455600    0.061540
     29          7           0       -0.396450   -3.240410    0.066800
     30          6           0        0.873560   -3.508610    0.023470
     31          1           0       -3.112560    0.076030   -0.001690
     32          1           0       -1.684100   -2.055710   -0.004760
     33          1           0        1.629060    2.076440    0.000630
     34          1           0        3.830130   -1.966390   -0.057970
     35          1           0        8.204750   -7.249720   -0.160780
     36          1           0        2.594550  -10.773440   -0.022280
 ---------------------------------------------------------------------
                    Distance matrix (angstroms):
                    1          2          3          4          5
     1  C    0.000000
     2  C    1.357912   0.000000
     3  C    2.204896   1.383701   0.000000
     4  C    3.605966   2.667075   1.401920   0.000000
     5  S    4.182034   3.584868   2.201241   1.305824   0.000000
     6  C    3.536707   3.416793   2.214918   2.206381   1.401298
     7  C    2.167747   2.216450   1.390038   2.251001   2.239826
     8  O    1.303600   2.175236   2.203665   3.429468   3.583811
     9  C    4.624037   3.421050   2.531756   1.444004   2.447009
    10  C    5.927763   4.777372   3.760931   2.443195   2.892815
    11  C    7.002160   5.751092   4.924367   3.715160   4.278636
    12  C    8.297630   7.084132   6.162548   4.861803   5.165816
    13  N    8.898747   7.789843   6.702160   5.318205   5.286745
    14  S   10.180171   9.047036   7.989075   6.611399   6.580904
    15  N   10.499599   9.275175   8.365225   7.052706   7.256243
    16  C    9.391215   8.120781   7.321811   6.086326   6.494366
    17  C    9.431661   8.101563   7.514989   6.434795   7.080700
    18  C   10.582024   9.233089   8.759400   7.749386   8.453982
    19  S   12.136230  10.796815  10.241021   9.148343   9.728083
    20  C   12.287245  10.992984  10.247310   9.021219   9.388041
    21  C   11.312587   9.962060   9.799948   9.041425   9.965481
    22  C   10.306317   8.948607   8.668716   7.825519   8.695546
    23  Se   9.003612   7.647200   7.431049   6.675352   7.634691
    24  C    8.376856   7.025555   6.603210   5.685107   6.530785
    25  C    7.000760   5.664055   5.152984   4.212235   5.088506
    26  C    5.924284   4.566787   4.326986   3.714912   4.840739
    27  N    6.350383   5.019914   5.111445   4.768003   5.978158
    28  S    5.581994   4.374258   4.895358   5.004913   6.304662
    29  N    3.693616   2.349354   2.577216   2.749852   4.053977
    30  C    4.622259   3.275626   2.948302   2.446831   3.672533
    31  H    1.031997   2.127033   3.202520   4.602921   5.214012
    32  H    2.138862   1.032004   2.162657   3.165907   4.284197
    33  H    4.229330   4.331626   3.215936   3.195905   2.175037
    34  H    6.244551   5.235990   4.040234   2.638977   2.584696
    35  H   12.611491  11.355505  10.506594   9.216862   9.443129
    36  H   11.786497  10.452602  10.409050   9.749041  10.737856
                    6          7          8          9         10
     6  C    0.000000
     7  C    1.368970   0.000000
     8  O    2.594023   1.344710   0.000000
     9  C    3.609826   3.650392   4.719870   0.000000
    10  C    4.266779   4.671974   5.871376   1.381056   0.000000
    11  C    5.645536   5.965965   7.100145   2.394873   1.386823
    12  C    6.566602   7.082709   8.289651   3.675708   2.418632
    13  N    6.657470   7.409376   8.698228   4.397403   3.019087
    14  S    7.943647   8.710980   9.998826   5.635133   4.270237
    15  N    8.652860   9.255377  10.481789   5.876405   4.613035
    16  C    7.891762   8.331101   9.491599   4.792883   3.667014
    17  C    8.440792   8.672041   9.718330   5.024513   4.189472
    18  C    9.800483   9.966418  10.959259   6.318491   5.569684
    19  S   11.107878  11.391281  12.444407   7.747499   6.841108
    20  C   10.789013  11.265163  12.423810   7.715881   6.597138
    21  C   11.215535  11.124730  11.926464   7.608626   7.207744
    22  C    9.974460   9.960435  10.831859   6.383434   5.899423
    23  Se   8.858834   8.751301   9.570382   5.249074   4.960241
    24  C    7.816621   7.855483   8.793049   4.241117   3.749416
    25  C    6.353028   6.387035   7.351061   2.768254   2.412379
    26  C    5.920705   5.670157   6.454837   2.398086   2.784703
    27  N    6.941190   6.498121   7.089976   3.582706   4.083435
    28  S    6.993184   6.254128   6.546842   4.183313   5.076238
    29  N    4.658822   3.955606   4.422991   2.322801   3.582768
    30  C    4.627899   4.297125   5.085134   1.385304   2.402721
    31  H    4.524942   3.160955   2.077285   5.531329   6.867516
    32  H    4.339766   3.219395   3.168205   3.504659   4.882643
    33  H    1.032004   2.145222   3.090077   4.554453   5.053187
    34  H    3.979069   4.675610   5.970489   2.097973   1.032001
    35  H   10.839203  11.432048  12.644420   7.993872   6.773700
    36  H   11.944367  11.762137  12.485100   8.336877   8.050359
                   11         12         13         14         15
    11  C    0.000000
    12  C    1.393706   0.000000
    13  N    2.516756   1.363468   0.000000
    14  S    3.543928   2.174960   1.301637   0.000000
    15  N    3.533371   2.203647   2.168571   1.355523   0.000000
    16  C    2.398022   1.366123   2.202005   2.208396   1.386121
    17  C    2.802659   2.399013   3.519694   3.569690   2.526562
    18  C    4.185027   3.758619   4.755368   4.532264   3.265471
    19  S    5.467115   4.702711   5.360634   4.731973   3.378717
    20  C    5.324617   4.222593   4.469316   3.545320   2.304477
    21  C    5.905597   5.862546   7.002743   6.881222   5.620755
    22  C    4.577835   4.529220   5.700382   5.674104   4.479832
    23  Se   3.755714   4.089693   5.401791   5.680562   4.691786
    24  C    2.474442   2.796358   4.132682   4.542809   3.725644
    25  C    1.403475   2.415755   3.737162   4.543043   4.142089
    26  C    2.420881   3.689109   4.928934   5.857311   5.531251
    27  N    3.607119   4.749098   6.058207   6.866161   6.346993
    28  S    4.936434   6.195268   7.447180   8.351885   7.914613
    29  N    4.074173   5.467795   6.464391   7.600663   7.548545
    30  C    2.775488   4.169089   5.186420   6.305732   6.259238
    31  H    7.877099   9.203052   9.862065  11.133804  11.397808
    32  H    5.644191   7.025377   7.885759   9.092482   9.168709
    33  H    6.439796   7.237791   7.161408   8.413983   9.238921
    34  H    2.103189   2.637051   2.733942   4.035502   4.673897
    35  H    5.610209   4.355068   4.277667   3.149428   2.187076
    36  H    6.791160   6.842574   8.011336   7.912452   6.652107
                   16         17         18         19         20
    16  C    0.000000
    17  C    1.380613   0.000000
    18  C    2.553779   1.402605   0.000000
    19  S    3.341865   2.726225   1.647961   0.000000
    20  C    2.934912   3.061210   2.691110   1.647964   0.000000
    21  C    4.819529   3.488653   2.355926   3.073780   4.648009
    22  C    3.544009   2.181354   1.309829   2.645524   3.956403
    23  Se   3.473307   2.165239   2.155346   3.757673   4.791795
    24  C    2.385977   1.364014   2.211048   3.816754   4.403181
    25  C    2.780877   2.442198   3.608958   5.135797   5.424674
    26  C    4.173839   3.720288   4.707181   6.315260   6.760853
    27  N    4.960905   4.176892   4.834252   6.482058   7.217482
    28  S    6.530919   5.780559   6.387335   8.030240   8.817209
    29  N    6.266466   6.003320   7.024004   8.630588   9.005889
    30  C    4.995994   4.838486   5.960386   7.523024   7.786952
    31  H   10.247410  10.198519  11.290233  12.875778  13.113824
    32  H    7.931556   7.740656   8.772300  10.378534  10.722144
    33  H    8.589971   9.242048  10.621785  11.865229  11.439325
    34  H    3.996794   4.788296   6.190712   7.308262   6.838237
    35  H    3.242114   3.742609   3.632729   2.675308   1.032002
    36  H    5.837926   4.491997   3.387774   3.977713   5.595197
                   21         22         23         24         25
    21  C    0.000000
    22  C    1.342918   0.000000
    23  Se   2.373811   1.330013   0.000000
    24  C    3.458547   2.164913   1.317301   0.000000
    25  C    4.877001   3.621573   2.565017   1.473172   0.000000
    26  C    5.476393   4.391838   3.115692   2.500083   1.392997
    27  N    5.009643   4.170588   2.844193   2.816956   2.333593
    28  S    6.258961   5.605417   4.313263   4.419713   3.816903
    29  N    7.620763   6.640631   5.325909   4.817027   3.581735
    30  C    6.854121   5.748212   4.489208   3.756777   2.396392
    31  H   11.856155  10.921304   9.600727   9.079341   7.756767
    32  H    9.291289   8.360757   7.037740   6.565681   5.307704
    33  H   12.130481  10.867526   9.788723   8.703261   7.254670
    34  H    8.006937   6.675506   5.840498   4.575238   3.349088
    35  H    5.673811   4.926414   5.659104   5.106536   5.946257
    36  H    1.032004   2.316024   3.105983   4.318469   5.669356
                   26         27         28         29         30
    26  C    0.000000
    27  N    1.298749   0.000000
    28  S    2.518281   1.603781   0.000000
    29  N    2.317183   2.677555   2.336376   0.000000
    30  C    1.378883   2.321235   2.800554   1.298743   0.000000
    31  H    6.589698   6.849991   5.873448   4.287274   5.360917
    32  H    4.066144   4.288458   3.443930   1.751193   2.941656
    33  H    6.905122   7.954420   8.024846   5.689988   5.635964
    34  H    3.816678   5.115399   6.073081   4.416183   3.335623
    35  H    7.324105   7.913702   9.517153   9.492471   8.232630
    36  H    6.092543   5.436345   6.498211   8.105588   7.466033
                   31         32         33         34         35
    31  H    0.000000
    32  H    2.566091   0.000000
    33  H    5.146320   5.296388   0.000000
    34  H    7.237098   5.515210   4.603544   0.000000
    35  H   13.482338  11.171009  11.412406   6.860135   0.000000
    36  H   12.258977   9.711126  12.886121   8.893372   6.626472
                   36
    36  H    0.000000
 Stoichiometry    C20H6N4OS4Se
 Framework group  C1[X(C20H6N4OS4Se)]
 Deg. of freedom   102
 Full point group                 C1      NOp   1
 Largest Abelian subgroup         C1      NOp   1
 Largest concise Abelian subgroup C1      NOp   1
                         Standard orientation:                         
 ---------------------------------------------------------------------
 Center     Atomic      Atomic             Coordinates (Angstroms)
 Number     Number       Type             X           Y           Z
 ---------------------------------------------------------------------
      1          6           0        6.535166   -1.176843    0.056925
      2          6           0        5.178397   -1.230905    0.043576
      3          6           0        4.720253    0.074274    0.008337
      4          6           0        3.602295    0.919899   -0.013295
      5         16           0        4.014346    2.158866   -0.032086
      6          6           0        5.415460    2.177087   -0.018598
      7          6           0        5.852822    0.880182    0.010265
      8          8           0        6.923723    0.067340    0.036788
      9          6           0        2.223248    0.491678   -0.014587
     10          6           0        1.213856    1.434234   -0.008745
     11          6           0       -0.111354    1.025482   -0.004500
     12          6           0       -1.147446    1.957633    0.000414
     13          7           0       -1.142945    3.321091    0.003231
     14         16           0       -2.369477    3.756805    0.008854
     15          7           0       -3.221392    2.702441    0.008927
     16          6           0       -2.451311    1.549932    0.003576
     17          6           0       -2.793466    0.212389    0.003113
     18          6           0       -4.022642   -0.463201    0.005429
     19         16           0       -5.519647    0.225800    0.010568
     20          6           0       -5.369046    1.866867    0.012674
     21          6           0       -4.670402   -2.728327    0.004222
     22          6           0       -3.755311   -1.745456    0.002732
     23         34           0       -2.437255   -1.923343   -0.001700
     24          6           0       -1.830804   -0.753941   -0.001599
     25          6           0       -0.415655   -0.344604   -0.007184
     26          6           0        0.612266   -1.284709   -0.012086
     27          7           0        0.336186   -2.553765   -0.007118
     28         16           0        1.522870   -3.632588   -0.012788
     29          7           0        2.885180   -1.734675   -0.039096
     30          6           0        1.924392   -0.860984   -0.022251
     31          1           0        7.162855   -1.995691    0.079559
     32          1           0        4.598396   -2.084396    0.057147
     33          1           0        6.012022    3.019135   -0.028649
     34          1           0        1.445101    2.439993   -0.007547
     35          1           0       -5.399664    2.898413    0.014279
     36          1           0       -4.974804   -3.714416    0.003813
 ---------------------------------------------------------------------
 Rotational constants (GHZ):      0.2309676      0.0746327      0.0564085
 Standard basis: 6-31++G(d,p) (6D, 7F)
 There are   637 symmetry adapted basis functions of A   symmetry.
 Integral buffers will be    131072 words long.
 Raffenetti 2 integral format.
 Two-electron integral symmetry is turned on.
   637 basis functions,  1159 primitive gaussians,   637 cartesian basis functions
   130 alpha electrons      130 beta electrons
       nuclear repulsion energy      4212.2245081901 Hartrees.
 NAtoms=   36 NActive=   36 NUniq=   36 SFac= 1.00D+00 NAtFMM=   60 NAOKFM=F Big=F
 One-electron integrals computed using PRISM.
 NBasis=   637 RedAO= T  NBF=   637
 NBsUse=   623 1.00D-06 NBFU=   623
 Harris functional with IExCor=  402 diagonalized for initial guess.
 ExpMin= 3.00D-02 ExpMax= 5.61D+05 ExpMxC= 5.42D+03 IAcc=3 IRadAn=         5 AccDes= 0.00D+00
 HarFok:  IExCor=  402 AccDes= 0.00D+00 IRadAn=         5 IDoV= 1
 ScaDFX=  1.000000  1.000000  1.000000  1.000000
 FoFCou: FMM=F IPFlag=           0 FMFlag=      100000 FMFlg1=           0
         NFxFlg=           0 DoJE=T BraDBF=F KetDBF=T FulRan=T
         Omega=  0.000000  0.000000  1.000000  0.000000  0.000000 ICntrl=     500 IOpCl=  0
         NMat0=    1 NMatS0=    1 NMatT0=    0 NMatD0=    1 NMtDS0=    0 NMtDT0=    0
         I1Cent=           4 NGrid=           0.
 Petite list used in FoFCou.
 Initial guess orbital symmetries:
       Occupied  (A) (A) (A) (A) (A) (A) (A) (A) (A) (A) (A) (A)
                 (A) (A) (A) (A) (A) (A) (A) (A) (A) (A) (A) (A)
                 (A) (A) (A) (A) (A) (A) (A) (A) (A) (A) (A) (A)
                 (A) (A) (A) (A) (A) (A) (A) (A) (A) (A) (A) (A)
                 (A) (A) (A) (A) (A) (A) (A) (A) (A) (A) (A) (A)
                 (A) (A) (A) (A) (A) (A) (A) (A) (A) (A) (A) (A)
                 (A) (A) (A) (A) (A) (A) (A) (A) (A) (A) (A) (A)
                 (A) (A) (A) (A) (A) (A) (A) (A) (A) (A) (A) (A)
                 (A) (A) (A) (A) (A) (A) (A) (A) (A) (A) (A) (A)
                 (A) (A) (A) (A) (A) (A) (A) (A) (A) (A) (A) (A)
                 (A) (A) (A) (A) (A) (A) (A) (A) (A) (A)
       Virtual   (A) (A) (A) (A) (A) (A) (A) (A) (A) (A) (A) (A)
                 (A) (A) (A) (A) (A) (A) (A) (A) (A) (A) (A) (A)
                 (A) (A) (A) (A) (A) (A) (A) (A) (A) (A) (A) (A)
                 (A) (A) (A) (A) (A) (A) (A) (A) (A) (A) (A) (A)
                 (A) (A) (A) (A) (A) (A) (A) (A) (A) (A) (A) (A)
                 (A) (A) (A) (A) (A) (A) (A) (A) (A) (A) (A) (A)
                 (A) (A) (A) (A) (A) (A) (A) (A) (A) (A) (A) (A)
                 (A) (A) (A) (A) (A) (A) (A) (A) (A) (A) (A) (A)
                 (A) (A) (A) (A) (A) (A) (A) (A) (A) (A) (A) (A)
                 (A) (A) (A) (A) (A) (A) (A) (A) (A) (A) (A) (A)
                 (A) (A) (A) (A) (A) (A) (A) (A) (A) (A) (A) (A)
                 (A) (A) (A) (A) (A) (A) (A) (A) (A) (A) (A) (A)
                 (A) (A) (A) (A) (A) (A) (A) (A) (A) (A) (A) (A)
                 (A) (A) (A) (A) (A) (A) (A) (A) (A) (A) (A) (A)
                 (A) (A) (A) (A) (A) (A) (A) (A) (A) (A) (A) (A)
                 (A) (A) (A) (A) (A) (A) (A) (A) (A) (A) (A) (A)
                 (A) (A) (A) (A) (A) (A) (A) (A) (A) (A) (A) (A)
                 (A) (A) (A) (A) (A) (A) (A) (A) (A) (A) (A) (A)
                 (A) (A) (A) (A) (A) (A) (A) (A) (A) (A) (A) (A)
                 (A) (A) (A) (A) (A) (A) (A) (A) (A) (A) (A) (A)
                 (A) (A) (A) (A) (A) (A) (A) (A) (A) (A) (A) (A)
                 (A) (A) (A) (A) (A) (A) (A) (A) (A) (A) (A) (A)
                 (A) (A) (A) (A) (A) (A) (A) (A) (A) (A) (A) (A)
                 (A) (A) (A) (A) (A) (A) (A) (A) (A) (A) (A) (A)
                 (A) (A) (A) (A) (A) (A) (A) (A) (A) (A) (A) (A)
                 (A) (A) (A) (A) (A) (A) (A) (A) (A) (A) (A) (A)
                 (A) (A) (A) (A) (A) (A) (A) (A) (A) (A) (A) (A)
                 (A) (A) (A) (A) (A) (A) (A) (A) (A) (A) (A) (A)
                 (A) (A) (A) (A) (A) (A) (A) (A) (A) (A) (A) (A)
                 (A) (A) (A) (A) (A) (A) (A) (A) (A) (A) (A) (A)
                 (A) (A) (A) (A) (A) (A) (A) (A) (A) (A) (A) (A)
                 (A) (A) (A) (A) (A) (A) (A) (A) (A) (A) (A) (A)
                 (A) (A) (A) (A) (A) (A) (A) (A) (A) (A) (A) (A)
                 (A) (A) (A) (A) (A) (A) (A) (A) (A) (A) (A) (A)
                 (A) (A) (A) (A) (A) (A) (A) (A) (A) (A) (A) (A)
                 (A) (A) (A) (A) (A) (A) (A) (A) (A) (A) (A) (A)
                 (A) (A) (A) (A) (A) (A) (A) (A) (A) (A) (A) (A)
                 (A) (A) (A) (A) (A) (A) (A) (A) (A) (A) (A) (A)
                 (A) (A) (A) (A) (A) (A) (A) (A) (A) (A) (A) (A)
                 (A) (A) (A) (A) (A) (A) (A) (A) (A) (A) (A) (A)
                 (A) (A) (A) (A) (A) (A) (A) (A) (A) (A) (A) (A)
                 (A)
 The electronic state of the initial guess is 1-A.
 Requested convergence on RMS density matrix=1.00D-08 within 128 cycles.
 Requested convergence on MAX density matrix=1.00D-06.
 Requested convergence on             energy=1.00D-06.
 No special actions if energy rises.
 EnCoef did     3 forward-backward iterations
 EnCoef did   100 forward-backward iterations
 EnCoef did   100 forward-backward iterations
 EnCoef did     3 forward-backward iterations
 EnCoef did     4 forward-backward iterations
 EnCoef did     7 forward-backward iterations
 EnCoef did     3 forward-backward iterations
 EnCoef did     1 forward-backward iterations
 EnCoef did     2 forward-backward iterations
 Restarting incremental Fock formation.
 SCF Done:  E(RB3LYP) =  -5050.47212772     A.U. after   33 cycles
             Convg  =    0.6644D-08             -V/T =  2.0026

 **********************************************************************

            Population analysis using the SCF density.

 **********************************************************************

 Orbital symmetries:
       Occupied  (A) (A) (A) (A) (A) (A) (A) (A) (A) (A) (A) (A)
                 (A) (A) (A) (A) (A) (A) (A) (A) (A) (A) (A) (A)
                 (A) (A) (A) (A) (A) (A) (A) (A) (A) (A) (A) (A)
                 (A) (A) (A) (A) (A) (A) (A) (A) (A) (A) (A) (A)
                 (A) (A) (A) (A) (A) (A) (A) (A) (A) (A) (A) (A)
                 (A) (A) (A) (A) (A) (A) (A) (A) (A) (A) (A) (A)
                 (A) (A) (A) (A) (A) (A) (A) (A) (A) (A) (A) (A)
                 (A) (A) (A) (A) (A) (A) (A) (A) (A) (A) (A) (A)
                 (A) (A) (A) (A) (A) (A) (A) (A) (A) (A) (A) (A)
                 (A) (A) (A) (A) (A) (A) (A) (A) (A) (A) (A) (A)
                 (A) (A) (A) (A) (A) (A) (A) (A) (A) (A)
       Virtual   (A) (A) (A) (A) (A) (A) (A) (A) (A) (A) (A) (A)
                 (A) (A) (A) (A) (A) (A) (A) (A) (A) (A) (A) (A)
                 (A) (A) (A) (A) (A) (A) (A) (A) (A) (A) (A) (A)
                 (A) (A) (A) (A) (A) (A) (A) (A) (A) (A) (A) (A)
                 (A) (A) (A) (A) (A) (A) (A) (A) (A) (A) (A) (A)
                 (A) (A) (A) (A) (A) (A) (A) (A) (A) (A) (A) (A)
                 (A) (A) (A) (A) (A) (A) (A) (A) (A) (A) (A) (A)
                 (A) (A) (A) (A) (A) (A) (A) (A) (A) (A) (A) (A)
                 (A) (A) (A) (A) (A) (A) (A) (A) (A) (A) (A) (A)
                 (A) (A) (A) (A) (A) (A) (A) (A) (A) (A) (A) (A)
                 (A) (A) (A) (A) (A) (A) (A) (A) (A) (A) (A) (A)
                 (A) (A) (A) (A) (A) (A) (A) (A) (A) (A) (A) (A)
                 (A) (A) (A) (A) (A) (A) (A) (A) (A) (A) (A) (A)
                 (A) (A) (A) (A) (A) (A) (A) (A) (A) (A) (A) (A)
                 (A) (A) (A) (A) (A) (A) (A) (A) (A) (A) (A) (A)
                 (A) (A) (A) (A) (A) (A) (A) (A) (A) (A) (A) (A)
                 (A) (A) (A) (A) (A) (A) (A) (A) (A) (A) (A) (A)
                 (A) (A) (A) (A) (A) (A) (A) (A) (A) (A) (A) (A)
                 (A) (A) (A) (A) (A) (A) (A) (A) (A) (A) (A) (A)
                 (A) (A) (A) (A) (A) (A) (A) (A) (A) (A) (A) (A)
                 (A) (A) (A) (A) (A) (A) (A) (A) (A) (A) (A) (A)
                 (A) (A) (A) (A) (A) (A) (A) (A) (A) (A) (A) (A)
                 (A) (A) (A) (A) (A) (A) (A) (A) (A) (A) (A) (A)
                 (A) (A) (A) (A) (A) (A) (A) (A) (A) (A) (A) (A)
                 (A) (A) (A) (A) (A) (A) (A) (A) (A) (A) (A) (A)
                 (A) (A) (A) (A) (A) (A) (A) (A) (A) (A) (A) (A)
                 (A) (A) (A) (A) (A) (A) (A) (A) (A) (A) (A) (A)
                 (A) (A) (A) (A) (A) (A) (A) (A) (A) (A) (A) (A)
                 (A) (A) (A) (A) (A) (A) (A) (A) (A) (A) (A) (A)
                 (A) (A) (A) (A) (A) (A) (A) (A) (A) (A) (A) (A)
                 (A) (A) (A) (A) (A) (A) (A) (A) (A) (A) (A) (A)
                 (A) (A) (A) (A) (A) (A) (A) (A) (A) (A) (A) (A)
                 (A) (A) (A) (A) (A) (A) (A) (A) (A) (A) (A) (A)
                 (A) (A) (A) (A) (A) (A) (A) (A) (A) (A) (A) (A)
                 (A) (A) (A) (A) (A) (A) (A) (A) (A) (A) (A) (A)
                 (A) (A) (A) (A) (A) (A) (A) (A) (A) (A) (A) (A)
                 (A) (A) (A) (A) (A) (A) (A) (A) (A) (A) (A) (A)
                 (A) (A) (A) (A) (A) (A) (A) (A) (A) (A) (A) (A)
                 (A) (A) (A) (A) (A) (A) (A) (A) (A) (A) (A) (A)
                 (A) (A) (A) (A) (A) (A) (A) (A) (A) (A) (A) (A)
                 (A) (A) (A) (A) (A) (A) (A) (A) (A) (A) (A) (A)
                 (A)
 The electronic state is 1-A.
 Alpha  occ. eigenvalues -- -453.90262 -88.99182 -88.97952 -88.95040 -88.89151
 Alpha  occ. eigenvalues --  -57.51490 -52.18485 -52.18268 -52.18089 -19.22155
 Alpha  occ. eigenvalues --  -14.38132 -14.37365 -14.36346 -14.35695 -10.26566
 Alpha  occ. eigenvalues --  -10.25680 -10.25049 -10.24860 -10.24395 -10.23990
 Alpha  occ. eigenvalues --  -10.23374 -10.23147 -10.22967 -10.22717 -10.22618
 Alpha  occ. eigenvalues --  -10.22433 -10.22376 -10.22254 -10.21552 -10.20880
 Alpha  occ. eigenvalues --  -10.19273 -10.19135 -10.18203 -10.15676  -8.05226
 Alpha  occ. eigenvalues --   -8.04365  -8.00352  -7.98275  -7.78617  -6.01656
 Alpha  occ. eigenvalues --   -6.01010  -6.00859  -6.00751  -6.00382  -6.00336
 Alpha  occ. eigenvalues --   -5.96903  -5.96440  -5.95990  -5.94533  -5.93915
 Alpha  occ. eigenvalues --   -5.93804  -5.83255  -5.82081  -5.81600  -2.19881
 Alpha  occ. eigenvalues --   -2.19250  -2.18165  -2.17501  -2.17285  -1.16805
 Alpha  occ. eigenvalues --   -1.13997  -1.08210  -1.02497  -0.99948  -0.96636
 Alpha  occ. eigenvalues --   -0.92020  -0.90655  -0.89219  -0.85529  -0.83850
 Alpha  occ. eigenvalues --   -0.82022  -0.80456  -0.78293  -0.77710  -0.75856
 Alpha  occ. eigenvalues --   -0.74199  -0.72054  -0.68794  -0.68019  -0.66125
 Alpha  occ. eigenvalues --   -0.64560  -0.63888  -0.63729  -0.60127  -0.59115
 Alpha  occ. eigenvalues --   -0.58436  -0.57188  -0.56206  -0.54754  -0.54712
 Alpha  occ. eigenvalues --   -0.54589  -0.52698  -0.52229  -0.50288  -0.50003
 Alpha  occ. eigenvalues --   -0.49850  -0.48806  -0.48518  -0.47997  -0.46323
 Alpha  occ. eigenvalues --   -0.46122  -0.44974  -0.44355  -0.44106  -0.41634
 Alpha  occ. eigenvalues --   -0.41023  -0.40724  -0.39923  -0.39306  -0.38919
 Alpha  occ. eigenvalues --   -0.37944  -0.36571  -0.36365  -0.35023  -0.34580
 Alpha  occ. eigenvalues --   -0.34244  -0.33586  -0.32849  -0.32535  -0.31946
 Alpha  occ. eigenvalues --   -0.30129  -0.28910  -0.28089  -0.26727  -0.25604
 Alpha  occ. eigenvalues --   -0.24943  -0.22754  -0.20453  -0.19008  -0.16974
 Alpha virt. eigenvalues --   -0.13959  -0.12189  -0.10856  -0.10815  -0.04769
 Alpha virt. eigenvalues --   -0.04028  -0.01827  -0.01698  -0.00533  -0.00148
 Alpha virt. eigenvalues --    0.00596   0.00878   0.00954   0.01216   0.01408
 Alpha virt. eigenvalues --    0.01749   0.02297   0.02636   0.02687   0.03175
 Alpha virt. eigenvalues --    0.03607   0.03851   0.04286   0.04361   0.04543
 Alpha virt. eigenvalues --    0.04786   0.05394   0.05502   0.06199   0.06273
 Alpha virt. eigenvalues --    0.06403   0.06661   0.06767   0.07297   0.07345
 Alpha virt. eigenvalues --    0.08275   0.08420   0.08441   0.08749   0.09159
 Alpha virt. eigenvalues --    0.09278   0.09462   0.09639   0.10558   0.10925
 Alpha virt. eigenvalues --    0.11048   0.11155   0.11316   0.11480   0.11713
 Alpha virt. eigenvalues --    0.11984   0.12369   0.12399   0.12777   0.12868
 Alpha virt. eigenvalues --    0.13107   0.13219   0.13263   0.13302   0.13458
 Alpha virt. eigenvalues --    0.13922   0.14110   0.14308   0.14644   0.14896
 Alpha virt. eigenvalues --    0.15286   0.15784   0.15903   0.16144   0.16224
 Alpha virt. eigenvalues --    0.16622   0.17074   0.17219   0.17343   0.17656
 Alpha virt. eigenvalues --    0.17748   0.18133   0.18205   0.18416   0.18742
 Alpha virt. eigenvalues --    0.19483   0.19544   0.19672   0.20378   0.20447
 Alpha virt. eigenvalues --    0.20757   0.20946   0.21059   0.21415   0.21500
 Alpha virt. eigenvalues --    0.22037   0.22262   0.22705   0.22711   0.23470
 Alpha virt. eigenvalues --    0.23548   0.23921   0.24696   0.24742   0.25031
 Alpha virt. eigenvalues --    0.25107   0.25206   0.25407   0.25737   0.25914
 Alpha virt. eigenvalues --    0.26254   0.26728   0.27066   0.27207   0.27377
 Alpha virt. eigenvalues --    0.27451   0.28227   0.28386   0.28647   0.28924
 Alpha virt. eigenvalues --    0.29166   0.29180   0.29835   0.29948   0.30573
 Alpha virt. eigenvalues --    0.30756   0.31153   0.31346   0.31736   0.32306
 Alpha virt. eigenvalues --    0.32564   0.32856   0.33674   0.33946   0.34254
 Alpha virt. eigenvalues --    0.34949   0.35356   0.35698   0.36098   0.36476
 Alpha virt. eigenvalues --    0.36706   0.36771   0.37182   0.37497   0.37991
 Alpha virt. eigenvalues --    0.38373   0.38991   0.39253   0.39479   0.40063
 Alpha virt. eigenvalues --    0.41200   0.41459   0.41623   0.42384   0.43222
 Alpha virt. eigenvalues --    0.43939   0.44795   0.45229   0.45651   0.45757
 Alpha virt. eigenvalues --    0.46951   0.47375   0.48590   0.49029   0.49360
 Alpha virt. eigenvalues --    0.49810   0.50814   0.51044   0.51518   0.51874
 Alpha virt. eigenvalues --    0.52492   0.53478   0.54146   0.54235   0.54677
 Alpha virt. eigenvalues --    0.56660   0.59380   0.60036   0.60511   0.61225
 Alpha virt. eigenvalues --    0.61602   0.62101   0.62693   0.64036   0.64463
 Alpha virt. eigenvalues --    0.64993   0.65547   0.66123   0.67071   0.68087
 Alpha virt. eigenvalues --    0.68523   0.68666   0.69436   0.69987   0.70565
 Alpha virt. eigenvalues --    0.70904   0.71239   0.71922   0.72177   0.72743
 Alpha virt. eigenvalues --    0.72818   0.73146   0.73317   0.73978   0.74215
 Alpha virt. eigenvalues --    0.74663   0.75387   0.75517   0.75976   0.76362
 Alpha virt. eigenvalues --    0.77252   0.77478   0.78040   0.78205   0.78382
 Alpha virt. eigenvalues --    0.78649   0.78687   0.79174   0.79560   0.80360
 Alpha virt. eigenvalues --    0.80945   0.81885   0.82089   0.82466   0.82703
 Alpha virt. eigenvalues --    0.83359   0.83693   0.84181   0.84875   0.85123
 Alpha virt. eigenvalues --    0.85317   0.85487   0.87251   0.88371   0.88727
 Alpha virt. eigenvalues --    0.88777   0.89107   0.90978   0.92350   0.92716
 Alpha virt. eigenvalues --    0.93641   0.94801   0.95080   0.95829   0.96143
 Alpha virt. eigenvalues --    0.97000   0.97103   0.98244   0.99154   0.99830
 Alpha virt. eigenvalues --    1.00479   1.01247   1.01342   1.02575   1.03321
 Alpha virt. eigenvalues --    1.04747   1.05432   1.06472   1.07219   1.08168
 Alpha virt. eigenvalues --    1.09218   1.09608   1.11316   1.12128   1.12723
 Alpha virt. eigenvalues --    1.13504   1.13975   1.14736   1.15073   1.15345
 Alpha virt. eigenvalues --    1.16190   1.16468   1.16807   1.17986   1.19494
 Alpha virt. eigenvalues --    1.19646   1.20393   1.20726   1.22022   1.22198
 Alpha virt. eigenvalues --    1.23750   1.23939   1.24933   1.25926   1.26521
 Alpha virt. eigenvalues --    1.26816   1.27147   1.27519   1.28108   1.28289
 Alpha virt. eigenvalues --    1.30422   1.30849   1.31546   1.31935   1.32506
 Alpha virt. eigenvalues --    1.32850   1.33835   1.34389   1.34661   1.35112
 Alpha virt. eigenvalues --    1.35430   1.35827   1.36103   1.36575   1.38520
 Alpha virt. eigenvalues --    1.38587   1.40033   1.41515   1.42048   1.42751
 Alpha virt. eigenvalues --    1.43652   1.44535   1.45133   1.46711   1.47553
 Alpha virt. eigenvalues --    1.50085   1.50484   1.51515   1.52651   1.54304
 Alpha virt. eigenvalues --    1.57987   1.58483   1.59245   1.59653   1.59961
 Alpha virt. eigenvalues --    1.60702   1.61707   1.62517   1.63456   1.64348
 Alpha virt. eigenvalues --    1.65011   1.65655   1.67367   1.68370   1.69480
 Alpha virt. eigenvalues --    1.70143   1.71702   1.73513   1.74294   1.75278
 Alpha virt. eigenvalues --    1.76550   1.76707   1.77983   1.78618   1.79067
 Alpha virt. eigenvalues --    1.79890   1.80953   1.81985   1.82027   1.83317
 Alpha virt. eigenvalues --    1.84360   1.85526   1.86605   1.90040   1.90587
 Alpha virt. eigenvalues --    1.91746   1.93143   1.93323   1.94397   1.96482
 Alpha virt. eigenvalues --    1.97701   1.97856   1.98556   1.99687   2.00018
 Alpha virt. eigenvalues --    2.01001   2.02277   2.02506   2.03632   2.05121
 Alpha virt. eigenvalues --    2.06280   2.06973   2.07087   2.08918   2.10707
 Alpha virt. eigenvalues --    2.11511   2.13422   2.13861   2.15134   2.16538
 Alpha virt. eigenvalues --    2.17784   2.20004   2.20090   2.22807   2.23352
 Alpha virt. eigenvalues --    2.24606   2.26980   2.27143   2.27718   2.31218
 Alpha virt. eigenvalues --    2.31831   2.33046   2.33762   2.34536   2.37469
 Alpha virt. eigenvalues --    2.38035   2.38083   2.39567   2.40229   2.41601
 Alpha virt. eigenvalues --    2.42265   2.42580   2.43878   2.44108   2.46358
 Alpha virt. eigenvalues --    2.46803   2.48674   2.50779   2.52238   2.53439
 Alpha virt. eigenvalues --    2.54964   2.55305   2.56710   2.57848   2.58207
 Alpha virt. eigenvalues --    2.58789   2.60004   2.60297   2.61759   2.63355
 Alpha virt. eigenvalues --    2.63898   2.66060   2.67084   2.68918   2.69765
 Alpha virt. eigenvalues --    2.70782   2.73245   2.74102   2.74710   2.75285
 Alpha virt. eigenvalues --    2.76533   2.77250   2.79845   2.81200   2.81921
 Alpha virt. eigenvalues --    2.82078   2.83735   2.87105   2.87458   2.88903
 Alpha virt. eigenvalues --    2.90138   2.90206   2.92781   2.94658   2.97552
 Alpha virt. eigenvalues --    2.98730   3.00699   3.04368   3.05808   3.09684
 Alpha virt. eigenvalues --    3.10088   3.14696   3.17274   3.18745   3.20971
 Alpha virt. eigenvalues --    3.24276   3.30371   3.35694   3.42450   3.47357
 Alpha virt. eigenvalues --    3.53431   3.56689   3.57956   3.64860   3.71534
 Alpha virt. eigenvalues --    3.76489   3.88998   3.99018   3.99685   3.99954
 Alpha virt. eigenvalues --    4.06301   4.15014   4.22569   4.31050   4.31615
 Alpha virt. eigenvalues --    4.35058   4.35873   4.38287   4.41352   4.42400
 Alpha virt. eigenvalues --    4.43078   4.43887   4.44533   4.47223   4.48716
 Alpha virt. eigenvalues --    4.49901   4.52927   4.58113   4.60192   4.68514
 Alpha virt. eigenvalues --    4.70273   4.81308   4.83169   4.90447   4.98717
 Alpha virt. eigenvalues --    5.04917   8.59235  85.39528
          Condensed to atoms (all electrons):
              1          2          3          4          5          6
     1  C   11.584859  -6.985638   3.539552   0.156203  -0.223948   0.307490
     2  C   -6.985638  18.454291  -7.937959   0.277794   1.364941   0.143503
     3  C    3.539552  -7.937959  16.142303  -0.415884  -1.144977   0.087204
     4  C    0.156203   0.277794  -0.415884  10.424504  -1.670146  -0.239970
     5  S   -0.223948   1.364941  -1.144977  -1.670146  21.133826  -0.118302
     6  C    0.307490   0.143503   0.087204  -0.239970  -0.118302  10.058383
     7  C   -3.299942   2.904172  -4.204642  -1.865701  -0.128101  -4.832630
     8  O   -0.265638   0.464464  -0.490119   0.048530   0.135879  -0.086753
     9  C    0.562493  -0.703834   0.223958   0.672047  -0.948782   0.945725
    10  C    0.312044  -0.665202   0.290309  -0.876822  -0.160170   0.051734
    11  C   -0.055950   0.005595  -0.235902   0.433789  -0.536532   0.027485
    12  C   -0.039485   0.115746   0.286847  -0.162995   0.356641   0.007564
    13  N    0.000567  -0.004288  -0.001981  -0.005458  -0.030342   0.002652
    14  S   -0.000168   0.000273   0.002756  -0.017848   0.011722   0.003538
    15  N    0.000053  -0.000215   0.000013  -0.020452   0.021335   0.001180
    16  C   -0.002594   0.009609   0.021838   0.095804  -0.043749  -0.002220
    17  C    0.004360  -0.029349  -0.137770   0.018108   0.071172   0.015224
    18  C    0.000362  -0.005152  -0.000383  -0.001393   0.011699   0.001428
    19  S   -0.000014  -0.000159   0.001416  -0.000015  -0.000767  -0.000032
    20  C    0.000006  -0.000029  -0.000982   0.000750   0.001810   0.000154
    21  C    0.000005  -0.000178   0.006592  -0.009321  -0.001217  -0.000041
    22  C   -0.000872   0.003473   0.012714  -0.038890   0.006801   0.000837
    23  Se  -0.001538  -0.004916   0.001498  -0.000674   0.003629  -0.000775
    24  C    0.005084  -0.038139   0.295525  -0.069340  -0.135317  -0.037386
    25  C   -0.020894   0.000163  -0.427893  -0.000243  -0.004673  -0.033739
    26  C    0.059120  -0.682356   0.656065  -0.995078  -0.241794  -0.019690
    27  N   -0.014890  -0.003852   0.020058  -0.018307   0.002658  -0.001174
    28  S    0.036015  -0.107819   0.040726  -0.016053  -0.003943  -0.004296
    29  N    0.116153  -0.061382  -0.128186  -0.116085   0.032906   0.032972
    30  C    0.257189  -1.340343   0.312367  -0.047335  -1.135162  -0.561779
    31  H    0.644156  -0.349589   0.086972  -0.005954  -0.001456  -0.024906
    32  H   -0.310564   0.887195  -0.386779  -0.052849  -0.017239  -0.002470
    33  H    0.018408  -0.075222   0.019842   0.021928  -0.094833   0.250413
    34  H    0.003802  -0.051800   0.003614   0.095323  -0.406373  -0.049090
    35  H    0.000001  -0.000009  -0.000200  -0.000023   0.000393   0.000052
    36  H    0.000007  -0.000016   0.000217  -0.000336  -0.000073  -0.000008
              7          8          9         10         11         12
     1  C   -3.299942  -0.265638   0.562493   0.312044  -0.055950  -0.039485
     2  C    2.904172   0.464464  -0.703834  -0.665202   0.005595   0.115746
     3  C   -4.204642  -0.490119   0.223958   0.290309  -0.235902   0.286847
     4  C   -1.865701   0.048530   0.672047  -0.876822   0.433789  -0.162995
     5  S   -0.128101   0.135879  -0.948782  -0.160170  -0.536532   0.356641
     6  C   -4.832630  -0.086753   0.945725   0.051734   0.027485   0.007564
     7  C   19.538615   0.165315  -2.251556  -0.764979   0.057315  -0.006298
     8  O    0.165315   8.595354  -0.101919   0.000437  -0.002228   0.000944
     9  C   -2.251556  -0.101919  13.218391  -1.850631  -0.058407   2.257609
    10  C   -0.764979   0.000437  -1.850631   9.095598  -0.435570  -1.269581
    11  C    0.057315  -0.002228  -0.058407  -0.435570   8.368259  -1.159756
    12  C   -0.006298   0.000944   2.257609  -1.269581  -1.159756   9.498468
    13  N    0.001374  -0.000005  -0.024591   0.190770  -0.327972   0.601630
    14  S   -0.000644   0.000004   0.047843  -0.047430  -0.010183  -0.520520
    15  N   -0.000158   0.000000   0.068056  -0.312294   0.185662  -0.060033
    16  C    0.007848   0.000011   0.088924   0.467532   0.132427   0.739654
    17  C   -0.036800  -0.000065  -0.507010  -0.955194  -0.708556  -0.174660
    18  C    0.000084  -0.000002  -0.148654  -0.311519  -0.306104  -0.557069
    19  S    0.000197   0.000000  -0.006072   0.056457  -0.037707   0.038449
    20  C   -0.000097  -0.000000  -0.013928  -0.016196  -0.009703  -0.206034
    21  C    0.000893  -0.000000  -0.090513   0.236712   0.153881   0.262943
    22  C    0.004328   0.000001   0.070579   0.475189  -0.151310  -0.964406
    23  Se   0.002114  -0.000010   0.072857  -0.182279   0.132648  -0.092295
    24  C    0.088041   0.000018  -0.031322   0.211490   0.486171  -0.272883
    25  C   -0.251991  -0.000909  -0.627493   0.844799   0.200690   0.068041
    26  C    0.764446  -0.003871  -1.961984  -0.502585  -0.103882  -0.819332
    27  N    0.005944   0.000004  -0.086638   0.101177   0.146119  -0.077761
    28  S   -0.017988  -0.000812  -0.222263   0.057207   0.003431  -0.030463
    29  N   -0.032536   0.000913  -0.139481   0.060575  -0.096336   0.003523
    30  C   -0.285938  -0.034830  -2.769318   1.763187  -0.454522  -1.219905
    31  H   -0.013734  -0.098527  -0.003730   0.007020  -0.001460  -0.000292
    32  H    0.285653   0.037847  -0.002829  -0.068847   0.023683   0.008505
    33  H    0.068243  -0.012408   0.049219   0.000320   0.002786  -0.002113
    34  H    0.044760  -0.001509  -0.238418   0.529298   0.179728  -0.303980
    35  H   -0.000024  -0.000000  -0.002813  -0.000219   0.003398  -0.054424
    36  H    0.000022   0.000000  -0.001849   0.002148   0.001789   0.009931
             13         14         15         16         17         18
     1  C    0.000567  -0.000168   0.000053  -0.002594   0.004360   0.000362
     2  C   -0.004288   0.000273  -0.000215   0.009609  -0.029349  -0.005152
     3  C   -0.001981   0.002756   0.000013   0.021838  -0.137770  -0.000383
     4  C   -0.005458  -0.017848  -0.020452   0.095804   0.018108  -0.001393
     5  S   -0.030342   0.011722   0.021335  -0.043749   0.071172   0.011699
     6  C    0.002652   0.003538   0.001180  -0.002220   0.015224   0.001428
     7  C    0.001374  -0.000644  -0.000158   0.007848  -0.036800   0.000084
     8  O   -0.000005   0.000004   0.000000   0.000011  -0.000065  -0.000002
     9  C   -0.024591   0.047843   0.068056   0.088924  -0.507010  -0.148654
    10  C    0.190770  -0.047430  -0.312294   0.467532  -0.955194  -0.311519
    11  C   -0.327972  -0.010183   0.185662   0.132427  -0.708556  -0.306104
    12  C    0.601630  -0.520520  -0.060033   0.739654  -0.174660  -0.557069
    13  N    7.824346  -0.059871  -0.579525   0.071503  -0.172513  -0.224653
    14  S   -0.059871  16.352890  -0.287172  -0.442711  -0.058876  -0.032782
    15  N   -0.579525  -0.287172   8.435546   0.232194   0.254909  -0.081030
    16  C    0.071503  -0.442711   0.232194   8.487388   0.142979  -0.305314
    17  C   -0.172513  -0.058876   0.254909   0.142979  20.274107   8.371384
    18  C   -0.224653  -0.032782  -0.081030  -0.305314   8.371384  22.392331
    19  S    0.038330   0.071408  -0.093906  -0.327344  -1.853754  -2.516470
    20  C   -0.063894  -0.037037  -0.052349  -0.529528  -0.630207  -0.172652
    21  C    0.015522   0.031027  -0.001210   0.488275  -4.264330  -5.488704
    22  C   -0.003380   0.136416  -0.297257  -3.043359 -12.453579 -12.277290
    23  Se  -0.013735  -0.021606   0.029076   0.171113   1.356578   0.397443
    24  C    0.127483   0.001157  -0.073208   0.773604  -3.035828  -2.713646
    25  C   -0.101386  -0.077880   0.023824  -0.278770  -2.803419  -1.046250
    26  C   -0.032713  -0.009031   0.053525  -0.912632   3.304918   0.705066
    27  N    0.002045  -0.000933  -0.000063   0.063233  -0.363835  -0.080925
    28  S    0.000477   0.000702  -0.000146   0.008083  -0.051549  -0.012958
    29  N   -0.000186  -0.000046   0.000140  -0.008790   0.023624  -0.001577
    30  C    0.003707  -0.019133  -0.019801  -0.069292   0.398437   0.170118
    31  H    0.000009  -0.000001   0.000001  -0.000058   0.000196   0.000013
    32  H   -0.000166   0.000057  -0.000055   0.003443  -0.012991  -0.000598
    33  H    0.000245   0.000104   0.000046  -0.000214   0.000632   0.000080
    34  H    0.052649  -0.002492  -0.055846   0.015290  -0.071468  -0.020701
    35  H   -0.017810  -0.052719  -0.019075   0.009484  -0.116078   0.015928
    36  H   -0.000002  -0.000109   0.001159   0.032702   0.240840   0.528156
             19         20         21         22         23         24
     1  C   -0.000014   0.000006   0.000005  -0.000872  -0.001538   0.005084
     2  C   -0.000159  -0.000029  -0.000178   0.003473  -0.004916  -0.038139
     3  C    0.001416  -0.000982   0.006592   0.012714   0.001498   0.295525
     4  C   -0.000015   0.000750  -0.009321  -0.038890  -0.000674  -0.069340
     5  S   -0.000767   0.001810  -0.001217   0.006801   0.003629  -0.135317
     6  C   -0.000032   0.000154  -0.000041   0.000837  -0.000775  -0.037386
     7  C    0.000197  -0.000097   0.000893   0.004328   0.002114   0.088041
     8  O    0.000000  -0.000000  -0.000000   0.000001  -0.000010   0.000018
     9  C   -0.006072  -0.013928  -0.090513   0.070579   0.072857  -0.031322
    10  C    0.056457  -0.016196   0.236712   0.475189  -0.182279   0.211490
    11  C   -0.037707  -0.009703   0.153881  -0.151310   0.132648   0.486171
    12  C    0.038449  -0.206034   0.262943  -0.964406  -0.092295  -0.272883
    13  N    0.038330  -0.063894   0.015522  -0.003380  -0.013735   0.127483
    14  S    0.071408  -0.037037   0.031027   0.136416  -0.021606   0.001157
    15  N   -0.093906  -0.052349  -0.001210  -0.297257   0.029076  -0.073208
    16  C   -0.327344  -0.529528   0.488275  -3.043359   0.171113   0.773604
    17  C   -1.853754  -0.630207  -4.264330 -12.453579   1.356578  -3.035828
    18  C   -2.516470  -0.172652  -5.488704 -12.277290   0.397443  -2.713646
    19  S   17.236851   0.071685   1.277889   1.699582  -0.094494   0.167994
    20  C    0.071685   6.374713  -0.376881   1.450502   0.071500  -0.085007
    21  C    1.277889  -0.376881  24.837650  -9.647026  -1.948064  -0.253117
    22  C    1.699582   1.450502  -9.647026  38.810440  -0.355016   1.771629
    23  Se  -0.094494   0.071500  -1.948064  -0.355016  35.045692   0.609526
    24  C    0.167994  -0.085007  -0.253117   1.771629   0.609526  10.155971
    25  C    0.357332  -0.058618   2.892865   0.982010  -1.315720  -2.029193
    26  C   -0.200960   0.072989  -1.867503   0.223214   0.598799  -1.091245
    27  N    0.022640  -0.000808   0.235774  -0.079598  -0.148538   0.245977
    28  S    0.001949  -0.000168   0.066090  -0.015290  -0.010649   0.066938
    29  N   -0.000386  -0.000004  -0.001835  -0.001969  -0.015762  -0.033622
    30  C    0.012004   0.001705  -0.078363  -0.369906  -0.081267   0.453575
    31  H    0.000000   0.000000  -0.000004  -0.000034   0.000062  -0.000152
    32  H    0.000010  -0.000035   0.000902   0.002436  -0.001853   0.015740
    33  H    0.000000   0.000005   0.000002   0.000020   0.000008  -0.000899
    34  H    0.003216  -0.006474   0.005269  -0.002691  -0.010677   0.088056
    35  H   -0.086122   0.446887  -0.006830   0.153709   0.001693  -0.000018
    36  H   -0.082386  -0.021365   0.853103  -1.191060  -0.070134  -0.095559
             25         26         27         28         29         30
     1  C   -0.020894   0.059120  -0.014890   0.036015   0.116153   0.257189
     2  C    0.000163  -0.682356  -0.003852  -0.107819  -0.061382  -1.340343
     3  C   -0.427893   0.656065   0.020058   0.040726  -0.128186   0.312367
     4  C   -0.000243  -0.995078  -0.018307  -0.016053  -0.116085  -0.047335
     5  S   -0.004673  -0.241794   0.002658  -0.003943   0.032906  -1.135162
     6  C   -0.033739  -0.019690  -0.001174  -0.004296   0.032972  -0.561779
     7  C   -0.251991   0.764446   0.005944  -0.017988  -0.032536  -0.285938
     8  O   -0.000909  -0.003871   0.000004  -0.000812   0.000913  -0.034830
     9  C   -0.627493  -1.961984  -0.086638  -0.222263  -0.139481  -2.769318
    10  C    0.844799  -0.502585   0.101177   0.057207   0.060575   1.763187
    11  C    0.200690  -0.103882   0.146119   0.003431  -0.096336  -0.454522
    12  C    0.068041  -0.819332  -0.077761  -0.030463   0.003523  -1.219905
    13  N   -0.101386  -0.032713   0.002045   0.000477  -0.000186   0.003707
    14  S   -0.077880  -0.009031  -0.000933   0.000702  -0.000046  -0.019133
    15  N    0.023824   0.053525  -0.000063  -0.000146   0.000140  -0.019801
    16  C   -0.278770  -0.912632   0.063233   0.008083  -0.008790  -0.069292
    17  C   -2.803419   3.304918  -0.363835  -0.051549   0.023624   0.398437
    18  C   -1.046250   0.705066  -0.080925  -0.012958  -0.001577   0.170118
    19  S    0.357332  -0.200960   0.022640   0.001949  -0.000386   0.012004
    20  C   -0.058618   0.072989  -0.000808  -0.000168  -0.000004   0.001705
    21  C    2.892865  -1.867503   0.235774   0.066090  -0.001835  -0.078363
    22  C    0.982010   0.223214  -0.079598  -0.015290  -0.001969  -0.369906
    23  Se  -1.315720   0.598799  -0.148538  -0.010649  -0.015762  -0.081267
    24  C   -2.029193  -1.091245   0.245977   0.066938  -0.033622   0.453575
    25  C   12.620224  -2.674881  -0.038442  -0.053547  -0.038692   0.123036
    26  C   -2.674881  12.357133  -0.060614  -0.023920  -0.015146  -0.477982
    27  N   -0.038442  -0.060614   7.553818  -0.050703  -0.169181  -0.003709
    28  S   -0.053547  -0.023920  -0.050703  15.924461   0.157265  -0.079205
    29  N   -0.038692  -0.015146  -0.169181   0.157265   7.560391   0.272626
    30  C    0.123036  -0.477982  -0.003709  -0.079205   0.272626  11.500933
    31  H    0.000881  -0.001778  -0.000185   0.002806  -0.001628   0.017977
    32  H   -0.019076   0.032836   0.013887  -0.031470  -0.128658  -0.150711
    33  H    0.001472   0.005762   0.000013   0.000138  -0.000024   0.000688
    34  H    0.003668   0.047729   0.000584   0.002386  -0.009450   0.238907
    35  H   -0.002417   0.007450   0.000091  -0.000000   0.000001  -0.000463
    36  H    0.034289  -0.033747   0.001687   0.002514  -0.000033  -0.001786
             31         32         33         34         35         36
     1  C    0.644156  -0.310564   0.018408   0.003802   0.000001   0.000007
     2  C   -0.349589   0.887195  -0.075222  -0.051800  -0.000009  -0.000016
     3  C    0.086972  -0.386779   0.019842   0.003614  -0.000200   0.000217
     4  C   -0.005954  -0.052849   0.021928   0.095323  -0.000023  -0.000336
     5  S   -0.001456  -0.017239  -0.094833  -0.406373   0.000393  -0.000073
     6  C   -0.024906  -0.002470   0.250413  -0.049090   0.000052  -0.000008
     7  C   -0.013734   0.285653   0.068243   0.044760  -0.000024   0.000022
     8  O   -0.098527   0.037847  -0.012408  -0.001509  -0.000000   0.000000
     9  C   -0.003730  -0.002829   0.049219  -0.238418  -0.002813  -0.001849
    10  C    0.007020  -0.068847   0.000320   0.529298  -0.000219   0.002148
    11  C   -0.001460   0.023683   0.002786   0.179728   0.003398   0.001789
    12  C   -0.000292   0.008505  -0.002113  -0.303980  -0.054424   0.009931
    13  N    0.000009  -0.000166   0.000245   0.052649  -0.017810  -0.000002
    14  S   -0.000001   0.000057   0.000104  -0.002492  -0.052719  -0.000109
    15  N    0.000001  -0.000055   0.000046  -0.055846  -0.019075   0.001159
    16  C   -0.000058   0.003443  -0.000214   0.015290   0.009484   0.032702
    17  C    0.000196  -0.012991   0.000632  -0.071468  -0.116078   0.240840
    18  C    0.000013  -0.000598   0.000080  -0.020701   0.015928   0.528156
    19  S    0.000000   0.000010   0.000000   0.003216  -0.086122  -0.082386
    20  C    0.000000  -0.000035   0.000005  -0.006474   0.446887  -0.021365
    21  C   -0.000004   0.000902   0.000002   0.005269  -0.006830   0.853103
    22  C   -0.000034   0.002436   0.000020  -0.002691   0.153709  -1.191060
    23  Se   0.000062  -0.001853   0.000008  -0.010677   0.001693  -0.070134
    24  C   -0.000152   0.015740  -0.000899   0.088056  -0.000018  -0.095559
    25  C    0.000881  -0.019076   0.001472   0.003668  -0.002417   0.034289
    26  C   -0.001778   0.032836   0.005762   0.047729   0.007450  -0.033747
    27  N   -0.000185   0.013887   0.000013   0.000584   0.000091   0.001687
    28  S    0.002806  -0.031470   0.000138   0.002386  -0.000000   0.002514
    29  N   -0.001628  -0.128658  -0.000024  -0.009450   0.000001  -0.000033
    30  C    0.017977  -0.150711   0.000688   0.238907  -0.000463  -0.001786
    31  H    0.621182  -0.018947   0.000150   0.000159   0.000000   0.000000
    32  H   -0.018947   0.614134  -0.001099   0.000101  -0.000006   0.000021
    33  H    0.000150  -0.001099   0.553654   0.000489   0.000002  -0.000000
    34  H    0.000159   0.000101   0.000489   0.779263  -0.001327   0.000141
    35  H    0.000000  -0.000006   0.000002  -0.001327   0.511674  -0.001539
    36  H    0.000000   0.000021  -0.000000   0.000141  -0.001539   0.639126
 Mulliken atomic charges:
              1
     1  C   -0.385793
     2  C    0.416227
     3  C   -0.538734
     4  C    0.402395
     5  S   -0.107516
     6  C    0.077724
     7  C    0.054393
     8  O   -0.350116
     9  C    0.516337
    10  C   -0.334482
    11  C    0.147221
    12  C   -0.262212
    13  N   -0.268839
    14  S    1.039295
    15  N   -0.352924
    16  C   -0.096361
    17  C   -0.039637
    18  C   -0.288267
    19  S    0.243178
    20  C   -0.210710
    21  C   -1.330258
    22  C    1.089053
    23  Se  -0.124234
    24  C    0.431901
    25  C   -0.247168
    26  C   -0.156327
    27  N   -0.215556
    28  S    0.362052
    29  N   -0.260095
    30  C   -0.325705
    31  H    0.140850
    32  H    0.280794
    33  H    0.192141
    34  H    0.137864
    35  H    0.211354
    36  H    0.152154
 Sum of Mulliken atomic charges =  -0.00000
 Mulliken charges with hydrogens summed into heavy atoms:
              1
     1  C   -0.244943
     2  C    0.697020
     3  C   -0.538734
     4  C    0.402395
     5  S   -0.107516
     6  C    0.269866
     7  C    0.054393
     8  O   -0.350116
     9  C    0.516337
    10  C   -0.196618
    11  C    0.147221
    12  C   -0.262212
    13  N   -0.268839
    14  S    1.039295
    15  N   -0.352924
    16  C   -0.096361
    17  C   -0.039637
    18  C   -0.288267
    19  S    0.243178
    20  C    0.000645
    21  C   -1.178104
    22  C    1.089053
    23  Se  -0.124234
    24  C    0.431901
    25  C   -0.247168
    26  C   -0.156327
    27  N   -0.215556
    28  S    0.362052
    29  N   -0.260095
    30  C   -0.325705
 Sum of Mulliken charges with hydrogens summed into heavy atoms =  -0.00000
 Electronic spatial extent (au):  <R**2>=          16634.2174
 Charge=             -0.0000 electrons
 Dipole moment (field-independent basis, Debye):
    X=             -1.9333    Y=              2.6637    Z=              0.0416  Tot=              3.2916
 Quadrupole moment (field-independent basis, Debye-Ang):
   XX=           -211.0530   YY=           -197.6358   ZZ=           -207.7703
   XY=             -4.2348   XZ=              0.1497   YZ=             -0.1919
 Traceless Quadrupole moment (field-independent basis, Debye-Ang):
   XX=             -5.5666   YY=              7.8506   ZZ=             -2.2840
   XY=             -4.2348   XZ=              0.1497   YZ=             -0.1919
 Octapole moment (field-independent basis, Debye-Ang**2):
  XXX=            -37.5458  YYY=            -37.2939  ZZZ=             -0.1726  XYY=            -12.8058
[...]
    24  C    8.768709   7.434254   6.886823   5.833692   6.816608
    25  C    7.421525   6.104432   5.487722   4.421928   5.462695
    26  C    6.358415   5.007308   4.663077   3.881071   5.294681
    27  N    6.786669   5.441260   5.430071   4.904841   6.461736
    28  S    5.628311   4.354600   4.745342   4.657703   6.395469
    29  N    4.267703   2.925663   3.114132   3.057357   4.821124
    30  C    4.937419   3.598689   3.210359   2.556002   4.153912
    31  H    1.080498   2.229841   3.316009   4.705928   5.603558
    32  H    2.175061   1.077569   2.274280   3.228328   4.797986
    33  H    4.237593   4.498603   3.430741   3.627442   2.475472
    34  H    6.345050   5.374986   4.102041   2.714590   2.585289
    35  H   14.690917  13.405705  12.613848  11.347664  11.711013
    36  H   13.296026  11.939935  11.660109  10.738690  11.794330
                    6          7          8          9         10
     6  C    0.000000
     7  C    1.364524   0.000000
     8  O    2.497023   1.371157   0.000000
     9  C    3.979160   3.780682   4.910854   0.000000
    10  C    4.633778   4.788246   6.041222   1.391772   0.000000
    11  C    6.051328   6.155372   7.364075   2.492196   1.417843
    12  C    6.937352   7.253811   8.531895   3.801966   2.500117
    13  N    6.791048   7.350204   8.692493   4.358281   2.966596
    14  S    8.368070   8.980025  10.327680   5.957741   4.569766
    15  N    9.163512   9.565406  10.858349   6.127783   4.836461
    16  C    8.373539   8.625496   9.869873   5.024439   3.837563
    17  C    8.994504   9.038536  10.184660   5.277122   4.361786
    18  C   10.379769  10.374655  11.483144   6.596863   5.752547
    19  S   11.974924  12.043507  13.181832   8.278770   7.344012
    20  C   12.369610  12.602295  13.818450   8.922792   7.817936
    21  C   12.260473  12.068768  13.047994   8.325341   7.728195
    22  C   10.945004  10.765159  11.762759   7.014047   6.417677
    23  Se   9.634680   9.271104  10.151915   5.657461   5.404833
    24  C    8.287853   8.148703   9.200938   4.376940   3.775517
    25  C    6.890907   6.737311   7.803383   2.964870   2.476547
    26  C    6.454201   6.032427   6.932548   2.525193   2.776375
    27  N    7.457930   6.853366   7.573579   3.688495   4.105328
    28  S    7.023506   6.159164   6.617999   3.842238   4.740806
    29  N    5.378280   4.538060   5.103932   2.496314   3.675941
    30  C    5.114862   4.595959   5.474262   1.447302   2.392529
    31  H    4.486442   3.177430   2.080674   5.756757   7.082152
    32  H    4.564043   3.328942   3.325755   3.683603   5.072627
    33  H    1.080251   2.224613   2.988520   4.994998   5.517222
    34  H    4.300327   4.761929   6.100424   2.147000   1.085796
    35  H   13.416005  13.670123  14.892138   9.999334   8.883370
    36  H   13.242820  12.999996  13.936618   9.286265   8.749235
                   11         12         13         14         15
    11  C    0.000000
    12  C    1.440254   0.000000
    13  N    2.465522   1.334210   0.000000
    14  S    3.820001   2.406535   1.643073   0.000000
    15  N    3.680877   2.337087   2.511158   1.651380   0.000000
    16  C    2.532641   1.458706   2.328220   2.403059   1.332826
    17  C    2.944013   2.515533   3.665549   3.822699   2.473995
    18  C    4.337258   3.873855   4.917993   4.737332   3.148724
    19  S    5.929072   5.211990   6.016480   5.379298   3.739400
    20  C    6.455381   5.436618   5.918793   4.890772   3.419854
    21  C    6.362982   6.156408   7.266234   7.072417   5.448252
    22  C    5.062495   4.949149   6.125698   6.127943   4.575486
    23  Se   4.264649   4.727270   6.051045   6.567644   5.292266
    24  C    2.473513   2.798972   4.125807   4.758580   3.687222
    25  C    1.414786   2.421892   3.687205   4.771106   4.154682
    26  C    2.405146   3.711980   4.865820   6.111320   5.586202
    27  N    3.660138   4.852055   6.082647   7.203194   6.462514
    28  S    4.755239   6.108000   7.218025   8.511069   7.949131
    29  N    4.147641   5.586391   6.487451   7.957734   7.714332
    30  C    2.817166   4.257418   5.147211   6.618762   6.430269
    31  H    8.229606   9.553414   9.960036  11.599239  11.881825
    32  H    5.968257   7.379451   8.037254   9.624414   9.642515
    33  H    6.928478   7.693982   7.394829   8.907079   9.840819
    34  H    2.123459   2.657979   2.592491   4.231057   4.867001
    35  H    7.528244   6.479153   6.883259   5.732194   4.372119
    36  H    7.400324   7.227446   8.336427   8.105134   6.468976
                   16         17         18         19         20
    16  C    0.000000
    17  C    1.441930   0.000000
    18  C    2.592184   1.408272   0.000000
    19  S    3.775811   3.004991   1.743027   0.000000
    20  C    3.997810   3.777235   2.905505   1.560197   0.000000
    21  C    4.948985   3.641003   2.365029   2.318821   3.856268
    22  C    3.856664   2.460336   1.447272   2.384134   3.888216
    23  Se   4.168295   2.818337   2.790518   4.258381   5.650124
    24  C    2.419845   1.408509   2.348201   4.090770   5.094249
    25  C    2.829668   2.486400   3.690654   5.414664   6.260075
    26  C    4.263331   3.803636   4.839653   6.582309   7.568204
    27  N    5.132795   4.337272   5.062025   6.750477   7.938945
    28  S    6.617714   5.951184   6.720677   8.406986   9.593388
    29  N    6.431502   6.120291   7.158254   8.898954   9.891751
    30  C    5.174732   5.020669   6.180876   7.919464   8.792834
    31  H   10.756129  10.804877  11.984311  13.723342  14.556438
    32  H    8.425168   8.288947   9.392276  11.134988  12.064668
    33  H    9.147791   9.866603  11.264850  12.818239  13.125348
    34  H    4.112435   4.932694   6.340786   7.817436   8.092656
    35  H    5.053587   4.848057   3.897201   2.328157   1.078685
    36  H    6.016561   4.712334   3.427505   3.086054   4.516674
                   21         22         23         24         25
    21  C    0.000000
    22  C    1.315758   0.000000
    23  Se   3.048211   1.979834   0.000000
    24  C    3.974745   2.659046   1.928959   0.000000
    25  C    5.371749   4.057184   2.933474   1.412233   0.000000
    26  C    6.127313   4.863296   3.239362   2.498163   1.433984
    27  N    5.828391   4.691671   2.780940   2.928799   2.435231
    28  S    7.384854   6.305057   4.350124   4.548776   3.804257
    29  N    8.269741   7.063299   5.248421   4.823501   3.674177
    30  C    7.580724   6.307461   4.689859   3.837510   2.534275
    31  H   13.236508  12.015289  10.217733   9.638936   8.325968
    32  H   10.538711   9.335726   7.509538   7.046883   5.806920
    33  H   13.212319  11.897037  10.648741   9.238599   7.857190
    34  H    8.461157   7.170646   6.344100   4.596508   3.418247
    35  H    4.424701   4.710524   6.570509   6.145052   7.333225
    36  H    1.072066   2.337973   3.811866   4.978443   6.354788
                   26         27         28         29         30
    26  C    0.000000
    27  N    1.334010   0.000000
    28  S    2.402200   1.658858   0.000000
    29  N    2.327007   2.520552   1.645620   0.000000
    30  C    1.458530   2.348887   2.416595   1.341814   0.000000
    31  H    7.182119   7.467433   6.157258   4.972962   5.806448
    32  H    4.556237   4.751326   3.476634   2.280181   3.284208
    33  H    7.494977   8.524961   8.101787   6.456566   6.178607
    34  H    3.859653   5.190217   5.786159   4.610605   3.395403
    35  H    8.629004   8.956468  10.614270  10.954637   9.866896
    36  H    7.004336   6.564128   8.042235   9.057032   8.462845
                   31         32         33         34         35
    31  H    0.000000
    32  H    2.718816   0.000000
    33  H    5.067793   5.540110   0.000000
    34  H    7.416046   5.713016   5.036709   0.000000
    35  H   15.634424  13.136310  14.154517   9.128931   0.000000
    36  H   14.023330  11.310128  14.210013   9.507881   4.884133
                   36
    36  H    0.000000
 Stoichiometry    C20H6N4OS4Se
 Framework group  C1[X(C20H6N4OS4Se)]
 Deg. of freedom   102
 Full point group                 C1      NOp   1
 Largest Abelian subgroup         C1      NOp   1
 Largest concise Abelian subgroup C1      NOp   1
                         Standard orientation:                         
 ---------------------------------------------------------------------
 Center     Atomic      Atomic             Coordinates (Angstroms)
 Number     Number       Type             X           Y           Z
 ---------------------------------------------------------------------
      1          6           0        6.857053   -1.312779    0.143233
      2          6           0        5.505059   -1.423737    0.130654
      3          6           0        4.989087   -0.070951    0.035135
      4          6           0        3.818029    0.680269   -0.020483
      5         16           0        4.253867    2.398770   -0.124614
      6          6           0        5.965196    2.099498   -0.084645
      7          6           0        6.160927    0.751700   -0.000643
      8          8           0        7.303743   -0.003210    0.063804
      9          6           0        2.404398    0.325087   -0.007818
     10          6           0        1.403244    1.291805    0.005457
     11          6           0        0.011468    1.021218    0.010243
     12          6           0       -0.971311    2.074009    0.020552
     13          7           0       -0.702881    3.380906    0.029700
     14         16           0       -2.139756    4.177776    0.038284
     15          7           0       -3.164080    2.882496    0.030179
     16          6           0       -2.401928    1.789127    0.020549
     17          6           0       -2.871730    0.425918    0.010035
     18          6           0       -4.178862   -0.098122    0.005755
     19         16           0       -5.874336    0.306238    0.007530
     20          6           0       -6.399715    1.775256    0.020751
     21          6           0       -5.591090   -1.995142   -0.011255
     22          6           0       -4.358753   -1.534115   -0.006929
     23         34           0       -2.566738   -2.375772   -0.013101
     24          6           0       -1.879292   -0.573529    0.001666
     25          6           0       -0.493749   -0.300269    0.003335
     26          6           0        0.500409   -1.333653   -0.005371
     27          7           0        0.202195   -2.633824   -0.019808
     28         16           0        1.650509   -3.442292   -0.043764
     29          7           0        2.677064   -2.156201   -0.028868
     30          6           0        1.929484   -1.042073   -0.011343
     31          1           0        7.643594   -2.051337    0.201201
     32          1           0        4.940246   -2.340120    0.179473
     33          1           0        6.675466    2.912401   -0.125233
     34          1           0        1.672963    2.343521    0.015389
     35          1           0       -7.450232    2.019964    0.011045
     36          1           0       -6.361056   -2.741090   -0.017511
 ---------------------------------------------------------------------
 Rotational constants (GHZ):      0.2073245      0.0654266      0.0497460
 Standard basis: 6-31++G(d,p) (6D, 7F)
 There are   637 symmetry adapted basis functions of A   symmetry.
 Integral buffers will be    131072 words long.
 Raffenetti 2 integral format.
 Two-electron integral symmetry is turned on.
   637 basis functions,  1159 primitive gaussians,   637 cartesian basis functions
   130 alpha electrons      130 beta electrons
       nuclear repulsion energy      3912.9312604713 Hartrees.
 NAtoms=   36 NActive=   36 NUniq=   36 SFac= 1.00D+00 NAtFMM=   60 NAOKFM=F Big=F
 One-electron integrals computed using PRISM.
 NBasis=   637 RedAO= T  NBF=   637
 NBsUse=   623 1.00D-06 NBFU=   623
 Initial guess read from the read-write file.
 B after Tr=     0.000000    0.000000   -0.000000
         Rot=    1.000000    0.000000   -0.000000    0.000000 Ang=   0.00 deg.
 Initial guess orbital symmetries:
       Occupied  (A) (A) (A) (A) (A) (A) (A) (A) (A) (A) (A) (A)
                 (A) (A) (A) (A) (A) (A) (A) (A) (A) (A) (A) (A)
                 (A) (A) (A) (A) (A) (A) (A) (A) (A) (A) (A) (A)
                 (A) (A) (A) (A) (A) (A) (A) (A) (A) (A) (A) (A)
                 (A) (A) (A) (A) (A) (A) (A) (A) (A) (A) (A) (A)
                 (A) (A) (A) (A) (A) (A) (A) (A) (A) (A) (A) (A)
                 (A) (A) (A) (A) (A) (A) (A) (A) (A) (A) (A) (A)
                 (A) (A) (A) (A) (A) (A) (A) (A) (A) (A) (A) (A)
                 (A) (A) (A) (A) (A) (A) (A) (A) (A) (A) (A) (A)
                 (A) (A) (A) (A) (A) (A) (A) (A) (A) (A) (A) (A)
                 (A) (A) (A) (A) (A) (A) (A) (A) (A) (A)
       Virtual   (A) (A) (A) (A) (A) (A) (A) (A) (A) (A) (A) (A)
                 (A) (A) (A) (A) (A) (A) (A) (A) (A) (A) (A) (A)
                 (A) (A) (A) (A) (A) (A) (A) (A) (A) (A) (A) (A)
                 (A) (A) (A) (A) (A) (A) (A) (A) (A) (A) (A) (A)
                 (A) (A) (A) (A) (A) (A) (A) (A) (A) (A) (A) (A)
                 (A) (A) (A) (A) (A) (A) (A) (A) (A) (A) (A) (A)
                 (A) (A) (A) (A) (A) (A) (A) (A) (A) (A) (A) (A)
                 (A) (A) (A) (A) (A) (A) (A) (A) (A) (A) (A) (A)
                 (A) (A) (A) (A) (A) (A) (A) (A) (A) (A) (A) (A)
                 (A) (A) (A) (A) (A) (A) (A) (A) (A) (A) (A) (A)
                 (A) (A) (A) (A) (A) (A) (A) (A) (A) (A) (A) (A)
                 (A) (A) (A) (A) (A) (A) (A) (A) (A) (A) (A) (A)
                 (A) (A) (A) (A) (A) (A) (A) (A) (A) (A) (A) (A)
                 (A) (A) (A) (A) (A) (A) (A) (A) (A) (A) (A) (A)
                 (A) (A) (A) (A) (A) (A) (A) (A) (A) (A) (A) (A)
                 (A) (A) (A) (A) (A) (A) (A) (A) (A) (A) (A) (A)
                 (A) (A) (A) (A) (A) (A) (A) (A) (A) (A) (A) (A)
                 (A) (A) (A) (A) (A) (A) (A) (A) (A) (A) (A) (A)
                 (A) (A) (A) (A) (A) (A) (A) (A) (A) (A) (A) (A)
                 (A) (A) (A) (A) (A) (A) (A) (A) (A) (A) (A) (A)
                 (A) (A) (A) (A) (A) (A) (A) (A) (A) (A) (A) (A)
                 (A) (A) (A) (A) (A) (A) (A) (A) (A) (A) (A) (A)
                 (A) (A) (A) (A) (A) (A) (A) (A) (A) (A) (A) (A)
                 (A) (A) (A) (A) (A) (A) (A) (A) (A) (A) (A) (A)
                 (A) (A) (A) (A) (A) (A) (A) (A) (A) (A) (A) (A)
                 (A) (A) (A) (A) (A) (A) (A) (A) (A) (A) (A) (A)
                 (A) (A) (A) (A) (A) (A) (A) (A) (A) (A) (A) (A)
                 (A) (A) (A) (A) (A) (A) (A) (A) (A) (A) (A) (A)
                 (A) (A) (A) (A) (A) (A) (A) (A) (A) (A) (A) (A)
                 (A) (A) (A) (A) (A) (A) (A) (A) (A) (A) (A) (A)
                 (A) (A) (A) (A) (A) (A) (A) (A) (A) (A) (A) (A)
                 (A) (A) (A) (A) (A) (A) (A) (A) (A) (A) (A) (A)
                 (A) (A) (A) (A) (A) (A) (A) (A) (A) (A) (A) (A)
                 (A) (A) (A) (A) (A) (A) (A) (A) (A) (A) (A) (A)
                 (A) (A) (A) (A) (A) (A) (A) (A) (A) (A) (A) (A)
                 (A) (A) (A) (A) (A) (A) (A) (A) (A) (A) (A) (A)
                 (A) (A) (A) (A) (A) (A) (A) (A) (A) (A) (A) (A)
                 (A) (A) (A) (A) (A) (A) (A) (A) (A) (A) (A) (A)
                 (A) (A) (A) (A) (A) (A) (A) (A) (A) (A) (A) (A)
                 (A) (A) (A) (A) (A) (A) (A) (A) (A) (A) (A) (A)
                 (A) (A) (A) (A) (A) (A) (A) (A) (A) (A) (A) (A)
                 (A)
 Harris functional with IExCor=  402 diagonalized for initial guess.
 ExpMin= 3.00D-02 ExpMax= 5.61D+05 ExpMxC= 5.42D+03 IAcc=3 IRadAn=         5 AccDes= 0.00D+00
 HarFok:  IExCor=  402 AccDes= 0.00D+00 IRadAn=         5 IDoV= 1
 ScaDFX=  1.000000  1.000000  1.000000  1.000000
 FoFCou: FMM=F IPFlag=           0 FMFlag=      100000 FMFlg1=           0
         NFxFlg=           0 DoJE=T BraDBF=F KetDBF=T FulRan=T
         Omega=  0.000000  0.000000  1.000000  0.000000  0.000000 ICntrl=     500 IOpCl=  0
         NMat0=    1 NMatS0=    1 NMatT0=    0 NMatD0=    1 NMtDS0=    0 NMtDT0=    0
         I1Cent=           4 NGrid=           0.
 Petite list used in FoFCou.
 Requested convergence on RMS density matrix=1.00D-08 within 128 cycles.
 Requested convergence on MAX density matrix=1.00D-06.
 Requested convergence on             energy=1.00D-06.
 No special actions if energy rises.
 SCF Done:  E(RB3LYP) =  -5051.87724569     A.U. after   17 cycles
             Convg  =    0.5776D-08             -V/T =  2.0052
 Calling FoFJK, ICntrl=      2127 FMM=F ISym2X=0 I1Cent= 0 IOpClX= 0 NMat=1 NMatS=1 NMatT=0.
 ***** Axes restored to original set *****
 -------------------------------------------------------------------
 Center     Atomic                   Forces (Hartrees/Bohr)
 Number     Number              X              Y              Z
 -------------------------------------------------------------------
      1        6           0.000911697    0.001912879    0.000070826
      2        6          -0.001179291    0.001455069   -0.000312099
      3        6          -0.003105905    0.000921333   -0.000033633
      4        6           0.002845243   -0.000584339    0.000362605
      5       16          -0.001420428    0.000117698    0.000120397
      6        6          -0.001694440   -0.001642291   -0.000138583
      7        6           0.001194693    0.001676552   -0.000048258
      8        8           0.000966383   -0.002256799   -0.000007192
      9        6           0.000349782   -0.000871656   -0.000374504
     10        6          -0.000155976    0.001415379   -0.000196403
     11        6           0.000535862   -0.000730481   -0.000096999
     12        6           0.003729289   -0.001399622   -0.000072873
     13        7          -0.002717856    0.002043614    0.000065660
     14       16          -0.000602857   -0.003615536    0.000038464
     15        7          -0.000069277    0.000283985   -0.000001814
     16        6          -0.000885771    0.001539603   -0.000000178
     17        6          -0.004004975    0.002096565    0.000171975
     18        6           0.005479677   -0.008188964   -0.000256953
     19       16          -0.025443435   -0.000540528    0.000976080
     20        6           0.015062161    0.009041483   -0.000405907
     21        6           0.008425049   -0.003245073   -0.000097984
     22        6          -0.014922424    0.008026575    0.000354605
     23       34           0.012557824   -0.004013188   -0.000438560
     24        6          -0.000352209    0.002896962    0.000086309
     25        6           0.000824100    0.000819381    0.000008292
     26        6          -0.001845939   -0.000222998    0.000083976
     27        7          -0.001616878    0.007237895    0.000481106
     28       16          -0.001968961   -0.003309462   -0.000624459
     29        7           0.009385926   -0.004842845    0.000471765
     30        6          -0.004110669   -0.002331208   -0.000031364
     31        1           0.000433360   -0.000504066   -0.000000342
     32        1           0.000956619    0.001971912    0.000177074
     33        1          -0.000487059   -0.000361863   -0.000010782
     34        1          -0.000575590   -0.000318039    0.000014160
     35        1           0.003752569   -0.005043493   -0.000273055
     36        1          -0.000250293    0.000565569   -0.000061355
 -------------------------------------------------------------------
 Cartesian Forces:  Max     0.025443435 RMS     0.004276135

 GradGradGradGradGradGradGradGradGradGradGradGradGradGradGradGradGradGrad
 Berny optimization.
 Using GEDIIS/GDIIS optimizer.
 NTrRot=    -1 NTRed=   218 NAtoms=    36 NSkip=   116 IsLin=F
 Error in internal coordinate system.
 Error termination via Lnk1e in /opt/gaussian/g09/l103.exe at Mon Dec 30 03:11:53 2013.
 Job cpu time:  2 days  7 hours 32 minutes 16.4 seconds.
 File lengths (MBytes):  RWF=    246 Int=      0 D2E=      0 Chk=     26 Scr=      1
