 Entering Gaussian System, Link 0=g09
 Initial command:
 /opt/gaussian/g09/l1.exe /panfs/panfs.cluster/home/shuo/Gau-10660.inp -scrdir=/panfs/panfs.cluster/home/shuo/
 Default is to use a total of  12 processors:
                               12 via shared-memory
                                1 via Linda
 Entering Link 1 = /opt/gaussian/g09/l1.exe PID=     10661.
  
 Copyright (c) 1988,1990,1992,1993,1995,1998,2003,2009,2011,
            Gaussian, Inc.  All Rights Reserved.
  
 This is part of the Gaussian(R) 09 program.  It is based on
 the Gaussian(R) 03 system (copyright 2003, Gaussian, Inc.),
 the Gaussian(R) 98 system (copyright 1998, Gaussian, Inc.),
 the Gaussian(R) 94 system (copyright 1995, Gaussian, Inc.),
 the Gaussian 92(TM) system (copyright 1992, Gaussian, Inc.),
 the Gaussian 90(TM) system (copyright 1990, Gaussian, Inc.),
 the Gaussian 88(TM) system (copyright 1988, Gaussian, Inc.),
 the Gaussian 86(TM) system (copyright 1986, Carnegie Mellon
 University), and the Gaussian 82(TM) system (copyright 1983,
 Carnegie Mellon University). Gaussian is a federally registered
 trademark of Gaussian, Inc.
  
 This software contains proprietary and confidential information,
 including trade secrets, belonging to Gaussian, Inc.
  
 This software is provided under written license and may be
 used, copied, transmitted, or stored only in accord with that
 written license.
  
 The following legend is applicable only to US Government
 contracts under FAR:
  
                    RESTRICTED RIGHTS LEGEND
  
 Use, reproduction and disclosure by the US Government is
 subject to restrictions as set forth in subparagraphs (a)
 and (c) of the Commercial Computer Software - Restricted
 Rights clause in FAR 52.227-19.
  
 Gaussian, Inc.
 340 Quinnipiac St., Bldg. 40, Wallingford CT 06492
  
  
 ---------------------------------------------------------------
 Warning -- This program may not be used in any manner that
 competes with the business of Gaussian, Inc. or will provide
 assistance to any competitor of Gaussian, Inc.  The licensee
 of this program is prohibited from giving any competitor of
 Gaussian, Inc. access to this program.  By using this program,
 the user acknowledges that Gaussian, Inc. is engaged in the
 business of creating and licensing software in the field of
 computational chemistry and represents and warrants to the
 licensee that it is not a competitor of Gaussian, Inc. and that
 it will not use this program in any manner prohibited above.
 ---------------------------------------------------------------
  

 Cite this work as:
 Gaussian 09, Revision C.01,
 M. J. Frisch, G. W. Trucks, H. B. Schlegel, G. E. Scuseria, 
 M. A. Robb, J. R. Cheeseman, G. Scalmani, V. Barone, B. Mennucci, 
 G. A. Petersson, H. Nakatsuji, M. Caricato, X. Li, H. P. Hratchian, 
 A. F. Izmaylov, J. Bloino, G. Zheng, J. L. Sonnenberg, M. Hada, 
 M. Ehara, K. Toyota, R. Fukuda, J. Hasegawa, M. Ishida, T. Nakajima, 
 Y. Honda, O. Kitao, H. Nakai, T. Vreven, J. A. Montgomery, Jr., 
 J. E. Peralta, F. Ogliaro, M. Bearpark, J. J. Heyd, E. Brothers, 
 K. N. Kudin, V. N. Staroverov, T. Keith, R. Kobayashi, J. Normand, 
 K. Raghavachari, A. Rendell, J. C. Burant, S. S. Iyengar, J. Tomasi, 
 M. Cossi, N. Rega, J. M. Millam, M. Klene, J. E. Knox, J. B. Cross, 
 V. Bakken, C. Adamo, J. Jaramillo, R. Gomperts, R. E. Stratmann, 
 O. Yazyev, A. J. Austin, R. Cammi, C. Pomelli, J. W. Ochterski, 
 R. L. Martin, K. Morokuma, V. G. Zakrzewski, G. A. Voth, 
 P. Salvador, J. J. Dannenberg, S. Dapprich, A. D. Daniels, 
 O. Farkas, J. B. Foresman, J. V. Ortiz, J. Cioslowski, 
 and D. J. Fox, Gaussian, Inc., Wallingford CT, 2010.
 
 ******************************************
 Gaussian 09:  EM64L-G09RevC.01 23-Sep-2011
                29-Dec-2013 
 ******************************************
 %chk=46_C22H10N6OS3.chk
 %NProcShared=12
 Will use up to   12 processors via shared memory.
 %Mem=8000MB
 Default route:  MaxDisk=100GB
 --------------------------------------------
 #B3LYP/6-31++G(d,p) opt scf=direct freq test
 --------------------------------------------
 1/14=-1,18=20,19=15,26=3,38=1/1,3;
 2/9=110,12=2,17=6,18=5,40=1/2;
 3/5=1,6=6,7=1111,11=2,16=1,25=1,30=1,71=1,74=-5/1,2,3;
 4//1;
 5/5=2,38=5/2;
 6/7=2,8=2,9=2,10=2,28=1/1;
 7//1,2,3,16;
 1/14=-1,18=20,19=15/3(2);
 2/9=110/2;
 99//99;
 2/9=110/2;
 3/5=1,6=6,7=1111,11=2,16=1,25=1,30=1,71=1,74=-5/1,2,3;
 4/5=5,16=3/1;
 5/5=2,38=5/2;
 7//1,2,3,16;
 1/14=-1,18=20,19=15/3(-5);
 2/9=110/2;
 6/7=2,8=2,9=2,10=2,19=2,28=1/1;
 99/9=1/99;
 ----------------------------------------------------------------------
 Geom opt of No.46 candidate from the CEPDB database with SMILE code of
  [SiH2]1ccc2c1c(sc2-c1cnc(-c2ccc[Se]2)c2nsnc12)-c1ccco1, HPC, 20131227
 , Shuo Dai, Gaussian09
 ----------------------------------------------------------------------
 Charge =  0 Multiplicity = 1
 Symbolic Z-Matrix:
 Si                   -1.249     1.158    -0.004 
 H                    -1.51127   1.97517  -1.13531 
 H                    -1.50254   1.94626   1.14959 
 C                    -2.094    -0.044     0.002 
 C                    -1.292    -1.075     0. 
 C                    -0.015    -0.662     0. 
 C                     0.021     0.714     0.002 
 C                     1.349     1.058     0.001 
 S                     2.041    -0.071     0. 
 C                     1.242    -1.078    -0.001 
 C                     1.65524  -2.46161  -0.00293 
 C                     0.72928  -3.44627  -0.01739 
 N                     1.08272  -4.75853  -0.00803 
 C                     2.37781  -5.14203   0.00399 
 C                     2.73182  -6.58112   0.00625 
 C                     2.945    -7.06064  -1.20769 
 C                     2.91593  -8.54011  -1.07152 
 C                     2.69397  -8.78141   0.20971 
 Se                    2.57776  -7.60981   0.85552 
 C                     3.39018  -4.15972   0.01438 
 N                     4.72213  -4.18026   0.02762 
 S                     5.16521  -2.93161   0.0328 
 N                     4.15661  -2.08412   0.02164 
 C                     3.01283  -2.78752   0.01073 
 C                     1.88961   2.39699   0.00103 
 C                     1.17774   3.55004  -0.0166 
 C                     2.09046   4.55164   0.00149 
 C                     3.27324   4.00048   0.02186 
 O                     3.15395   2.72003   0.0174 
 H                    -3.12569  -0.06895   0.00687 
 H                    -1.59544  -2.06138  -0.00138 
 H                    -0.27153  -3.19516  -0.03602 
 H                     3.09978  -6.51861  -2.07214 
 H                     3.0429   -9.23638  -1.82259 
 H                     2.62197  -9.71582   0.64183 
 H                     0.15044   3.64581  -0.03918 
 H                     1.88762   5.56351  -0.00049 
 H                     4.16819   4.51408   0.03895 
 

 GradGradGradGradGradGradGradGradGradGradGradGradGradGradGradGradGradGrad
 Berny optimization.
 Initialization pass.
                           ----------------------------
                           !    Initial Parameters    !
                           ! (Angstroms and Degrees)  !
 --------------------------                            --------------------------
 ! Name  Definition              Value          Derivative Info.                !
 --------------------------------------------------------------------------------
 ! R1    R(1,2)                  1.42           estimate D2E/DX2                !
 ! R2    R(1,3)                  1.42           estimate D2E/DX2                !
 ! R3    R(1,4)                  1.4693         estimate D2E/DX2                !
 ! R4    R(1,5)                  2.2334         estimate D2E/DX2                !
 ! R5    R(1,6)                  2.1989         estimate D2E/DX2                !
 ! R6    R(1,7)                  1.3454         estimate D2E/DX2                !
 ! R7    R(4,5)                  1.3062         estimate D2E/DX2                !
 ! R8    R(4,30)                 1.032          estimate D2E/DX2                !
 ! R9    R(5,6)                  1.3421         estimate D2E/DX2                !
 ! R10   R(5,31)                 1.032          estimate D2E/DX2                !
 ! R11   R(6,7)                  1.3765         estimate D2E/DX2                !
 ! R12   R(6,9)                  2.1393         estimate D2E/DX2                !
 ! R13   R(6,10)                 1.324          estimate D2E/DX2                !
 ! R14   R(7,8)                  1.3718         estimate D2E/DX2                !
 ! R15   R(7,9)                  2.1672         estimate D2E/DX2                !
 ! R16   R(8,9)                  1.3242         estimate D2E/DX2                !
 ! R17   R(8,25)                 1.444          estimate D2E/DX2                !
 ! R18   R(9,10)                 1.2855         estimate D2E/DX2                !
 ! R19   R(10,11)                1.444          estimate D2E/DX2                !
 ! R20   R(11,12)                1.3517         estimate D2E/DX2                !
 ! R21   R(11,24)                1.3962         estimate D2E/DX2                !
 ! R22   R(12,13)                1.3591         estimate D2E/DX2                !
 ! R23   R(12,32)                1.032          estimate D2E/DX2                !
 ! R24   R(13,14)                1.3507         estimate D2E/DX2                !
 ! R25   R(14,15)                1.482          estimate D2E/DX2                !
 ! R26   R(14,20)                1.4107         estimate D2E/DX2                !
 ! R27   R(15,16)                1.3225         estimate D2E/DX2                !
 ! R28   R(15,19)                1.3428         estimate D2E/DX2                !
 ! R29   R(16,17)                1.486          estimate D2E/DX2                !
 ! R30   R(16,19)                2.1664         estimate D2E/DX2                !
 ! R31   R(16,33)                1.032          estimate D2E/DX2                !
 ! R32   R(17,18)                1.3225         estimate D2E/DX2                !
 ! R33   R(17,19)                2.1664         estimate D2E/DX2                !
 ! R34   R(17,34)                1.032          estimate D2E/DX2                !
 ! R35   R(18,19)                1.3428         estimate D2E/DX2                !
 ! R36   R(18,35)                1.032          estimate D2E/DX2                !
 ! R37   R(20,21)                1.3322         estimate D2E/DX2                !
 ! R38   R(20,22)                2.1585         estimate D2E/DX2                !
 ! R39   R(20,24)                1.4231         estimate D2E/DX2                !
 ! R40   R(21,22)                1.3249         estimate D2E/DX2                !
 ! R41   R(22,23)                1.3174         estimate D2E/DX2                !
 ! R42   R(22,24)                2.1573         estimate D2E/DX2                !
 ! R43   R(23,24)                1.3428         estimate D2E/DX2                !
 ! R44   R(25,26)                1.3552         estimate D2E/DX2                !
 ! R45   R(25,29)                1.3051         estimate D2E/DX2                !
 ! R46   R(26,27)                1.3552         estimate D2E/DX2                !
 ! R47   R(26,36)                1.032          estimate D2E/DX2                !
 ! R48   R(27,28)                1.3051         estimate D2E/DX2                !
 ! R49   R(27,37)                1.032          estimate D2E/DX2                !
 ! R50   R(28,29)                1.286          estimate D2E/DX2                !
 ! R51   R(28,38)                1.032          estimate D2E/DX2                !
 ! A1    A(2,1,3)              107.1453         estimate D2E/DX2                !
 ! A2    A(2,1,4)              111.5806         estimate D2E/DX2                !
 ! A3    A(2,1,5)              124.976          estimate D2E/DX2                !
 ! A4    A(2,1,6)              125.5496         estimate D2E/DX2                !
 ! A5    A(2,1,7)              111.5809         estimate D2E/DX2                !
 ! A6    A(3,1,4)              110.3724         estimate D2E/DX2                !
 ! A7    A(3,1,5)              123.3749         estimate D2E/DX2                !
 ! A8    A(3,1,6)              123.93           estimate D2E/DX2                !
 ! A9    A(3,1,7)              110.3722         estimate D2E/DX2                !
 ! A10   A(4,1,6)               69.2449         estimate D2E/DX2                !
 ! A11   A(4,1,7)              105.8357         estimate D2E/DX2                !
 ! A12   A(5,1,7)               71.833          estimate D2E/DX2                !
 ! A13   A(1,4,30)             126.4929         estimate D2E/DX2                !
 ! A14   A(5,4,30)             126.4935         estimate D2E/DX2                !
 ! A15   A(1,5,31)             164.0027         estimate D2E/DX2                !
 ! A16   A(4,5,6)              109.9569         estimate D2E/DX2                !
 ! A17   A(4,5,31)             125.0218         estimate D2E/DX2                !
 ! A18   A(6,5,31)             125.0214         estimate D2E/DX2                !
 ! A19   A(1,6,9)              108.1007         estimate D2E/DX2                !
 ! A20   A(1,6,10)             142.4497         estimate D2E/DX2                !
 ! A21   A(5,6,7)              109.4206         estimate D2E/DX2                !
 ! A22   A(5,6,10)             143.7662         estimate D2E/DX2                !
 ! A23   A(7,6,10)             106.8132         estimate D2E/DX2                !
 ! A24   A(1,7,8)              146.2064         estimate D2E/DX2                !
 ! A25   A(6,7,8)              106.0211         estimate D2E/DX2                !
 ! A26   A(7,8,25)             126.5086         estimate D2E/DX2                !
 ! A27   A(9,8,25)             126.5084         estimate D2E/DX2                !
 ! A28   A(6,9,8)               74.5319         estimate D2E/DX2                !
 ! A29   A(7,9,10)              72.8068         estimate D2E/DX2                !
 ! A30   A(8,9,10)             110.0645         estimate D2E/DX2                !
 ! A31   A(6,10,11)            124.941          estimate D2E/DX2                !
 ! A32   A(9,10,11)            124.9407         estimate D2E/DX2                !
 ! A33   A(10,11,12)           120.1296         estimate D2E/DX2                !
 ! A34   A(10,11,24)           120.126          estimate D2E/DX2                !
 ! A35   A(12,11,24)           119.7445         estimate D2E/DX2                !
 ! A36   A(11,12,13)           121.6778         estimate D2E/DX2                !
 ! A37   A(11,12,32)           119.1608         estimate D2E/DX2                !
 ! A38   A(13,12,32)           119.1615         estimate D2E/DX2                !
 ! A39   A(12,13,14)           121.571          estimate D2E/DX2                !
 ! A40   A(13,14,15)           120.3146         estimate D2E/DX2                !
 ! A41   A(13,14,20)           119.3706         estimate D2E/DX2                !
 ! A42   A(15,14,20)           120.3148         estimate D2E/DX2                !
 ! A43   A(14,15,16)           112.9042         estimate D2E/DX2                !
 ! A44   A(14,15,19)           135.8436         estimate D2E/DX2                !
 ! A45   A(15,16,17)           105.8859         estimate D2E/DX2                !
 ! A46   A(15,16,33)           127.0576         estimate D2E/DX2                !
 ! A47   A(17,16,33)           127.0565         estimate D2E/DX2                !
 ! A48   A(19,16,33)           163.0011         estimate D2E/DX2                !
 ! A49   A(16,17,18)           105.8852         estimate D2E/DX2                !
 ! A50   A(16,17,34)           127.0575         estimate D2E/DX2                !
 ! A51   A(18,17,34)           127.0573         estimate D2E/DX2                !
 ! A52   A(19,17,34)           162.9989         estimate D2E/DX2                !
 ! A53   A(17,18,35)           125.6307         estimate D2E/DX2                !
 ! A54   A(19,18,35)           125.6307         estimate D2E/DX2                !
 ! A55   A(15,19,17)            75.4328         estimate D2E/DX2                !
 ! A56   A(15,19,18)           110.7494         estimate D2E/DX2                !
 ! A57   A(16,19,18)            75.4324         estimate D2E/DX2                !
 ! A58   A(14,20,21)           134.9814         estimate D2E/DX2                !
 ! A59   A(14,20,24)           118.7584         estimate D2E/DX2                !
 ! A60   A(21,20,24)           106.2602         estimate D2E/DX2                !
 ! A61   A(20,22,23)            74.7146         estimate D2E/DX2                !
 ! A62   A(21,22,23)           110.4991         estimate D2E/DX2                !
 ! A63   A(21,22,24)            74.2914         estimate D2E/DX2                !
 ! A64   A(11,24,20)           118.8753         estimate D2E/DX2                !
 ! A65   A(11,24,23)           134.9119         estimate D2E/DX2                !
 ! A66   A(20,24,23)           106.2127         estimate D2E/DX2                !
 ! A67   A(8,25,26)            126.3199         estimate D2E/DX2                !
 ! A68   A(8,25,29)            126.3153         estimate D2E/DX2                !
 ! A69   A(26,25,29)           107.3647         estimate D2E/DX2                !
 ! A70   A(25,26,27)           105.9547         estimate D2E/DX2                !
 ! A71   A(25,26,36)           127.0228         estimate D2E/DX2                !
 ! A72   A(27,26,36)           127.0225         estimate D2E/DX2                !
 ! A73   A(26,27,28)           107.3655         estimate D2E/DX2                !
 ! A74   A(26,27,37)           126.3173         estimate D2E/DX2                !
 ! A75   A(28,27,37)           126.3171         estimate D2E/DX2                !
 ! A76   A(27,28,29)           109.6565         estimate D2E/DX2                !
 ! A77   A(27,28,38)           125.1718         estimate D2E/DX2                !
 ! A78   A(29,28,38)           125.1717         estimate D2E/DX2                !
 ! A79   A(25,29,28)           109.6559         estimate D2E/DX2                !
 ! A80   L(5,6,9,1,-1)         181.8846         estimate D2E/DX2                !
 ! A81   L(1,7,9,5,-1)         178.033          estimate D2E/DX2                !
 ! A82   L(14,20,22,1,-1)      189.4578         estimate D2E/DX2                !
 ! A83   L(11,24,22,14,-1)     189.6689         estimate D2E/DX2                !
 ! A84   L(5,6,9,1,-2)         180.0038         estimate D2E/DX2                !
 ! A85   L(1,7,9,5,-2)         179.68           estimate D2E/DX2                !
 ! A86   L(14,20,22,1,-2)      179.9553         estimate D2E/DX2                !
 ! A87   L(11,24,22,14,-2)     180.0098         estimate D2E/DX2                !
 ! D1    D(2,1,4,30)           -58.9389         estimate D2E/DX2                !
 ! D2    D(3,1,4,30)            60.0771         estimate D2E/DX2                !
 ! D3    D(6,1,4,30)           179.814          estimate D2E/DX2                !
 ! D4    D(7,1,4,30)           179.5048         estimate D2E/DX2                !
 ! D5    D(2,1,5,31)           -75.5432         estimate D2E/DX2                !
 ! D6    D(3,1,5,31)            77.5409         estimate D2E/DX2                !
 ! D7    D(7,1,5,31)          -179.5993         estimate D2E/DX2                !
 ! D8    D(2,1,6,9)             77.8999         estimate D2E/DX2                !
 ! D9    D(2,1,6,10)            77.7274         estimate D2E/DX2                !
 ! D10   D(3,1,6,9)            -78.6524         estimate D2E/DX2                !
 ! D11   D(3,1,6,10)           -78.8249         estimate D2E/DX2                !
 ! D12   D(4,1,6,9)           -179.8234         estimate D2E/DX2                !
 ! D13   D(4,1,6,10)          -179.9959         estimate D2E/DX2                !
 ! D14   D(2,1,7,8)             58.3026         estimate D2E/DX2                !
 ! D15   D(3,1,7,8)            -60.7134         estimate D2E/DX2                !
 ! D16   D(4,1,7,8)            179.8588         estimate D2E/DX2                !
 ! D17   D(5,1,7,8)            179.5673         estimate D2E/DX2                !
 ! D18   D(2,1,9,10)          -120.7627         estimate D2E/DX2                !
 ! D19   D(3,1,9,10)           119.4014         estimate D2E/DX2                !
 ! D20   D(4,1,9,10)             0.2845         estimate D2E/DX2                !
 ! D21   D(5,1,9,10)             0.1115         estimate D2E/DX2                !
 ! D22   D(30,4,5,6)          -179.6967         estimate D2E/DX2                !
 ! D23   D(30,4,5,31)            0.3035         estimate D2E/DX2                !
 ! D24   D(4,5,6,7)             -0.0051         estimate D2E/DX2                !
 ! D25   D(4,5,6,10)           179.9799         estimate D2E/DX2                !
 ! D26   D(31,5,6,7)           179.9947         estimate D2E/DX2                !
 ! D27   D(31,5,6,10)           -0.0203         estimate D2E/DX2                !
 ! D28   D(4,5,9,8)             -0.0493         estimate D2E/DX2                !
 ! D29   D(31,5,9,8)           179.9525         estimate D2E/DX2                !
 ! D30   D(5,6,7,8)           -179.962          estimate D2E/DX2                !
 ! D31   D(10,6,7,8)             0.0473         estimate D2E/DX2                !
 ! D32   D(1,6,9,8)              0.1545         estimate D2E/DX2                !
 ! D33   D(1,6,10,11)         -179.7095         estimate D2E/DX2                !
 ! D34   D(5,6,10,11)            0.0041         estimate D2E/DX2                !
 ! D35   D(7,6,10,11)          179.9893         estimate D2E/DX2                !
 ! D36   D(1,7,8,25)             0.5542         estimate D2E/DX2                !
 ! D37   D(6,7,8,25)           179.9338         estimate D2E/DX2                !
 ! D38   D(25,8,9,6)          -179.9575         estimate D2E/DX2                !
 ! D39   D(25,8,9,10)         -179.9378         estimate D2E/DX2                !
 ! D40   D(7,8,25,26)           -0.9788         estimate D2E/DX2                !
 ! D41   D(7,8,25,29)          179.0561         estimate D2E/DX2                !
 ! D42   D(9,8,25,26)          179.021          estimate D2E/DX2                !
 ! D43   D(9,8,25,29)           -0.944          estimate D2E/DX2                !
 ! D44   D(7,9,10,11)         -179.9931         estimate D2E/DX2                !
 ! D45   D(8,9,10,11)          179.9675         estimate D2E/DX2                !
 ! D46   D(6,10,11,12)           0.6635         estimate D2E/DX2                !
 ! D47   D(6,10,11,24)        -179.3082         estimate D2E/DX2                !
 ! D48   D(9,10,11,12)        -179.3366         estimate D2E/DX2                !
 ! D49   D(9,10,11,24)           0.6917         estimate D2E/DX2                !
 ! D50   D(10,11,12,13)       -179.4252         estimate D2E/DX2                !
 ! D51   D(10,11,12,32)          0.5753         estimate D2E/DX2                !
 ! D52   D(24,11,12,13)          0.5466         estimate D2E/DX2                !
 ! D53   D(24,11,12,32)       -179.4529         estimate D2E/DX2                !
 ! D54   D(10,11,22,21)        179.7625         estimate D2E/DX2                !
 ! D55   D(12,11,22,21)         -0.2329         estimate D2E/DX2                !
 ! D56   D(10,11,24,20)        179.7275         estimate D2E/DX2                !
 ! D57   D(10,11,24,23)         -0.3153         estimate D2E/DX2                !
 ! D58   D(12,11,24,20)         -0.2443         estimate D2E/DX2                !
 ! D59   D(12,11,24,23)        179.7129         estimate D2E/DX2                !
 ! D60   D(11,12,13,14)         -0.6078         estimate D2E/DX2                !
 ! D61   D(32,12,13,14)        179.3916         estimate D2E/DX2                !
 ! D62   D(12,13,14,15)       -179.6532         estimate D2E/DX2                !
 ! D63   D(12,13,14,20)          0.3471         estimate D2E/DX2                !
 ! D64   D(13,14,15,16)         93.8133         estimate D2E/DX2                !
 ! D65   D(13,14,15,19)        -65.54           estimate D2E/DX2                !
 ! D66   D(20,14,15,16)        -86.1871         estimate D2E/DX2                !
 ! D67   D(20,14,15,19)        114.4596         estimate D2E/DX2                !
 ! D68   D(13,14,20,21)        179.9642         estimate D2E/DX2                !
 ! D69   D(13,14,20,24)         -0.0517         estimate D2E/DX2                !
 ! D70   D(15,14,20,21)         -0.0354         estimate D2E/DX2                !
 ! D71   D(15,14,20,24)        179.9487         estimate D2E/DX2                !
 ! D72   D(13,14,22,23)         -0.1034         estimate D2E/DX2                !
 ! D73   D(15,14,22,23)        179.9079         estimate D2E/DX2                !
 ! D74   D(14,15,16,17)       -164.9815         estimate D2E/DX2                !
 ! D75   D(14,15,16,33)         15.0187         estimate D2E/DX2                !
 ! D76   D(14,15,19,17)        159.9512         estimate D2E/DX2                !
 ! D77   D(14,15,19,18)        160.2155         estimate D2E/DX2                !
 ! D78   D(15,16,17,18)         -0.2462         estimate D2E/DX2                !
 ! D79   D(15,16,17,34)        179.7547         estimate D2E/DX2                !
 ! D80   D(33,16,17,18)        179.7536         estimate D2E/DX2                !
 ! D81   D(33,16,17,34)         -0.2455         estimate D2E/DX2                !
 ! D82   D(33,16,19,18)       -179.7747         estimate D2E/DX2                !
 ! D83   D(16,17,18,35)       -179.591          estimate D2E/DX2                !
 ! D84   D(34,17,18,35)          0.4081         estimate D2E/DX2                !
 ! D85   D(34,17,19,15)       -179.3143         estimate D2E/DX2                !
 ! D86   D(35,18,19,15)        179.5573         estimate D2E/DX2                !
 ! D87   D(35,18,19,16)        179.7211         estimate D2E/DX2                !
 ! D88   D(14,20,24,11)          0.0029         estimate D2E/DX2                !
 ! D89   D(14,20,24,23)       -179.9655         estimate D2E/DX2                !
 ! D90   D(21,20,24,11)        179.9912         estimate D2E/DX2                !
 ! D91   D(21,20,24,23)          0.0228         estimate D2E/DX2                !
 ! D92   D(8,25,26,27)         179.5408         estimate D2E/DX2                !
 ! D93   D(8,25,26,36)          -0.4587         estimate D2E/DX2                !
 ! D94   D(29,25,26,27)         -0.4887         estimate D2E/DX2                !
 ! D95   D(29,25,26,36)        179.5118         estimate D2E/DX2                !
 ! D96   D(8,25,29,28)        -179.5189         estimate D2E/DX2                !
 ! D97   D(26,25,29,28)          0.5106         estimate D2E/DX2                !
 ! D98   D(25,26,27,28)          0.2961         estimate D2E/DX2                !
 ! D99   D(25,26,27,37)       -179.7047         estimate D2E/DX2                !
 ! D100  D(36,26,27,28)       -179.7044         estimate D2E/DX2                !
 ! D101  D(36,26,27,37)          0.2948         estimate D2E/DX2                !
 ! D102  D(26,27,28,29)          0.0088         estimate D2E/DX2                !
 ! D103  D(26,27,28,38)       -179.9911         estimate D2E/DX2                !
 ! D104  D(37,27,28,29)       -179.9905         estimate D2E/DX2                !
 ! D105  D(37,27,28,38)          0.0096         estimate D2E/DX2                !
 ! D106  D(27,28,29,25)         -0.3285         estimate D2E/DX2                !
 ! D107  D(38,28,29,25)        179.6714         estimate D2E/DX2                !
 --------------------------------------------------------------------------------
 Trust Radius=3.00D-01 FncErr=1.00D-07 GrdErr=1.00D-06
 Number of steps in this run=    228 maximum allowed number of steps=    228.
 GradGradGradGradGradGradGradGradGradGradGradGradGradGradGradGradGradGrad

                          Input orientation:                          
 ---------------------------------------------------------------------
 Center     Atomic      Atomic             Coordinates (Angstroms)
 Number     Number       Type             X           Y           Z
 ---------------------------------------------------------------------
      1         14           0       -1.249000    1.158000   -0.004000
      2          1           0       -1.511270    1.975170   -1.135310
      3          1           0       -1.502540    1.946260    1.149590
      4          6           0       -2.094000   -0.044000    0.002000
      5          6           0       -1.292000   -1.075000    0.000000
      6          6           0       -0.015000   -0.662000    0.000000
      7          6           0        0.021000    0.714000    0.002000
      8          6           0        1.349000    1.058000    0.001000
      9         16           0        2.041000   -0.071000    0.000000
     10          6           0        1.242000   -1.078000   -0.001000
     11          6           0        1.655240   -2.461610   -0.002930
     12          6           0        0.729280   -3.446270   -0.017390
     13          7           0        1.082720   -4.758530   -0.008030
     14          6           0        2.377810   -5.142030    0.003990
     15          6           0        2.731820   -6.581120    0.006250
     16          6           0        2.945000   -7.060640   -1.207690
     17          6           0        2.915930   -8.540110   -1.071520
     18          6           0        2.693970   -8.781410    0.209710
     19         34           0        2.577760   -7.609810    0.855520
     20          6           0        3.390180   -4.159720    0.014380
     21          7           0        4.722130   -4.180260    0.027620
     22         16           0        5.165210   -2.931610    0.032800
     23          7           0        4.156610   -2.084120    0.021640
     24          6           0        3.012830   -2.787520    0.010730
     25          6           0        1.889610    2.396990    0.001030
     26          6           0        1.177740    3.550040   -0.016600
     27          6           0        2.090460    4.551640    0.001490
     28          6           0        3.273240    4.000480    0.021860
     29          8           0        3.153950    2.720030    0.017400
     30          1           0       -3.125690   -0.068950    0.006870
     31          1           0       -1.595440   -2.061380   -0.001380
     32          1           0       -0.271530   -3.195160   -0.036020
     33          1           0        3.099780   -6.518610   -2.072140
     34          1           0        3.042900   -9.236380   -1.822590
     35          1           0        2.621970   -9.715820    0.641830
     36          1           0        0.150440    3.645810   -0.039180
     37          1           0        1.887620    5.563510   -0.000490
     38          1           0        4.168190    4.514080    0.038950
 ---------------------------------------------------------------------
                    Distance matrix (angstroms):
                    1          2          3          4          5
     1  Si   0.000000
     2  H    1.420005   0.000000
     3  H    1.420002   2.285100   0.000000
     4  C    1.469308   2.389581   2.372324   0.000000
     5  C    2.233418   3.261985   3.239428   1.306204   0.000000
     6  C    2.198902   3.237656   3.215175   2.168910   1.342124
     7  C    1.345389   2.287329   2.270815   2.246729   2.219120
     8  C    2.599929   3.211471   3.199929   3.615059   3.394786
     9  S    3.512059   4.253747   4.236457   4.135089   3.480935
    10  C    3.347355   4.264857   4.242936   3.492572   2.534002
    11  C    4.640710   5.567233   5.543392   4.461128   3.257134
    12  C    5.011295   5.971752   5.951659   4.421168   3.115894
    13  N    6.359423   7.303579   7.278589   5.684931   4.382665
    14  C    7.269401   8.190084   8.161701   6.781371   5.477979
    15  C    8.702931   9.618579   9.589225   8.125423   6.819716
    16  C    9.305082  10.075190  10.318024   8.722850   7.432265
    17  C   10.608467  11.409438  11.593971   9.921478   8.636127
    18  C   10.695072  11.627430  11.557551   9.965447   8.678749
    19  Se   9.605069  10.609214  10.394893   8.932823   7.642689
    20  C    7.056945   7.936175   7.906352   6.856787   5.607006
    21  N    8.009520   8.837251   8.805656   7.973013   6.768542
    22  S    7.607125   8.367578   8.336650   7.812514   6.718902
    23  N    6.303382   7.066911   7.038623   6.575150   5.541312
    24  C    5.807800   6.668141   6.640349   5.797128   4.632969
    25  C    3.374314   3.610427   3.609575   4.672000   4.709284
    26  C    3.407504   3.310967   3.334068   4.860221   5.243175
    27  C    4.761178   4.571977   4.584298   6.215273   6.565068
    28  C    5.341443   5.322824   5.319743   6.720527   6.826594
    29  O    4.671869   4.862904   4.854222   5.931364   5.845428
    30  H    2.242206   2.844179   2.828692   1.032003   2.091555
    31  H    3.237968   4.193640   4.170676   2.078075   1.032000
    32  H    4.461667   5.429338   5.418049   3.640419   2.353239
    33  H    9.061977   9.709981  10.159474   8.555582   7.294819
    34  H   11.391699  12.120713  12.431666  10.687222   9.419199
    35  H   11.560340  12.526817  12.380368  10.779325   9.507622
    36  H    2.854622   2.598811   2.652167   4.319017   4.936417
    37  H    5.408042   5.071139   5.089240   6.877316   7.360693
    38  H    6.372681   6.330973   6.323322   7.745481   7.813642
                    6          7          8          9         10
     6  C    0.000000
     7  C    1.376472   0.000000
     8  C    2.195199   1.371831   0.000000
     9  S    2.139256   2.167171   1.324200   0.000000
    10  C    1.324049   2.168436   2.138679   1.285477   0.000000
    11  C    2.455261   3.571451   3.532910   2.421536   1.444004
    12  C    2.882085   4.220176   4.546739   3.621237   2.423191
    13  N    4.241063   5.574579   5.822629   4.784486   3.683982
    14  C    5.078998   6.312499   6.284810   5.082204   4.219766
    15  C    6.525415   7.782502   7.763271   6.546673   5.701223
    16  C    7.152811   8.393935   8.361846   7.150580   6.336268
    17  C    8.473672   9.755594   9.784134   8.581345   7.722120
    18  C    8.561969   9.866647   9.933101   8.737367   7.841884
    19  Se   7.465011   8.749362   8.796078   7.606161   6.721787
    20  C    4.881547   5.924920   5.602785   4.305592   3.756582
    21  N    5.900790   6.786388   6.230416   4.906652   4.662203
    22  S    5.655686   6.305102   5.521002   4.236137   4.339192
    23  N    4.407406   4.993309   4.213789   2.920433   3.083463
    24  C    3.699420   4.605623   4.190042   2.885143   2.461389
    25  C    3.603465   2.514788   1.444006   2.472629   3.534821
    26  C    4.377692   3.062926   2.497980   3.722556   4.628512
    27  C    5.622722   4.360063   3.571454   4.622905   5.693219
    28  C    5.705411   4.623679   3.515867   4.253921   5.469682
    29  O    4.634725   3.720184   2.453662   3.004798   4.252167
    30  H    3.166725   3.242637   4.614423   5.166695   4.482740
    31  H    2.110937   3.211794   4.289553   4.145517   3.003016
    32  H    2.546371   3.920274   4.551578   3.887090   2.602761
    33  H    6.949496   8.129673   8.047867   6.854667   6.110745
    34  H    9.283996  10.557986  10.590988   9.398395   8.551058
    35  H    9.451836  10.768267  10.867673   9.683596   8.770945
    36  H    4.311164   2.934955   2.852178   4.170183   4.848437
    37  H    6.509757   5.196347   4.537591   5.636597   6.672817
    38  H    6.655254   5.625047   4.460242   5.054643   6.311540
                   11         12         13         14         15
    11  C    0.000000
    12  C    1.351727   0.000000
    13  N    2.367202   1.359056   0.000000
    14  C    2.776114   2.365103   1.350731   0.000000
    15  C    4.257872   3.719948   2.457960   1.481995   0.000000
    16  C    4.926054   4.403396   3.194837   2.339003   1.322511
    17  C    6.299158   5.642680   4.334976   3.604614   2.243463
    18  C    6.408124   5.689930   4.339021   3.658875   2.210001
    19  Se   5.300183   4.638310   3.333266   2.618210   1.342832
    20  C    2.427734   2.755070   2.383998   1.410650   2.509319
    21  N    3.515751   4.060002   3.685237   2.534047   3.118641
    22  S    3.541478   4.465968   4.472810   3.557581   4.386458
    23  N    2.529813   3.688301   4.074573   3.537691   4.717337
    24  C    1.396229   2.376835   2.758724   2.438650   3.803996
    25  C    4.864251   5.957381   7.200876   7.554811   9.017528
    26  C    6.030599   7.010668   8.309118   8.774547  10.249687
    27  C    7.026743   8.112936   9.364555   9.697928  11.151220
    28  C    6.661617   7.869394   9.028817   9.186273  10.595454
    29  O    5.394065   6.625971   7.760122   7.900289   9.310731
    30  H    5.346233   5.125200   6.301039   7.484962   8.758926
    31  H    3.275226   2.706012   3.800948   5.027638   6.257259
    32  H    2.061949   1.032000   2.068551   3.287994   4.526215
    33  H    4.777821   4.390961   3.380379   2.593555   2.111636
    34  H    7.150823   6.491299   5.214027   4.532377   3.239110
    35  H    7.346689   6.582105   5.231284   4.624501   3.200371
    36  H    6.290176   7.115696   8.455947   9.065824  10.547781
    37  H    8.028484   9.083951  10.353378  10.716758  12.173938
    38  H    7.414642   8.671589   9.772596   9.820751  11.187837
                   16         17         18         19         20
    16  C    0.000000
    17  C    1.486008   0.000000
    18  C    2.243455   1.322514   0.000000
    19  Se   2.166400   2.166403   1.342841   0.000000
    20  C    3.179147   4.537831   4.677914   3.642892   0.000000
    21  N    3.602884   4.845489   5.031617   4.128626   1.332174
    22  S    4.849437   6.142805   6.352833   5.409004   2.158547
    23  N    5.267352   6.664390   6.857724   5.807011   2.212596
    24  C    4.443951   5.854310   6.005663   4.915022   1.423144
    25  C    9.592790  11.037384  11.209245  10.066765   6.726242
    26  C   10.822589  12.259930  12.426376  11.281086   8.020988
    27  C   11.706298  13.161560  13.348326  12.201135   8.807794
    28  C   11.134088  12.593234  12.796388  11.660940   8.161041
    29  O    9.859311  11.315174  11.512241  10.379790   6.883805
    30  H    9.338745  10.460624  10.479339   9.492846   7.693570
    31  H    6.860275   7.966907   7.975111   6.995352   5.409222
    32  H    5.163411   6.308776   6.329357   5.329393   3.786956
    33  H    1.032002   2.263074   3.239103   3.167715   3.162635
    34  H    2.263080   1.031998   2.111633   3.167706   5.409948
    35  H    3.251931   2.098636   1.032005   2.117285   5.643943
    36  H   11.126682  12.538353  12.687288  11.549084   8.451336
    37  H   12.725743  14.181559  14.369103  13.219130   9.838654
    38  H   11.705744  13.161048  13.378062  12.254997   8.708657
                   21         22         23         24         25
    21  N    0.000000
    22  S    1.324943   0.000000
    23  N    2.171095   1.317436   0.000000
    24  C    2.204930   2.157311   1.342804   0.000000
    25  C    7.161291   6.254961   5.021958   5.304796   0.000000
    26  C    8.504246   7.610134   6.373295   6.597952   1.355210
    27  C    9.119893   8.090371   6.950014   7.396899   2.163991
    28  C    8.308058   7.185648   6.148390   6.793002   2.118029
    29  O    7.076249   5.998870   4.907668   5.509362   1.305059
    30  H    8.859547   8.771232   7.555992   6.713573   5.588750
    31  H    6.663496   6.816514   5.752141   4.665145   5.658855
    32  H    5.090296   5.443559   4.565759   3.309891   5.995335
    33  H    3.536791   4.643635   5.016523   4.273984   9.233118
    34  H    5.639808   6.906287   7.469696   6.704458  11.831778
    35  H    5.952340   7.270797   7.809136   6.967955  12.151837
    36  H    9.063784   8.271369   6.991795   7.041555   2.141467
    37  H   10.147723   9.105535   7.977158   8.426501   3.166521
    38  H    8.711976   7.512149   6.598233   7.392497   3.110536
                   26         27         28         29         30
    26  C    0.000000
    27  C    1.355208   0.000000
    28  C    2.143711   1.305052   0.000000
    29  O    2.143707   2.118032   1.286002   0.000000
    30  H    5.622913   6.968364   7.583323   6.871128   0.000000
    31  H    6.259297   7.570859   7.775007   6.739358   2.512272
    32  H    6.899165   8.098970   8.021595   6.835659   4.233351
    33  H   10.454530  11.307922  10.726890   9.472148   9.202004
    34  H   13.047335  13.940728  13.366732  12.097671  11.200009
    35  H   13.360478  14.291709  13.745741  12.462876  11.247261
    36  H    1.032001   2.141462   3.143469   3.143460   4.953240
    37  H    2.135006   1.032002   2.088900   3.112762   7.540420
    38  H    3.142491   2.078407   1.031994   2.061010   8.614283
                   31         32         33         34         35
    31  H    0.000000
    32  H    1.743386   0.000000
    33  H    6.797061   5.153332   0.000000
    34  H    8.735653   7.118540   2.729796   0.000000
    35  H    8.763031   7.165949   4.220911   2.545665   0.000000
    36  H    5.968379   6.853973  10.777150  13.322826  13.605344
    37  H    8.382759   9.020947  12.318226  14.956319  15.310446
    38  H    8.744011   8.896579  11.283548  13.921450  14.326350
                   36         37         38
    36  H    0.000000
    37  H    2.587830   0.000000
    38  H    4.111242   2.510749   0.000000
 Stoichiometry    C19H11N3OS2SeSi
 Framework group  C1[X(C19H11N3OS2SeSi)]
 Deg. of freedom   108
 Full point group                 C1      NOp   1
 Largest Abelian subgroup         C1      NOp   1
 Largest concise Abelian subgroup C1      NOp   1
                         Standard orientation:                         
 ---------------------------------------------------------------------
 Center     Atomic      Atomic             Coordinates (Angstroms)
 Number     Number       Type             X           Y           Z
 ---------------------------------------------------------------------
      1         14           0       -4.155093    2.506720    0.022601
      2          1           0       -5.028026    2.594225    1.139178
      3          1           0       -4.955550    2.622104   -1.144601
      4          6           0       -3.135097    3.563946    0.049888
      5          6           0       -1.971019    2.971622    0.065484
      6          6           0       -2.134475    1.639655    0.044383
      7          6           0       -3.478443    1.343908    0.013402
      8          6           0       -3.564516   -0.025086   -0.005763
      9         16           0       -2.325057   -0.490848    0.011949
     10          6           0       -1.487906    0.484213    0.041726
     11          6           0       -0.051337    0.340323    0.068396
     12          6           0        0.739574    1.435626    0.112409
     13          7           0        2.094977    1.337099    0.126893
     14          6           0        2.717100    0.138284    0.110170
     15          6           0        4.196988    0.063105    0.134386
     16          6           0        4.685584   -0.071904    1.355894
     17          6           0        6.135009    0.238496    1.250827
     18          6           0        6.353632    0.519464   -0.022870
     19         34           0        5.193440    0.420576   -0.691748
     20          6           0        1.944795   -1.041470    0.069429
     21          7           0        2.217605   -2.345155    0.043574
     22         16           0        1.075857   -3.016440    0.008076
     23          7           0        0.052538   -2.186716    0.011479
     24          6           0        0.526124   -0.930734    0.048224
     25          6           0       -4.776566   -0.809298   -0.038948
     26          6           0       -6.043746   -0.328832   -0.038340
     27          6           0       -6.853729   -1.414293   -0.086205
     28          6           0       -6.088140   -2.470993   -0.106687
     29          8           0       -4.853803   -2.111587   -0.074418
     30          1           0       -3.306015    4.581681    0.055644
     31          1           0       -1.060210    3.456218    0.090358
     32          1           0        0.303061    2.370475    0.135612
     33          1           0        4.166744   -0.338180    2.207321
     34          1           0        6.828651    0.235429    2.014941
     35          1           0        7.265330    0.772866   -0.434729
     36          1           0       -6.332854    0.661372   -0.007697
     37          1           0       -7.885561   -1.406677   -0.103292
     38          1           0       -6.422436   -3.446659   -0.143224
 ---------------------------------------------------------------------
 Rotational constants (GHZ):      0.3707251      0.0666868      0.0577012
 Standard basis: 6-31++G(d,p) (6D, 7F)
 There are   606 symmetry adapted basis functions of A   symmetry.
 Integral buffers will be    131072 words long.
 Raffenetti 2 integral format.
 Two-electron integral symmetry is turned on.
   606 basis functions,  1079 primitive gaussians,   606 cartesian basis functions
   117 alpha electrons      117 beta electrons
       nuclear repulsion energy      3452.3063336266 Hartrees.
 NAtoms=   38 NActive=   38 NUniq=   38 SFac= 1.00D+00 NAtFMM=   60 NAOKFM=F Big=F
 One-electron integrals computed using PRISM.
 NBasis=   606 RedAO= T  NBF=   606
 NBsUse=   598 1.00D-06 NBFU=   598
 Harris functional with IExCor=  402 diagonalized for initial guess.
 ExpMin= 3.00D-02 ExpMax= 5.61D+05 ExpMxC= 5.42D+03 IAcc=3 IRadAn=         5 AccDes= 0.00D+00
 HarFok:  IExCor=  402 AccDes= 0.00D+00 IRadAn=         5 IDoV= 1
 ScaDFX=  1.000000  1.000000  1.000000  1.000000
 FoFCou: FMM=F IPFlag=           0 FMFlag=      100000 FMFlg1=           0
         NFxFlg=           0 DoJE=T BraDBF=F KetDBF=T FulRan=T
         Omega=  0.000000  0.000000  1.000000  0.000000  0.000000 ICntrl=     500 IOpCl=  0
         NMat0=    1 NMatS0=    1 NMatT0=    0 NMatD0=    1 NMtDS0=    0 NMtDT0=    0
         I1Cent=           4 NGrid=           0.
 Petite list used in FoFCou.
 Initial guess orbital symmetries:
       Occupied  (A) (A) (A) (A) (A) (A) (A) (A) (A) (A) (A) (A)
                 (A) (A) (A) (A) (A) (A) (A) (A) (A) (A) (A) (A)
                 (A) (A) (A) (A) (A) (A) (A) (A) (A) (A) (A) (A)
                 (A) (A) (A) (A) (A) (A) (A) (A) (A) (A) (A) (A)
                 (A) (A) (A) (A) (A) (A) (A) (A) (A) (A) (A) (A)
                 (A) (A) (A) (A) (A) (A) (A) (A) (A) (A) (A) (A)
                 (A) (A) (A) (A) (A) (A) (A) (A) (A) (A) (A) (A)
                 (A) (A) (A) (A) (A) (A) (A) (A) (A) (A) (A) (A)
                 (A) (A) (A) (A) (A) (A) (A) (A) (A) (A) (A) (A)
                 (A) (A) (A) (A) (A) (A) (A) (A) (A)
       Virtual   (A) (A) (A) (A) (A) (A) (A) (A) (A) (A) (A) (A)
                 (A) (A) (A) (A) (A) (A) (A) (A) (A) (A) (A) (A)
                 (A) (A) (A) (A) (A) (A) (A) (A) (A) (A) (A) (A)
                 (A) (A) (A) (A) (A) (A) (A) (A) (A) (A) (A) (A)
                 (A) (A) (A) (A) (A) (A) (A) (A) (A) (A) (A) (A)
                 (A) (A) (A) (A) (A) (A) (A) (A) (A) (A) (A) (A)
                 (A) (A) (A) (A) (A) (A) (A) (A) (A) (A) (A) (A)
                 (A) (A) (A) (A) (A) (A) (A) (A) (A) (A) (A) (A)
                 (A) (A) (A) (A) (A) (A) (A) (A) (A) (A) (A) (A)
                 (A) (A) (A) (A) (A) (A) (A) (A) (A) (A) (A) (A)
                 (A) (A) (A) (A) (A) (A) (A) (A) (A) (A) (A) (A)
                 (A) (A) (A) (A) (A) (A) (A) (A) (A) (A) (A) (A)
                 (A) (A) (A) (A) (A) (A) (A) (A) (A) (A) (A) (A)
                 (A) (A) (A) (A) (A) (A) (A) (A) (A) (A) (A) (A)
                 (A) (A) (A) (A) (A) (A) (A) (A) (A) (A) (A) (A)
                 (A) (A) (A) (A) (A) (A) (A) (A) (A) (A) (A) (A)
                 (A) (A) (A) (A) (A) (A) (A) (A) (A) (A) (A) (A)
                 (A) (A) (A) (A) (A) (A) (A) (A) (A) (A) (A) (A)
                 (A) (A) (A) (A) (A) (A) (A) (A) (A) (A) (A) (A)
                 (A) (A) (A) (A) (A) (A) (A) (A) (A) (A) (A) (A)
                 (A) (A) (A) (A) (A) (A) (A) (A) (A) (A) (A) (A)
                 (A) (A) (A) (A) (A) (A) (A) (A) (A) (A) (A) (A)
                 (A) (A) (A) (A) (A) (A) (A) (A) (A) (A) (A) (A)
                 (A) (A) (A) (A) (A) (A) (A) (A) (A) (A) (A) (A)
                 (A) (A) (A) (A) (A) (A) (A) (A) (A) (A) (A) (A)
                 (A) (A) (A) (A) (A) (A) (A) (A) (A) (A) (A) (A)
                 (A) (A) (A) (A) (A) (A) (A) (A) (A) (A) (A) (A)
                 (A) (A) (A) (A) (A) (A) (A) (A) (A) (A) (A) (A)
                 (A) (A) (A) (A) (A) (A) (A) (A) (A) (A) (A) (A)
                 (A) (A) (A) (A) (A) (A) (A) (A) (A) (A) (A) (A)
                 (A) (A) (A) (A) (A) (A) (A) (A) (A) (A) (A) (A)
                 (A) (A) (A) (A) (A) (A) (A) (A) (A) (A) (A) (A)
                 (A) (A) (A) (A) (A) (A) (A) (A) (A) (A) (A) (A)
                 (A) (A) (A) (A) (A) (A) (A) (A) (A) (A) (A) (A)
                 (A) (A) (A) (A) (A) (A) (A) (A) (A) (A) (A) (A)
                 (A) (A) (A) (A) (A) (A) (A) (A) (A) (A) (A) (A)
                 (A) (A) (A) (A) (A) (A) (A) (A) (A) (A) (A) (A)
                 (A) (A) (A) (A) (A) (A) (A) (A) (A) (A) (A) (A)
                 (A) (A) (A) (A) (A) (A) (A) (A) (A) (A) (A) (A)
                 (A) (A) (A) (A) (A) (A) (A) (A) (A) (A) (A) (A)
                 (A)
 The electronic state of the initial guess is 1-A.
 Requested convergence on RMS density matrix=1.00D-08 within 128 cycles.
 Requested convergence on MAX density matrix=1.00D-06.
 Requested convergence on             energy=1.00D-06.
 No special actions if energy rises.
 SCF Done:  E(RB3LYP) =  -4453.73487799     A.U. after   18 cycles
             Convg  =    0.9196D-08             -V/T =  2.0015

 **********************************************************************

            Population analysis using the SCF density.

 **********************************************************************

 Orbital symmetries:
       Occupied  (A) (A) (A) (A) (A) (A) (A) (A) (A) (A) (A) (A)
                 (A) (A) (A) (A) (A) (A) (A) (A) (A) (A) (A) (A)
                 (A) (A) (A) (A) (A) (A) (A) (A) (A) (A) (A) (A)
                 (A) (A) (A) (A) (A) (A) (A) (A) (A) (A) (A) (A)
                 (A) (A) (A) (A) (A) (A) (A) (A) (A) (A) (A) (A)
                 (A) (A) (A) (A) (A) (A) (A) (A) (A) (A) (A) (A)
                 (A) (A) (A) (A) (A) (A) (A) (A) (A) (A) (A) (A)
                 (A) (A) (A) (A) (A) (A) (A) (A) (A) (A) (A) (A)
                 (A) (A) (A) (A) (A) (A) (A) (A) (A) (A) (A) (A)
                 (A) (A) (A) (A) (A) (A) (A) (A) (A)
       Virtual   (A) (A) (A) (A) (A) (A) (A) (A) (A) (A) (A) (A)
                 (A) (A) (A) (A) (A) (A) (A) (A) (A) (A) (A) (A)
                 (A) (A) (A) (A) (A) (A) (A) (A) (A) (A) (A) (A)
                 (A) (A) (A) (A) (A) (A) (A) (A) (A) (A) (A) (A)
                 (A) (A) (A) (A) (A) (A) (A) (A) (A) (A) (A) (A)
                 (A) (A) (A) (A) (A) (A) (A) (A) (A) (A) (A) (A)
                 (A) (A) (A) (A) (A) (A) (A) (A) (A) (A) (A) (A)
                 (A) (A) (A) (A) (A) (A) (A) (A) (A) (A) (A) (A)
                 (A) (A) (A) (A) (A) (A) (A) (A) (A) (A) (A) (A)
                 (A) (A) (A) (A) (A) (A) (A) (A) (A) (A) (A) (A)
                 (A) (A) (A) (A) (A) (A) (A) (A) (A) (A) (A) (A)
                 (A) (A) (A) (A) (A) (A) (A) (A) (A) (A) (A) (A)
                 (A) (A) (A) (A) (A) (A) (A) (A) (A) (A) (A) (A)
                 (A) (A) (A) (A) (A) (A) (A) (A) (A) (A) (A) (A)
                 (A) (A) (A) (A) (A) (A) (A) (A) (A) (A) (A) (A)
                 (A) (A) (A) (A) (A) (A) (A) (A) (A) (A) (A) (A)
                 (A) (A) (A) (A) (A) (A) (A) (A) (A) (A) (A) (A)
                 (A) (A) (A) (A) (A) (A) (A) (A) (A) (A) (A) (A)
                 (A) (A) (A) (A) (A) (A) (A) (A) (A) (A) (A) (A)
                 (A) (A) (A) (A) (A) (A) (A) (A) (A) (A) (A) (A)
                 (A) (A) (A) (A) (A) (A) (A) (A) (A) (A) (A) (A)
                 (A) (A) (A) (A) (A) (A) (A) (A) (A) (A) (A) (A)
                 (A) (A) (A) (A) (A) (A) (A) (A) (A) (A) (A) (A)
                 (A) (A) (A) (A) (A) (A) (A) (A) (A) (A) (A) (A)
                 (A) (A) (A) (A) (A) (A) (A) (A) (A) (A) (A) (A)
                 (A) (A) (A) (A) (A) (A) (A) (A) (A) (A) (A) (A)
                 (A) (A) (A) (A) (A) (A) (A) (A) (A) (A) (A) (A)
                 (A) (A) (A) (A) (A) (A) (A) (A) (A) (A) (A) (A)
                 (A) (A) (A) (A) (A) (A) (A) (A) (A) (A) (A) (A)
                 (A) (A) (A) (A) (A) (A) (A) (A) (A) (A) (A) (A)
                 (A) (A) (A) (A) (A) (A) (A) (A) (A) (A) (A) (A)
                 (A) (A) (A) (A) (A) (A) (A) (A) (A) (A) (A) (A)
                 (A) (A) (A) (A) (A) (A) (A) (A) (A) (A) (A) (A)
                 (A) (A) (A) (A) (A) (A) (A) (A) (A) (A) (A) (A)
                 (A) (A) (A) (A) (A) (A) (A) (A) (A) (A) (A) (A)
                 (A) (A) (A) (A) (A) (A) (A) (A) (A) (A) (A) (A)
                 (A) (A) (A) (A) (A) (A) (A) (A) (A) (A) (A) (A)
                 (A) (A) (A) (A) (A) (A) (A) (A) (A) (A) (A) (A)
                 (A) (A) (A) (A) (A) (A) (A) (A) (A) (A) (A) (A)
                 (A) (A) (A) (A) (A) (A) (A) (A) (A) (A) (A) (A)
                 (A)
 The electronic state is 1-A.
 Alpha  occ. eigenvalues -- -453.88449 -88.97806 -88.88030 -66.00980 -57.49627
 Alpha  occ. eigenvalues --  -52.16659 -52.16486 -52.16406 -19.23845 -14.35877
 Alpha  occ. eigenvalues --  -14.35649 -14.35625 -10.26723 -10.26214 -10.25732
 Alpha  occ. eigenvalues --  -10.25347 -10.23732 -10.23445 -10.23119 -10.20579
 Alpha  occ. eigenvalues --  -10.20454 -10.20154 -10.19438 -10.18781 -10.18687
 Alpha  occ. eigenvalues --  -10.18661 -10.17789 -10.17703 -10.17194 -10.13490
 Alpha  occ. eigenvalues --  -10.13060  -8.05184  -7.98181  -7.76641  -6.01608
 Alpha  occ. eigenvalues --   -6.00982  -6.00775  -5.94410  -5.93664  -5.93616
 Alpha  occ. eigenvalues --   -5.81121  -5.80179  -5.79827  -5.21307  -3.57317
 Alpha  occ. eigenvalues --   -3.56781  -3.56436  -2.17650  -2.17122  -2.16197
 Alpha  occ. eigenvalues --   -2.15658  -2.15474  -1.17703  -1.17668  -1.06336
 Alpha  occ. eigenvalues --   -1.03070  -0.97821  -0.96441  -0.90905  -0.86933
 Alpha  occ. eigenvalues --   -0.83800  -0.83008  -0.82078  -0.79007  -0.75876
 Alpha  occ. eigenvalues --   -0.75192  -0.74891  -0.70372  -0.70015  -0.67215
 Alpha  occ. eigenvalues --   -0.64220  -0.63144  -0.61379  -0.61159  -0.60633
 Alpha  occ. eigenvalues --   -0.58017  -0.57183  -0.57059  -0.55475  -0.55041
 Alpha  occ. eigenvalues --   -0.54955  -0.53123  -0.52420  -0.51736  -0.50100
 Alpha  occ. eigenvalues --   -0.49303  -0.48498  -0.47515  -0.45775  -0.45278
 Alpha  occ. eigenvalues --   -0.43744  -0.43340  -0.43315  -0.42030  -0.41677
 Alpha  occ. eigenvalues --   -0.41491  -0.40733  -0.40028  -0.38863  -0.38050
 Alpha  occ. eigenvalues --   -0.37450  -0.36105  -0.34823  -0.34137  -0.33493
 Alpha  occ. eigenvalues --   -0.31839  -0.30991  -0.29928  -0.29878  -0.29710
 Alpha  occ. eigenvalues --   -0.28754  -0.28213  -0.27781  -0.26374  -0.25140
 Alpha  occ. eigenvalues --   -0.23658  -0.21604
 Alpha virt. eigenvalues --   -0.08076  -0.06441  -0.03406  -0.01794  -0.01358
 Alpha virt. eigenvalues --   -0.00339   0.00048   0.00279   0.00882   0.01307
 Alpha virt. eigenvalues --    0.01485   0.01686   0.02031   0.02410   0.02472
 Alpha virt. eigenvalues --    0.02619   0.03024   0.03606   0.03690   0.03845
 Alpha virt. eigenvalues --    0.03916   0.04342   0.04877   0.04991   0.05172
 Alpha virt. eigenvalues --    0.05676   0.05748   0.05823   0.06596   0.06780
 Alpha virt. eigenvalues --    0.07232   0.07391   0.07661   0.08298   0.08856
 Alpha virt. eigenvalues --    0.09192   0.09425   0.09475   0.09842   0.10016
 Alpha virt. eigenvalues --    0.10314   0.10671   0.10843   0.11229   0.11386
 Alpha virt. eigenvalues --    0.11489   0.11885   0.11951   0.12080   0.12255
 Alpha virt. eigenvalues --    0.12328   0.12768   0.12947   0.13300   0.13343
 Alpha virt. eigenvalues --    0.13385   0.13527   0.13813   0.14126   0.14230
 Alpha virt. eigenvalues --    0.14549   0.15025   0.15206   0.15312   0.15477
 Alpha virt. eigenvalues --    0.15644   0.15754   0.15958   0.16399   0.16849
 Alpha virt. eigenvalues --    0.16935   0.17090   0.17190   0.17375   0.17802
 Alpha virt. eigenvalues --    0.18021   0.18269   0.18330   0.18639   0.18947
 Alpha virt. eigenvalues --    0.19170   0.19384   0.19748   0.19813   0.20189
 Alpha virt. eigenvalues --    0.20604   0.20914   0.21103   0.21437   0.21514
 Alpha virt. eigenvalues --    0.21745   0.22165   0.22661   0.23119   0.23365
 Alpha virt. eigenvalues --    0.23585   0.23765   0.24338   0.24723   0.24990
 Alpha virt. eigenvalues --    0.25175   0.25363   0.25942   0.26292   0.26514
 Alpha virt. eigenvalues --    0.26661   0.27094   0.27346   0.27820   0.28289
 Alpha virt. eigenvalues --    0.28414   0.28456   0.29192   0.29548   0.29671
 Alpha virt. eigenvalues --    0.29844   0.30233   0.30547   0.30786   0.30987
 Alpha virt. eigenvalues --    0.31433   0.31767   0.32559   0.32661   0.32701
 Alpha virt. eigenvalues --    0.33069   0.33426   0.34178   0.34471   0.35070
 Alpha virt. eigenvalues --    0.35288   0.35757   0.36461   0.36613   0.37143
 Alpha virt. eigenvalues --    0.37244   0.37820   0.37959   0.38384   0.38754
 Alpha virt. eigenvalues --    0.39359   0.39598   0.40387   0.41172   0.41255
 Alpha virt. eigenvalues --    0.41768   0.42368   0.42897   0.43597   0.43627
 Alpha virt. eigenvalues --    0.44063   0.44657   0.45552   0.46441   0.47130
 Alpha virt. eigenvalues --    0.47801   0.48442   0.49697   0.50031   0.50506
 Alpha virt. eigenvalues --    0.50801   0.51397   0.52613   0.53842   0.55006
 Alpha virt. eigenvalues --    0.55595   0.56609   0.57290   0.57907   0.59339
 Alpha virt. eigenvalues --    0.60625   0.61661   0.62565   0.63345   0.64799
 Alpha virt. eigenvalues --    0.66228   0.66773   0.67525   0.67609   0.68447
 Alpha virt. eigenvalues --    0.69154   0.69311   0.70018   0.70251   0.70742
 Alpha virt. eigenvalues --    0.70992   0.71934   0.72496   0.72777   0.73211
 Alpha virt. eigenvalues --    0.73325   0.73696   0.73797   0.74458   0.75005
 Alpha virt. eigenvalues --    0.75488   0.75667   0.76146   0.77142   0.77323
 Alpha virt. eigenvalues --    0.77866   0.77988   0.79075   0.79457   0.80296
 Alpha virt. eigenvalues --    0.80374   0.80656   0.81522   0.81831   0.82249
 Alpha virt. eigenvalues --    0.82780   0.83147   0.84473   0.84903   0.85734
 Alpha virt. eigenvalues --    0.86156   0.87140   0.87585   0.88299   0.89711
 Alpha virt. eigenvalues --    0.89961   0.90419   0.91528   0.92140   0.92221
 Alpha virt. eigenvalues --    0.93420   0.93625   0.94901   0.95040   0.95709
 Alpha virt. eigenvalues --    0.96690   0.96776   0.97442   0.98021   0.98197
 Alpha virt. eigenvalues --    0.99322   0.99989   1.00485   1.00909   1.01828
 Alpha virt. eigenvalues --    1.03787   1.04189   1.05760   1.07149   1.07673
 Alpha virt. eigenvalues --    1.07999   1.08287   1.10453   1.11023   1.11643
 Alpha virt. eigenvalues --    1.13078   1.13417   1.14189   1.15414   1.16002
 Alpha virt. eigenvalues --    1.17818   1.17988   1.18620   1.19311   1.20329
 Alpha virt. eigenvalues --    1.21098   1.21882   1.22222   1.22452   1.23760
 Alpha virt. eigenvalues --    1.25015   1.26073   1.26270   1.27073   1.27240
 Alpha virt. eigenvalues --    1.28353   1.29275   1.30579   1.31044   1.31457
 Alpha virt. eigenvalues --    1.32316   1.32955   1.33358   1.34584   1.34908
 Alpha virt. eigenvalues --    1.35227   1.35380   1.36398   1.37147   1.37595
 Alpha virt. eigenvalues --    1.38105   1.39423   1.39754   1.40234   1.40945
 Alpha virt. eigenvalues --    1.41317   1.42477   1.42726   1.43050   1.44452
 Alpha virt. eigenvalues --    1.45087   1.46933   1.47684   1.50888   1.51272
 Alpha virt. eigenvalues --    1.52041   1.52905   1.55179   1.55408   1.57929
 Alpha virt. eigenvalues --    1.59312   1.60172   1.60761   1.61969   1.63112
 Alpha virt. eigenvalues --    1.63692   1.64624   1.67301   1.68272   1.70556
 Alpha virt. eigenvalues --    1.71730   1.73049   1.74572   1.76940   1.78014
 Alpha virt. eigenvalues --    1.78993   1.79330   1.82817   1.82842   1.83289
 Alpha virt. eigenvalues --    1.85108   1.86168   1.88236   1.89887   1.90713
 Alpha virt. eigenvalues --    1.92758   1.93203   1.93764   1.94187   1.95262
 Alpha virt. eigenvalues --    1.96651   1.97647   1.97904   1.99385   2.00275
 Alpha virt. eigenvalues --    2.00813   2.01492   2.02815   2.04406   2.05882
 Alpha virt. eigenvalues --    2.06237   2.07712   2.08309   2.09517   2.10319
 Alpha virt. eigenvalues --    2.10741   2.11457   2.13792   2.15262   2.16178
 Alpha virt. eigenvalues --    2.16311   2.19326   2.20391   2.21279   2.21584
 Alpha virt. eigenvalues --    2.22420   2.23371   2.24367   2.25077   2.26266
 Alpha virt. eigenvalues --    2.26804   2.28466   2.29978   2.31051   2.32065
 Alpha virt. eigenvalues --    2.32353   2.34375   2.35226   2.36747   2.36907
 Alpha virt. eigenvalues --    2.38169   2.38679   2.40626   2.41003   2.42494
 Alpha virt. eigenvalues --    2.43817   2.43998   2.46462   2.47408   2.48003
 Alpha virt. eigenvalues --    2.48351   2.48932   2.51076   2.53507   2.54289
 Alpha virt. eigenvalues --    2.54919   2.55262   2.56989   2.58173   2.58874
 Alpha virt. eigenvalues --    2.59669   2.60305   2.61678   2.62204   2.64636
 Alpha virt. eigenvalues --    2.66205   2.66461   2.66633   2.68135   2.69109
 Alpha virt. eigenvalues --    2.70019   2.70366   2.71872   2.74084   2.74904
 Alpha virt. eigenvalues --    2.75122   2.75999   2.76917   2.78568   2.81184
 Alpha virt. eigenvalues --    2.81363   2.81948   2.84294   2.84357   2.84818
 Alpha virt. eigenvalues --    2.86678   2.87493   2.89763   2.90237   2.91608
 Alpha virt. eigenvalues --    2.93423   2.96900   2.97742   2.98945   3.00306
 Alpha virt. eigenvalues --    3.04312   3.06631   3.08803   3.09711   3.15761
 Alpha virt. eigenvalues --    3.18014   3.20136   3.24431   3.24629   3.25259
 Alpha virt. eigenvalues --    3.33581   3.35873   3.38629   3.40671   3.41244
 Alpha virt. eigenvalues --    3.43176   3.51265   3.56010   3.56592   3.69987
 Alpha virt. eigenvalues --    3.71804   3.86841   3.89289   3.95610   3.98920
 Alpha virt. eigenvalues --    4.11209   4.23305   4.32427   4.35435   4.35739
 Alpha virt. eigenvalues --    4.39604   4.40674   4.42398   4.44003   4.45923
 Alpha virt. eigenvalues --    4.46749   4.47295   4.51680   4.55758   4.56311
 Alpha virt. eigenvalues --    4.60603   4.69431   4.72675   4.76690   4.81426
 Alpha virt. eigenvalues --    4.84215   4.89512   4.97932   5.06083   8.54847
 Alpha virt. eigenvalues --   83.79536
          Condensed to atoms (all electrons):
              1          2          3          4          5          6
     1  Si  14.428248   0.161305   0.177088  -0.200050   0.926904   0.679552
     2  H    0.161305   0.929121  -0.091123  -0.000773  -0.068905  -0.050419
     3  H    0.177088  -0.091123   0.912053   0.012855  -0.036633  -0.036785
     4  C   -0.200050  -0.000773   0.012855  10.906898  -1.661857  -3.481557
     5  C    0.926904  -0.068905  -0.036633  -1.661857  16.388464  -1.288919
     6  C    0.679552  -0.050419  -0.036785  -3.481557  -1.288919  16.703938
     7  C    0.151991   0.053869   0.048367   0.025305  -5.172028   1.238700
     8  C   -1.556529   0.101720   0.037038   1.328130  -6.310928  -4.816175
     9  S   -1.061145   0.041042   0.054281   0.159056   1.896530  -0.571152
    10  C    0.407790   0.001359   0.000067  -1.297688   4.682059   1.558816
    11  C   -0.025392   0.008898   0.012854   0.208479   0.041695   0.474257
    12  C   -0.115349   0.004787   0.004669  -0.290340   0.203080  -3.098357
    13  N    0.002944  -0.000049  -0.000174  -0.020562  -0.076271   0.115765
    14  C    0.022289   0.001039   0.000787  -0.263225  -1.042195   0.136391
    15  C    0.000844   0.000181   0.000104  -0.018964  -0.142479   0.292199
    16  C   -0.000666  -0.000022   0.000035   0.001762   0.010543  -0.054605
    17  C    0.000158   0.000001  -0.000001  -0.000621  -0.008020   0.003448
    18  C   -0.000134   0.000001  -0.000000   0.000718   0.008959   0.002882
    19  Se  -0.000110   0.000020  -0.000016   0.002273   0.020620  -0.013721
    20  C   -0.038944   0.000926   0.001110   0.069334  -0.193006  -0.327959
    21  N    0.001867  -0.000073  -0.000089  -0.000730   0.025201   0.077725
    22  S   -0.003173  -0.000052   0.000059   0.001910  -0.027714  -0.109492
    23  N   -0.000881   0.000077   0.000185   0.015153   0.016171  -0.159554
    24  C   -0.015555  -0.000068  -0.001956  -0.175096  -1.428047   0.676382
    25  C   -0.311227   0.031156   0.023473   0.286164  -0.268116  -0.475024
    26  C    0.155768  -0.042919  -0.032280   0.307707  -0.213838  -0.626341
    27  C   -0.220309   0.053537   0.035741   0.018884  -0.204137  -0.414762
    28  C    0.048080  -0.003248  -0.001352   0.044609   0.021120  -0.014650
    29  O   -0.037330   0.000871   0.000921  -0.005397   0.003690   0.010038
    30  H   -0.117807   0.009289   0.006135   0.199585  -0.075990   0.044231
    31  H    0.031054  -0.007422  -0.001820   0.542319   0.341675  -0.498221
    32  H   -0.062040   0.004541   0.001467  -0.165765  -0.491326   0.203087
    33  H    0.000078  -0.000007   0.000001   0.000162   0.002451   0.000470
    34  H   -0.000001   0.000000   0.000000  -0.000006  -0.000153  -0.000053
    35  H   -0.000003   0.000000  -0.000000   0.000036   0.000347   0.000184
    36  H   -0.128351  -0.001419   0.004110  -0.020212   0.009728  -0.112202
    37  H   -0.002576   0.000297  -0.000127  -0.001646   0.001593   0.004352
    38  H    0.003829   0.000046   0.000038   0.001132  -0.000022   0.000201
              7          8          9         10         11         12
     1  Si   0.151991  -1.556529  -1.061145   0.407790  -0.025392  -0.115349
     2  H    0.053869   0.101720   0.041042   0.001359   0.008898   0.004787
     3  H    0.048367   0.037038   0.054281   0.000067   0.012854   0.004669
     4  C    0.025305   1.328130   0.159056  -1.297688   0.208479  -0.290340
     5  C   -5.172028  -6.310928   1.896530   4.682059   0.041695   0.203080
     6  C    1.238700  -4.816175  -0.571152   1.558816   0.474257  -3.098357
     7  C   14.140622   5.282066  -2.917402  -4.980323   0.873754  -0.120562
     8  C    5.282066  22.930708  -4.643229  -9.776048   1.839547   1.055082
     9  S   -2.917402  -4.643229  29.926557  -0.127224  -0.703413  -0.651005
    10  C   -4.980323  -9.776048  -0.127224  20.113837  -0.583197  -3.381583
    11  C    0.873754   1.839547  -0.703413  -0.583197  20.140709  -9.559133
    12  C   -0.120562   1.055082  -0.651005  -3.381583  -9.559133  19.596533
    13  N    0.026619   0.038318  -0.012241  -0.096574   0.669813  -0.323569
    14  C    0.192283   0.225558  -0.421057  -0.293529  -5.175765  -0.342729
    15  C   -0.002047  -0.090182  -0.088433   0.316693   0.359262  -1.733892
    16  C    0.006581   0.007732  -0.002680  -0.008456  -0.332416   0.004327
    17  C    0.000352   0.002430   0.004347  -0.000304  -0.156645   0.113921
    18  C   -0.000492  -0.002727  -0.003161   0.003804   0.263202  -0.108149
    19  Se  -0.004510  -0.005391   0.003685   0.025656   0.143102  -0.048379
    20  C    0.348968   0.572633  -0.166760  -0.911015   0.334391   0.791046
    21  N   -0.035345  -0.016612  -0.024302  -0.032712   0.622034  -0.114523
    22  S    0.002673   0.100164   0.055970  -0.348325  -0.449451   0.505644
    23  N    0.027707   0.082515   0.313510  -0.512730  -0.919368   0.390826
    24  C    0.564949   1.473398  -1.384215  -1.131602  -0.145955   1.884144
    25  C   -0.804224   0.168456  -2.064012   1.930191  -0.331327  -0.299355
    26  C   -1.042844  -2.252550  -1.568014   0.559434  -0.221379  -0.074685
    27  C   -1.119343   0.707136   0.249080   0.305774   0.043828   0.005646
    28  C   -0.084196  -0.116027  -0.215463  -0.117711  -0.008153   0.001739
    29  O   -0.132778  -0.680184   0.041685   0.210434  -0.030169  -0.004651
    30  H    0.120383   0.111886  -0.078724   0.005363  -0.026663   0.045676
    31  H    0.017749  -0.028259   0.132586  -0.140274   0.252840  -0.226764
    32  H    0.218487   0.266339  -0.421978  -0.439470  -1.254934   1.316553
    33  H   -0.000680  -0.001273  -0.000734   0.006811   0.067750  -0.066330
    34  H    0.000024   0.000058   0.000068  -0.000093  -0.006822   0.005869
    35  H   -0.000005  -0.000066  -0.000202  -0.000093   0.010409   0.000688
    36  H   -0.131549  -0.134699   0.243901   0.076619  -0.026537  -0.009427
    37  H   -0.040015   0.023403  -0.000198   0.014207  -0.001487  -0.000098
    38  H    0.000562   0.035849  -0.027433  -0.008209   0.000883   0.000374
             13         14         15         16         17         18
     1  Si   0.002944   0.022289   0.000844  -0.000666   0.000158  -0.000134
     2  H   -0.000049   0.001039   0.000181  -0.000022   0.000001   0.000001
     3  H   -0.000174   0.000787   0.000104   0.000035  -0.000001  -0.000000
     4  C   -0.020562  -0.263225  -0.018964   0.001762  -0.000621   0.000718
     5  C   -0.076271  -1.042195  -0.142479   0.010543  -0.008020   0.008959
     6  C    0.115765   0.136391   0.292199  -0.054605   0.003448   0.002882
     7  C    0.026619   0.192283  -0.002047   0.006581   0.000352  -0.000492
     8  C    0.038318   0.225558  -0.090182   0.007732   0.002430  -0.002727
     9  S   -0.012241  -0.421057  -0.088433  -0.002680   0.004347  -0.003161
    10  C   -0.096574  -0.293529   0.316693  -0.008456  -0.000304   0.003804
    11  C    0.669813  -5.175765   0.359262  -0.332416  -0.156645   0.263202
    12  C   -0.323569  -0.342729  -1.733892   0.004327   0.113921  -0.108149
    13  N    6.976071  -0.283511  -0.668752  -0.090598   0.085236  -0.045371
    14  C   -0.283511  26.267091   7.204946  -2.442390   0.881047  -0.580711
    15  C   -0.668752   7.204946  17.120124  -4.401376   2.451202  -2.183889
    16  C   -0.090598  -2.442390  -4.401376  13.100062  -4.056910   2.319392
    17  C    0.085236   0.881047   2.451202  -4.056910   9.976598  -2.510625
    18  C   -0.045371  -0.580711  -2.183889   2.319392  -2.510625   7.425544
    19  Se   0.019928  -0.780702  -0.200717   0.493535  -0.048081   0.222992
    20  C    0.612139  -8.154866  -8.273076   0.749588  -0.257894   0.379983
    21  N    0.045906  -1.066018  -0.247289   0.102663   0.040859  -0.033156
    22  S    0.061505  -0.871183  -0.549996   0.048710   0.060249  -0.031484
    23  N   -0.009673   0.730610  -0.051795   0.056615  -0.003797  -0.005081
    24  C    0.160299  -7.274028  -2.882575   0.171951   0.031299   0.048763
    25  C    0.001959  -0.331745  -0.006731   0.000108  -0.000113   0.000296
    26  C    0.000237  -0.042217  -0.000689   0.000051   0.000009   0.000004
    27  C    0.000102   0.003541   0.000105   0.000019  -0.000001   0.000000
    28  C   -0.000040  -0.008445  -0.000216  -0.000012  -0.000001   0.000002
    29  O   -0.000008   0.000743   0.000060   0.000001  -0.000000   0.000000
    30  H    0.000125   0.001820  -0.000401  -0.000002  -0.000007  -0.000016
    31  H   -0.000332  -0.230590  -0.028428   0.001665  -0.001321   0.002005
    32  H   -0.179242   0.680271   0.107798   0.007243   0.008784  -0.015354
    33  H   -0.009865  -0.175279  -0.312102   0.812713  -0.505784   0.211078
    34  H    0.000232   0.052768   0.214808  -0.470510   0.718699  -0.265909
    35  H   -0.000896  -0.014047  -0.294923   0.304149  -0.563991   0.838072
    36  H   -0.000035  -0.000987   0.000082  -0.000010   0.000002   0.000000
    37  H    0.000000  -0.000021   0.000002  -0.000000  -0.000000   0.000000
    38  H   -0.000000  -0.000282  -0.000015   0.000000  -0.000000   0.000000
             19         20         21         22         23         24
     1  Si  -0.000110  -0.038944   0.001867  -0.003173  -0.000881  -0.015555
     2  H    0.000020   0.000926  -0.000073  -0.000052   0.000077  -0.000068
     3  H   -0.000016   0.001110  -0.000089   0.000059   0.000185  -0.001956
     4  C    0.002273   0.069334  -0.000730   0.001910   0.015153  -0.175096
     5  C    0.020620  -0.193006   0.025201  -0.027714   0.016171  -1.428047
     6  C   -0.013721  -0.327959   0.077725  -0.109492  -0.159554   0.676382
     7  C   -0.004510   0.348968  -0.035345   0.002673   0.027707   0.564949
     8  C   -0.005391   0.572633  -0.016612   0.100164   0.082515   1.473398
     9  S    0.003685  -0.166760  -0.024302   0.055970   0.313510  -1.384215
    10  C    0.025656  -0.911015  -0.032712  -0.348325  -0.512730  -1.131602
    11  C    0.143102   0.334391   0.622034  -0.449451  -0.919368  -0.145955
    12  C   -0.048379   0.791046  -0.114523   0.505644   0.390826   1.884144
    13  N    0.019928   0.612139   0.045906   0.061505  -0.009673   0.160299
    14  C   -0.780702  -8.154866  -1.066018  -0.871183   0.730610  -7.274028
    15  C   -0.200717  -8.273076  -0.247289  -0.549996  -0.051795  -2.882575
    16  C    0.493535   0.749588   0.102663   0.048710   0.056615   0.171951
    17  C   -0.048081  -0.257894   0.040859   0.060249  -0.003797   0.031299
    18  C    0.222992   0.379983  -0.033156  -0.031484  -0.005081   0.048763
    19  Se  33.965641   0.263755   0.002191  -0.001952  -0.012486   0.001519
    20  C    0.263755  17.262603   0.187715  -0.071529   0.209672   2.716633
    21  N    0.002191   0.187715   7.911317  -0.297810  -0.668130   0.755960
    22  S   -0.001952  -0.071529  -0.297810  16.973825  -0.219558  -0.039713
    23  N   -0.012486   0.209672  -0.668130  -0.219558   8.612149  -0.528038
    24  C    0.001519   2.716633   0.755960  -0.039713  -0.528038  12.661169
    25  C    0.000647  -0.014641   0.002641   0.049965  -0.049643  -0.166860
    26  C    0.000082  -0.011238   0.001338   0.016346   0.013582  -0.132301
    27  C   -0.000025   0.014993  -0.001264  -0.004430  -0.009013   0.009412
    28  C    0.000024  -0.014454   0.001571   0.005824   0.003795  -0.006200
    29  O    0.000001   0.002488  -0.000153  -0.001735  -0.000986  -0.011207
    30  H   -0.000160   0.000789   0.000008   0.000203  -0.000109   0.018142
    31  H    0.005417   0.056386   0.000073   0.003959   0.005015  -0.088045
    32  H   -0.032457  -0.117782  -0.009939  -0.012779  -0.003981   0.145755
    33  H    0.054205   0.123016  -0.001428  -0.019150  -0.001189  -0.003056
    34  H    0.040030   0.002580   0.000331   0.001392   0.000092   0.001987
    35  H   -0.226301   0.016100  -0.002325  -0.001108  -0.000293   0.001346
    36  H    0.000008   0.000422   0.000118   0.000255   0.000825   0.001270
    37  H   -0.000000  -0.000052  -0.000006  -0.000064  -0.000057  -0.000656
    38  H   -0.000000  -0.000539   0.000066   0.000369   0.000136   0.000184
             25         26         27         28         29         30
     1  Si  -0.311227   0.155768  -0.220309   0.048080  -0.037330  -0.117807
     2  H    0.031156  -0.042919   0.053537  -0.003248   0.000871   0.009289
     3  H    0.023473  -0.032280   0.035741  -0.001352   0.000921   0.006135
     4  C    0.286164   0.307707   0.018884   0.044609  -0.005397   0.199585
     5  C   -0.268116  -0.213838  -0.204137   0.021120   0.003690  -0.075990
     6  C   -0.475024  -0.626341  -0.414762  -0.014650   0.010038   0.044231
     7  C   -0.804224  -1.042844  -1.119343  -0.084196  -0.132778   0.120383
     8  C    0.168456  -2.252550   0.707136  -0.116027  -0.680184   0.111886
     9  S   -2.064012  -1.568014   0.249080  -0.215463   0.041685  -0.078724
    10  C    1.930191   0.559434   0.305774  -0.117711   0.210434   0.005363
    11  C   -0.331327  -0.221379   0.043828  -0.008153  -0.030169  -0.026663
    12  C   -0.299355  -0.074685   0.005646   0.001739  -0.004651   0.045676
    13  N    0.001959   0.000237   0.000102  -0.000040  -0.000008   0.000125
    14  C   -0.331745  -0.042217   0.003541  -0.008445   0.000743   0.001820
    15  C   -0.006731  -0.000689   0.000105  -0.000216   0.000060  -0.000401
    16  C    0.000108   0.000051   0.000019  -0.000012   0.000001  -0.000002
    17  C   -0.000113   0.000009  -0.000001  -0.000001  -0.000000  -0.000007
    18  C    0.000296   0.000004   0.000000   0.000002   0.000000  -0.000016
    19  Se   0.000647   0.000082  -0.000025   0.000024   0.000001  -0.000160
    20  C   -0.014641  -0.011238   0.014993  -0.014454   0.002488   0.000789
    21  N    0.002641   0.001338  -0.001264   0.001571  -0.000153   0.000008
    22  S    0.049965   0.016346  -0.004430   0.005824  -0.001735   0.000203
    23  N   -0.049643   0.013582  -0.009013   0.003795  -0.000986  -0.000109
    24  C   -0.166860  -0.132301   0.009412  -0.006200  -0.011207   0.018142
    25  C   12.664936  -4.597951   1.890494  -0.731211   0.017032   0.009171
    26  C   -4.597951  16.782051  -3.979339   1.397958   0.520402   0.011175
    27  C    1.890494  -3.979339   9.956904  -1.243581   0.092183   0.005036
    28  C   -0.731211   1.397958  -1.243581   6.468823  -0.124900   0.000896
    29  O    0.017032   0.520402   0.092183  -0.124900   8.374831  -0.000278
    30  H    0.009171   0.011175   0.005036   0.000896  -0.000278   0.661286
    31  H    0.046000   0.023179  -0.007682   0.004332  -0.000097  -0.079586
    32  H   -0.036763  -0.012531   0.008049  -0.002697   0.000406   0.031198
    33  H    0.000118  -0.000014  -0.000002   0.000004  -0.000000   0.000002
    34  H   -0.000004   0.000000   0.000000  -0.000000   0.000000   0.000000
    35  H    0.000009   0.000000  -0.000000   0.000000   0.000000  -0.000001
    36  H   -0.502765   0.985974  -0.258855   0.075028   0.064135  -0.000115
    37  H   -0.183384   0.055938   0.482617  -0.129045   0.033660  -0.000078
    38  H   -0.002488   0.068231  -0.258860   0.539445  -0.106570   0.000043
             31         32         33         34         35         36
     1  Si   0.031054  -0.062040   0.000078  -0.000001  -0.000003  -0.128351
     2  H   -0.007422   0.004541  -0.000007   0.000000   0.000000  -0.001419
     3  H   -0.001820   0.001467   0.000001   0.000000  -0.000000   0.004110
     4  C    0.542319  -0.165765   0.000162  -0.000006   0.000036  -0.020212
     5  C    0.341675  -0.491326   0.002451  -0.000153   0.000347   0.009728
     6  C   -0.498221   0.203087   0.000470  -0.000053   0.000184  -0.112202
     7  C    0.017749   0.218487  -0.000680   0.000024  -0.000005  -0.131549
     8  C   -0.028259   0.266339  -0.001273   0.000058  -0.000066  -0.134699
     9  S    0.132586  -0.421978  -0.000734   0.000068  -0.000202   0.243901
    10  C   -0.140274  -0.439470   0.006811  -0.000093  -0.000093   0.076619
    11  C    0.252840  -1.254934   0.067750  -0.006822   0.010409  -0.026537
    12  C   -0.226764   1.316553  -0.066330   0.005869   0.000688  -0.009427
    13  N   -0.000332  -0.179242  -0.009865   0.000232  -0.000896  -0.000035
    14  C   -0.230590   0.680271  -0.175279   0.052768  -0.014047  -0.000987
    15  C   -0.028428   0.107798  -0.312102   0.214808  -0.294923   0.000082
    16  C    0.001665   0.007243   0.812713  -0.470510   0.304149  -0.000010
    17  C   -0.001321   0.008784  -0.505784   0.718699  -0.563991   0.000002
    18  C    0.002005  -0.015354   0.211078  -0.265909   0.838072   0.000000
    19  Se   0.005417  -0.032457   0.054205   0.040030  -0.226301   0.000008
    20  C    0.056386  -0.117782   0.123016   0.002580   0.016100   0.000422
    21  N    0.000073  -0.009939  -0.001428   0.000331  -0.002325   0.000118
    22  S    0.003959  -0.012779  -0.019150   0.001392  -0.001108   0.000255
    23  N    0.005015  -0.003981  -0.001189   0.000092  -0.000293   0.000825
    24  C   -0.088045   0.145755  -0.003056   0.001987   0.001346   0.001270
    25  C    0.046000  -0.036763   0.000118  -0.000004   0.000009  -0.502765
    26  C    0.023179  -0.012531  -0.000014   0.000000   0.000000   0.985974
    27  C   -0.007682   0.008049  -0.000002   0.000000  -0.000000  -0.258855
[...]
 3897684,-0.01423412,0.02000733,-0.00436470,-0.00171325,-0.00005557,-0.
 00330634,-0.00001373,0.00005608,0.00000852,-0.00000577,0.00000785,0.00
 001519,0.00001189,0.00001089,-0.00000467,-0.00000811,0.00002767,0.0000
 0953,-0.00000851,0.00003312,0.00000107,-0.00000412,0.00000227,0.000004
 83,-0.00000003,-0.00000446,0.00000734,0.00000480,0.00000120,-0.0000026
 2,0.00000270,0.00000920,-0.00000128,-0.00000407,0.00000241,0.00000099,
 -0.00000083,-0.00000163,-0.00000116,0.00000378,0.00000039,-0.00000384,
 -0.00001232,-0.00000853,-0.00000489,-0.00003987,0.00052210,0.00086390,
 0.19750253,-0.00002000,0.00003750,0.00000347,0.00000733,-0.00001176,0.
 00000191,0.00000492,-0.00001051,-0.00000312,0.00002697,-0.00001447,0.0
 0000355,-0.00003628,-0.00001213,-0.00000971,-0.00003845,0.00003746,0.0
 0001304,-0.00001554,-0.00004734,0.00004177,0.00003540,-0.00000541,-0.0
 0001156,0.00002448,0.00001587,0.00001056,0.00004038,-0.00001118,-0.000
 06387,0.00002031,0.00005407,0.00007077,-0.00004542,-0.00006440,0.00002
 181,0.00044998,-0.00060649,0.00012833,0.00087242,0.00102899,0.00037733
 ,-0.00110704,-0.00529037,-0.00201917,0.02079193,-0.01186275,0.00624788
 ,0.13981822,-0.19861116,0.02815474,-0.00593936,0.00761084,-0.00207648,
 -0.00207214,0.00137052,-0.00170756,-0.00001372,-0.00003690,-0.00003214
 ,0.00003541,0.00006738,0.00001807,-0.00008245,-0.00007249,-0.00004502,
 0.00002065,-0.00004873,-0.00000098,-0.00000944,-0.00001419,-0.00001455
 ,0.00001043,-0.00000358,-0.00001743,0.00000156,0.00000780,-0.00001233,
 -0.00001474,-0.00000139,0.00001107,-0.00000462,-0.00002870,0.00000360,
 0.00000564,0.00000479,-0.00000031,0.00000171,0.00000050,-0.00000257,-0
 .00000588,0.,-0.00000198,0.00000710,-0.00003901,0.00000404,-0.00062057
 ,0.00076339,0.00022106,-0.15239945,0.20552489,-0.00000712,-0.00001061,
 0.00000979,0.00000086,0.00000248,-0.00000242,0.00000186,0.00000241,-0.
 00000210,0.00000091,0.00000715,-0.00000798,0.00000088,-0.00000669,0.00
 000944,-0.00000435,0.00000037,0.00000173,0.00001481,0.00000491,-0.0000
 0252,-0.00001071,0.00000399,0.00000447,0.00000497,-0.00001078,0.000002
 90,-0.00001559,-0.00000188,0.00002228,-0.00001834,0.00000653,0.0000642
 7,0.00020643,0.00001431,-0.00031991,0.00020923,-0.00000727,-0.00024502
 ,-0.00006784,0.00000989,0.00120186,-0.00163814,-0.00245613,0.00219077,
 0.00647953,-0.00490859,0.00249994,-0.03913637,0.02871959,-0.04461998,-
 0.00901718,0.00856763,0.00305211,-0.00368025,-0.00090160,0.00467991,0.
 00000006,0.00001895,-0.00001244,0.00001452,0.00002890,-0.00002926,-0.0
 0001719,-0.00001311,0.00001714,0.00000844,0.00000428,-0.00000948,-0.00
 000162,0.00000416,0.00000006,-0.00000175,-0.00000147,-0.00000288,-0.00
 000214,-0.00000067,-0.00000099,0.00000248,-0.00000018,-0.00000268,0.00
 000088,0.00000597,-0.00000011,0.00000132,-0.00000207,-0.00000100,0.000
 00137,-0.00000014,0.00000008,-0.00000360,0.00000187,-0.00000179,0.0000
 0111,-0.00000757,-0.00001118,0.00063711,0.00068122,-0.00155408,0.04396
 608,-0.03029109,0.03673287,0.00000809,-0.00001238,-0.00000324,-0.00000
 278,0.00000331,-0.00000022,-0.00000150,0.00000367,0.00000146,-0.000003
 23,0.00000676,0.00001149,0.00000118,-0.00000140,-0.00001825,0.00000221
 ,-0.00000248,-0.00000230,0.00000638,0.00000836,0.00001411,-0.00000400,
 0.00000356,-0.00000580,-0.00000786,-0.00000702,0.00000651,0.00001054,0
 .00000192,0.00002106,0.00004539,0.00004638,0.00001793,0.00014165,-0.00
 007349,0.00002418,0.00021947,0.00030454,0.00026153,0.00108110,0.000701
 04,-0.00042499,-0.00341254,0.00321122,-0.00064390,-0.00365538,-0.00016
 263,-0.00407370,0.00022436,-0.02413224,-0.00561612,-0.08141296,-0.0891
 3586,-0.03827589,0.00489669,0.01267506,0.00472609,-0.00041077,0.000259
 11,-0.00003951,-0.00001363,-0.00016077,-0.00006346,0.00005060,0.000063
 35,0.00002344,0.00004971,0.00000138,0.00003355,0.00004542,0.00003541,0
 .00004721,-0.00000453,-0.00000129,-0.00001137,-0.00000126,-0.00000270,
 -0.00000227,0.00000453,0.00000082,0.00000768,0.00000144,0.00000560,-0.
 00000142,-0.00000226,-0.00000028,0.00000138,-0.00000139,-0.00000028,0.
 00000021,0.00000272,-0.00000058,-0.00000330,-0.00001010,0.00001149,-0.
 00001268,0.00033850,-0.00119993,-0.00029275,0.00033871,0.00025053,0.00
 206892,0.08147526,-0.00000650,0.00001613,-0.00000028,0.00000220,-0.000
 00405,0.00000127,0.00000120,-0.00000457,-0.00000083,0.00000195,-0.0000
 0903,-0.00000335,0.00000136,0.00000271,0.00000452,-0.00000020,-0.00000
 463,-0.00001091,-0.00000361,-0.00000882,-0.00001719,-0.00000185,0.0000
 0265,0.00001137,0.00000353,-0.00000081,-0.00000606,-0.00002619,0.00000
 606,0.00001041,-0.00004382,-0.00005744,-0.00001919,-0.00009261,0.00010
 536,-0.00007785,-0.00024328,-0.00040478,-0.00009600,-0.00013071,-0.000
 40132,-0.00058574,0.00229022,-0.00101093,0.00085221,-0.00048914,0.0012
 3728,-0.00108332,0.00312730,0.00130841,0.00084066,-0.09497436,-0.29808
 899,-0.08643311,-0.00616092,-0.00842955,-0.00375233,0.00022846,-0.0000
 8377,0.00011297,-0.00004664,-0.00000046,-0.00002196,0.00003223,0.00000
 104,0.00000856,-0.00003119,-0.00008063,-0.00001241,-0.00005737,-0.0000
 2710,-0.00002106,0.00000591,0.00000474,0.00001021,0.00000076,0.0000005
 7,0.00000477,-0.00000176,-0.00000144,-0.00000485,-0.00000187,-0.000003
 44,-0.00000113,0.00000127,-0.00000214,-0.00000120,0.00000111,0.0000002
 3,-0.00000053,-0.00000162,-0.00000264,0.00000719,0.00001880,-0.0000079
 8,0.00000218,0.00010732,0.00005995,-0.00004183,-0.00080875,0.00026901,
 0.00053547,0.09730009,0.30562016,-0.00000152,-0.00000367,0.00000939,0.
 00000030,0.00000121,-0.00000229,0.00000057,0.00000133,-0.00000209,-0.0
 0000019,0.00000372,-0.00001453,0.00000007,-0.00000225,0.00001941,0.000
 00206,-0.00000700,-0.00000757,-0.00000023,0.00000566,-0.00000933,0.000
 00212,-0.00000076,0.00000492,-0.00000178,0.00001215,-0.00000876,0.0000
 0738,-0.00000171,-0.00004095,0.00002889,0.00001201,0.00002144,0.000002
 62,-0.00002546,0.00010236,0.00015996,0.00011347,-0.00021863,-0.0006191
 0,-0.00024226,0.00220084,-0.00080503,0.00122875,-0.00061233,-0.0041675
 2,-0.00096890,0.00441436,-0.00081867,-0.01032929,0.00150745,-0.0392619
 3,-0.08403313,-0.05684319,0.00145956,0.00396783,0.00010673,-0.00003755
 ,0.00008273,-0.00019416,-0.00003082,-0.00006938,0.00002506,0.00002207,
 0.00002385,0.00003322,0.00003669,-0.00001644,-0.00003132,0.,0.00004698
 ,-0.00003734,-0.00000133,-0.00000042,0.00000203,0.00000121,0.00000102,
 0.00000308,-0.00000095,0.00000012,-0.00000554,0.00000019,0.00000039,0.
 00000101,0.00000080,0.00000156,-0.00000118,0.00000102,0.00000020,0.000
 00174,-0.00000076,0.00000462,-0.00000159,-0.00001384,-0.00000391,0.000
 01829,-0.00004344,-0.00056944,0.00041392,0.00185304,0.00097666,-0.0036
 6587,0.04222589,0.08978933,0.05280890,0.00066851,-0.00032246,0.0002721
 7,-0.00012278,0.00001299,0.00002309,-0.00014269,-0.00007413,-0.0000865
 1,-0.00018365,-0.00001116,-0.00007631,-0.00002447,-0.00001869,0.000001
 58,0.00013287,0.00011978,-0.00019097,0.00002318,-0.00016417,0.00006704
 ,-0.00064713,-0.00034471,-0.00038086,-0.00003371,0.00006841,-0.0000616
 5,-0.00006542,-0.00008728,-0.00000493,0.00004494,0.00002283,0.00005925
 ,-0.00000216,0.00001297,-0.00000334,0.00001652,-0.00000581,-0.00000419
 ,-0.00002205,0.00000508,0.00002434,0.00001838,-0.00000565,-0.00001822,
 -0.00000834,0.00000760,0.00000487,-0.00000499,-0.00000599,-0.00000599,
 0.00000457,-0.00000525,0.00000149,0.00000135,0.00000447,0.00000223,0.0
 0000397,-0.00000539,-0.00000192,0.00000282,-0.00000505,-0.00000290,0.0
 0000152,-0.00000186,0.00000501,0.00000384,0.00000856,-0.00000328,-0.00
 000942,-0.00001785,-0.00001162,-0.00620239,-0.00391876,0.00145812,-0.3
 3424345,0.02850373,0.08300771,-0.00744312,0.00540349,0.00168640,-0.001
 08516,-0.00087476,0.00127092,0.00010445,0.00062925,0.00223377,0.000006
 06,-0.00006186,0.00001040,0.00000969,-0.00000506,0.00003028,0.00000154
 ,0.00000214,0.00000500,0.00000026,0.00000106,0.00000034,0.00000020,-0.
 00000056,0.00000040,0.00000020,-0.00000040,0.00000013,0.34917963,-0.00
 089968,-0.00191841,0.00036993,0.00018271,0.00022264,-0.00002102,0.0001
 7706,0.00024987,-0.00010077,-0.00009324,-0.00002861,0.00002784,0.00014
 231,0.00014447,-0.00004129,-0.00019035,-0.00021370,0.00002356,0.000028
 49,0.00015052,-0.00001222,-0.00036521,0.00051112,-0.00003440,-0.000061
 41,0.00013224,-0.00000958,-0.00007504,0.00016867,0.00002166,-0.0000068
 0,-0.00008287,0.00001294,0.00002666,0.00000534,0.00000891,-0.00003233,
 0.00002415,-0.00000639,0.00001224,-0.00004498,-0.00000715,-0.00002898,
 0.00002836,-0.00000593,0.00001320,-0.00002199,0.00000149,0.00002318,0.
 00001922,0.00001444,-0.00001782,0.00002502,-0.00000258,-0.00000048,-0.
 00001731,-0.00000500,0.00000835,0.00002375,0.00000387,-0.00001214,0.00
 003259,0.00000299,0.00000246,-0.00001062,-0.00000334,-0.00001345,-0.00
 000249,-0.00000723,0.00000859,0.00000447,0.00001286,0.02158458,0.00677
 673,-0.00645742,0.02723288,-0.06012837,-0.00573726,-0.02127957,0.00956
 233,0.00533446,-0.00363238,-0.00594475,0.00150599,0.00601920,-0.003201
 49,-0.00101193,0.00000365,0.00008631,-0.00001041,-0.00003359,0.0000300
 0,0.00000940,-0.00000559,-0.00000352,-0.00001313,0.00000220,-0.0000042
 9,-0.00000038,-0.00000168,0.00000276,-0.00000065,-0.00000071,0.0000009
 1,-0.00000019,-0.02904453,0.05188746,0.00028417,0.00024375,0.00146067,
 -0.00010636,0.00007781,-0.00023888,0.00003262,-0.00011396,-0.00024207,
 -0.00007275,-0.00002713,-0.00041102,0.00000538,-0.00001441,-0.00002240
 ,-0.00016333,-0.00009659,-0.00046805,0.00006719,0.00010477,0.00023179,
 -0.00041029,-0.00010005,-0.00191999,-0.00004714,-0.00001412,-0.0002419
 8,-0.00003740,0.00001811,-0.00003798,0.00006027,-0.00001131,0.00021396
 ,-0.00000185,0.00001983,0.00000245,0.00000572,0.00001698,-0.00002081,-
 0.00000074,-0.00000050,0.00001829,0.00001307,0.00000531,-0.00001268,-0
 .00000466,0.00000045,0.00000485,-0.00000371,-0.00000441,-0.00000297,0.
 00000422,-0.00000484,0.00000066,-0.00000068,0.00000292,0.00000105,-0.0
 0000180,-0.00000145,-0.00001130,0.00000284,-0.00000015,-0.00000237,-0.
 00000676,0.00000578,0.00000357,-0.00000346,-0.00000249,-0.00000520,0.0
 0001051,-0.00002805,-0.00000186,0.00003312,0.00060480,-0.00178524,0.08
 323585,-0.00610005,-0.05038429,0.00312392,-0.00202900,-0.00097130,0.00
 141203,0.00073905,0.00287757,0.00186615,0.00048624,0.00775890,0.000003
 43,0.00001545,0.00000684,0.00002887,0.00002154,0.00009620,-0.00000708,
 0.00000184,0.00000784,-0.00000029,0.00000123,0.00000072,-0.00000040,0.
 00000019,0.00000030,-0.00000003,-0.00000037,0.00000069,-0.08905894,0.0
 0636760,0.04486844,0.00016192,-0.00010349,-0.00000884,-0.00003114,0.00
 003399,-0.00000983,-0.00002585,0.00003710,0.00000751,-0.00004795,0.000
 01465,0.00000230,0.00003702,0.00000531,-0.00000784,0.00002184,0.000024
 82,-0.00000294,-0.00001960,0.00003897,0.00000165,0.00117627,-0.0002444
 4,-0.00006990,-0.00014544,-0.00032602,0.00008624,0.00007624,-0.0001802
 4,-0.00003604,-0.00005229,0.00001281,-0.00001475,0.00001455,-0.0000117
 9,-0.00000937,-0.00000649,-0.00001444,0.00000778,0.00000507,0.00001550
 ,-0.00000896,0.00000675,-0.00000967,0.00001713,-0.00000298,0.00001134,
 -0.00001265,-0.00000778,-0.00000572,-0.00000099,0.00000568,-0.00000647
 ,-0.00000052,-0.00000116,-0.00000071,0.00000097,-0.00000642,-0.0000046
 7,0.00000387,0.00000304,-0.00000712,-0.00000133,-0.00000148,0.00000322
 ,0.00000009,0.00000455,-0.00000148,0.00000367,0.00000161,0.00000066,0.
 00000009,-0.00467527,-0.00385493,0.00252326,0.01020146,-0.01898335,-0.
 00195774,-0.06709119,0.05729871,0.00730360,0.00475289,0.02347418,-0.00
 309480,-0.00321454,0.00552158,0.00298692,-0.00000079,-0.00000304,0.000
 00151,-0.00000432,0.00000019,0.00000337,-0.00000032,0.00000100,-0.0000
 0050,-0.00000110,0.00000096,0.00000033,0.00000019,-0.00000045,0.000000
 14,0.00000003,-0.00000026,0.00000010,0.00019356,0.00112000,-0.00060381
 ,0.05885047,0.00019324,-0.00006067,-0.00004123,-0.00003657,0.00002450,
 -0.00000351,-0.00003181,0.00002514,0.00001565,-0.00006251,0.00001619,0
 .00001593,0.00004426,0.00000147,-0.00001307,-0.00002965,-0.00000742,-0
 .00000110,-0.00004650,-0.00002892,0.00001514,0.00060649,-0.00015872,-0
 .00008602,-0.00017602,-0.00007660,0.00004812,0.00009799,-0.00010776,-0
 .00003332,-0.00005463,0.00005714,0.00000784,-0.00001143,-0.00001784,0.
 00001533,0.00001815,-0.00001801,-0.00000192,-0.00000801,0.00003361,0.0
 0001186,0.00001571,-0.00001355,-0.00000888,-0.00001036,0.00000683,0.00
 001645,-0.00001803,-0.00001526,-0.00001250,0.00001758,-0.00002318,0.00
 000225,0.00000235,0.00001543,0.00000194,-0.00000780,-0.00001658,-0.000
 01866,0.00000744,-0.00002699,-0.00000210,-0.00000630,0.00001254,0.0000
 0146,0.00000863,-0.00000318,0.00001071,0.00000119,-0.00000208,-0.00001
 135,-0.00137817,-0.00167261,0.00068539,0.00731418,-0.00935782,-0.00154
 068,0.05924457,-0.34767820,0.00111198,-0.00330070,-0.00461704,0.001060
 13,0.00052986,0.00068933,0.00029831,-0.00000415,-0.00000870,0.00000182
 ,-0.00000600,-0.00000582,0.00000325,0.00000424,0.00000286,0.00000154,-
 0.00000181,0.00000319,0.,0.00000135,-0.00000255,0.00000031,0.00000055,
 -0.00000058,0.00000048,-0.00021179,0.00043441,-0.00006730,-0.06307355,
 0.36267657,-0.00001940,0.00004021,0.00011108,0.00000359,-0.00001320,-0
 .00002239,0.00000095,-0.00001144,-0.00002775,0.00000198,-0.00001186,-0
 .00004034,-0.00001291,0.00000031,0.00001284,0.00000493,-0.00000910,0.0
 0001875,0.00001102,-0.00001125,-0.00000546,-0.00011995,0.00013598,0.00
 084930,0.00006552,0.00007918,0.00008188,-0.00003880,0.00008197,-0.0000
 9402,-0.00001410,-0.00004176,-0.00009845,0.00003191,0.00002006,-0.0000
 2103,-0.00001968,-0.00002926,0.00001580,0.00003149,0.00001333,-0.00003
 976,-0.00002148,0.00000098,0.00005076,0.00000846,-0.00000067,-0.000026
 95,0.00000359,0.00000122,0.00000824,-0.00000056,0.00000614,-0.00000665
 ,-0.00000536,-0.00001192,0.00000136,-0.00001067,0.00000627,0.00002002,
 0.00000418,0.00000325,-0.00000374,-0.00000850,0.00000225,-0.00000068,0
 .00000505,-0.00000262,-0.00000340,-0.00000832,0.00000126,0.00000937,0.
 00239703,0.00134641,0.00303986,-0.00340519,0.00568896,-0.00005443,0.00
 721773,0.00166390,-0.03120024,-0.00164862,-0.00627052,-0.00105169,0.00
 324633,-0.00107751,0.00794966,0.00000096,0.00000188,0.00000394,0.00000
 212,0.00000118,0.00000524,-0.00000312,0.00000130,0.00000348,-0.0000018
 6,-0.00000081,0.00000219,-0.00000083,0.00000046,0.00000096,-0.00000137
 ,0.00000028,0.00000106,-0.00053116,-0.00043253,-0.00159976,-0.00649488
 ,-0.00125007,0.02448454,-0.00001256,0.00012626,0.00004734,-0.00000043,
 -0.00003382,-0.00000088,0.00000344,-0.00002509,-0.00000784,0.00001166,
 -0.00000267,-0.00002167,-0.00002754,-0.00001018,0.00000574,-0.00005095
 ,0.00001508,-0.00015396,0.00004122,-0.00000866,0.00003308,0.00038201,0
 .00003514,0.00050137,-0.00000709,-0.00003130,-0.00001094,0.00003112,0.
 00005741,-0.00000676,0.00000506,-0.00003180,0.00001667,0.00001331,0.00
 000661,-0.00000230,-0.00000098,-0.00000483,-0.00000809,-0.00000543,0.0
 0000488,0.00000354,0.00001059,-0.00001530,0.00001078,-0.00000391,0.000
 02072,-0.00002339,-0.00000213,0.00000060,0.00000333,-0.00000314,0.0000
 0532,-0.00000163,-0.00000160,-0.00000582,0.00000146,0.00000048,0.00000
 197,0.00001163,0.00000030,0.00000097,0.00000117,-0.00000486,0.00000578
 ,-0.00000360,0.00000262,-0.00000662,0.00000185,0.00000346,-0.00000042,
 0.00000460,0.00182824,0.00157572,-0.00004355,-0.00255706,0.00246402,0.
 00197597,-0.00653225,-0.01181917,0.00303506,-0.31176499,-0.09428133,0.
 08411454,0.00289252,0.00023998,-0.00221595,0.00000072,-0.00000588,0.00
 000089,0.00000541,0.00000100,0.00001102,-0.00000239,0.00000044,0.00000
 370,0.00000064,0.00000092,-0.00000028,0.,0.00000074,-0.00000012,0.0000
 0001,-0.00000064,-0.00000004,-0.00017711,-0.00079279,0.00034209,-0.000
 17703,0.00036801,-0.00067012,0.31609863,0.00003072,-0.00011620,0.00000
 405,-0.00000991,0.00002397,-0.00000356,-0.00000589,0.00003014,0.000003
 54,-0.00003458,0.00000558,0.00000846,0.00004609,-0.00003516,-0.0000136
 4,-0.00017339,-0.00007310,0.00000976,0.00023445,-0.00039110,-0.0000169
 8,-0.00181149,0.00015399,0.00060294,-0.00012883,0.00017369,0.00001226,
 0.00002828,-0.00000784,-0.00000306,-0.00002127,0.00000304,0.00000432,0
 .00000811,-0.00000133,0.00000352,0.00001167,-0.00001007,-0.00000130,-0
 .00000989,0.00000158,-0.00000363,0.00000579,-0.00001078,0.00000833,-0.
 00000324,0.00001039,-0.00000963,-0.00000271,-0.00000210,-0.00000093,0.
 00000174,-0.00000081,-0.00000026,0.00000057,-0.00000030,0.00000073,0.0
 0000512,-0.00000319,0.00000741,0.00000259,-0.00000914,-0.00000472,0.00
 000094,-0.00001076,0.00000606,0.00001290,0.00000741,0.00000139,-0.0000
 1489,0.00000649,-0.00000302,0.00401247,-0.00549566,-0.00070955,0.00345
 596,-0.00137057,-0.00059857,0.01021095,0.01273394,-0.00336646,-0.08281
 397,-0.08500956,0.02605320,-0.03476835,-0.01694121,0.01017676,-0.00000
 178,0.00000201,0.00000043,-0.00002121,-0.00000500,0.00001084,0.0000010
 7,0.00000141,0.00000133,-0.00000016,-0.00000073,0.00000016,-0.00000020
 ,-0.00000029,0.00000011,-0.00000012,-0.00000010,0.00000014,0.00039080,
 0.00110005,-0.00011747,-0.00078314,-0.00007913,0.00007775,0.10214476,0
 .09532041,0.00005984,-0.00003143,0.00016070,-0.00001544,-0.00001022,-0
 .00001500,0.00000531,0.00002898,-0.00002185,-0.00001905,0.00000715,-0.
 00004780,0.00000865,-0.00000636,-0.00001541,-0.00013288,-0.00005046,-0
 .00054830,-0.00000892,0.00005052,0.00013760,0.00060907,0.00004668,0.00
 205237,0.00000120,0.00001871,-0.00003987,-0.00003991,-0.00001795,-0.00
 000098,0.00002754,-0.00000416,0.00008827,-0.00000225,0.00000938,0.0000
 0124,0.00000729,0.00000356,-0.00001330,-0.00000117,0.00000132,0.000021
 24,0.00000311,0.00000512,-0.00002323,-0.00000069,-0.00000657,0.0000161
 3,-0.00000337,-0.00000141,-0.00000366,0.00000360,-0.00000407,-0.000000
 92,-0.00000119,0.00000694,0.00000357,-0.00000286,0.00000380,-0.0000171
 0,0.00000165,0.00000080,-0.00000114,-0.00000575,0.00001371,0.00000669,
 -0.00000185,-0.00001026,-0.00001102,0.00001281,-0.00002123,-0.00000047
 ,-0.00014160,0.00004047,0.00202507,0.00192207,-0.00033332,0.00464378,0
 .00186719,0.00265968,0.00153719,0.08344736,0.02917582,-0.04754992,-0.0
 0031772,0.00057673,-0.00510114,0.00000049,0.00000089,-0.00000032,0.000
 01117,0.00001462,0.00004049,-0.00000208,0.00000387,0.00000503,0.000000
 04,0.00000110,0.00000111,-0.00000031,-0.00000044,0.00000081,-0.0000000
 9,0.00000008,0.00000077,0.00027824,0.00020285,0.00082534,-0.00061483,-
 0.00023415,-0.00237360,-0.08695470,-0.03214073,0.04421765\\0.00004702,
 -0.00004705,-0.00001585,0.00000419,0.00001048,0.00000409,-0.00000707,-
 0.00000063,0.00000351,0.00000910,0.00001457,0.00000241,-0.00000641,0.0
 0000551,-0.00001215,-0.00000396,-0.00000409,0.00000868,-0.00003987,0.0
 0002135,0.00002145,-0.00001937,0.00001203,-0.00000894,0.00001428,-0.00
 001436,-0.00000269,-0.00000597,0.00000445,-0.00000233,0.00000180,-0.00
 000442,-0.00000049,0.00000132,0.00000537,-0.00000266,-0.00000184,-0.00
 000190,0.00000188,0.00000420,0.00000402,0.00000256,-0.00000304,-0.0000
 0590,-0.00000697,-0.00000133,0.00000545,-0.00000110,0.00000187,-0.0000
 0191,0.00000151,0.00000675,-0.00001363,0.00001039,-0.00000830,0.000014
 67,0.00000060,0.00000015,0.00000433,-0.00000050,-0.00001494,-0.0000285
 1,-0.00001028,0.00002813,0.00001313,0.00000777,-0.00001208,0.00001002,
 -0.00000050,0.00000021,-0.00000320,-0.00000741,0.00000441,0.00000114,0
 .00000211,-0.00000039,0.00000045,-0.00000303,-0.00000356,0.00000329,0.
 00000180,0.00000181,-0.00000958,-0.00000314,-0.00000200,0.00000591,-0.
 00000151,0.00000105,0.00000161,0.00000462,0.00000596,-0.00000002,0.000
 01268,-0.00000253,-0.00000123,0.00000459,0.00000307,-0.00000109,-0.000
 00099,-0.00000070,-0.00000080,-0.00000039,-0.00000088,0.00000051,-0.00
 000574,-0.00000068,-0.00000045,0.00000057,-0.00000004,0.00000047,-0.00
 000053,-0.00000040,0.,-0.00000401\\\@


 IF GOD HAD MEANT MAN TO SEE THE SUN RISE, HE
 WOULD HAVE SCHEDULED IT FOR A LATER HOUR.
 Job cpu time:  0 days 15 hours 36 minutes 19.5 seconds.
 File lengths (MBytes):  RWF=   1575 Int=      0 D2E=      0 Chk=     28 Scr=      1
 Normal termination of Gaussian 09 at Sun Dec 29 13:51:35 2013.
