 Entering Gaussian System, Link 0=g09
 Initial command:
 /opt/gaussian/g09/l1.exe /panfs/panfs.cluster/home/shuo/Gau-29856.inp -scrdir=/panfs/panfs.cluster/home/shuo/
 Default is to use a total of  12 processors:
                               12 via shared-memory
                                1 via Linda
 Entering Link 1 = /opt/gaussian/g09/l1.exe PID=     29857.
  
 Copyright (c) 1988,1990,1992,1993,1995,1998,2003,2009,2011,
            Gaussian, Inc.  All Rights Reserved.
  
 This is part of the Gaussian(R) 09 program.  It is based on
 the Gaussian(R) 03 system (copyright 2003, Gaussian, Inc.),
 the Gaussian(R) 98 system (copyright 1998, Gaussian, Inc.),
 the Gaussian(R) 94 system (copyright 1995, Gaussian, Inc.),
 the Gaussian 92(TM) system (copyright 1992, Gaussian, Inc.),
 the Gaussian 90(TM) system (copyright 1990, Gaussian, Inc.),
 the Gaussian 88(TM) system (copyright 1988, Gaussian, Inc.),
 the Gaussian 86(TM) system (copyright 1986, Carnegie Mellon
 University), and the Gaussian 82(TM) system (copyright 1983,
 Carnegie Mellon University). Gaussian is a federally registered
 trademark of Gaussian, Inc.
  
 This software contains proprietary and confidential information,
 including trade secrets, belonging to Gaussian, Inc.
  
 This software is provided under written license and may be
 used, copied, transmitted, or stored only in accord with that
 written license.
  
 The following legend is applicable only to US Government
 contracts under FAR:
  
                    RESTRICTED RIGHTS LEGEND
  
 Use, reproduction and disclosure by the US Government is
 subject to restrictions as set forth in subparagraphs (a)
 and (c) of the Commercial Computer Software - Restricted
 Rights clause in FAR 52.227-19.
  
 Gaussian, Inc.
 340 Quinnipiac St., Bldg. 40, Wallingford CT 06492
  
  
 ---------------------------------------------------------------
 Warning -- This program may not be used in any manner that
 competes with the business of Gaussian, Inc. or will provide
 assistance to any competitor of Gaussian, Inc.  The licensee
 of this program is prohibited from giving any competitor of
 Gaussian, Inc. access to this program.  By using this program,
 the user acknowledges that Gaussian, Inc. is engaged in the
 business of creating and licensing software in the field of
 computational chemistry and represents and warrants to the
 licensee that it is not a competitor of Gaussian, Inc. and that
 it will not use this program in any manner prohibited above.
 ---------------------------------------------------------------
  

 Cite this work as:
 Gaussian 09, Revision C.01,
 M. J. Frisch, G. W. Trucks, H. B. Schlegel, G. E. Scuseria, 
 M. A. Robb, J. R. Cheeseman, G. Scalmani, V. Barone, B. Mennucci, 
 G. A. Petersson, H. Nakatsuji, M. Caricato, X. Li, H. P. Hratchian, 
 A. F. Izmaylov, J. Bloino, G. Zheng, J. L. Sonnenberg, M. Hada, 
 M. Ehara, K. Toyota, R. Fukuda, J. Hasegawa, M. Ishida, T. Nakajima, 
 Y. Honda, O. Kitao, H. Nakai, T. Vreven, J. A. Montgomery, Jr., 
 J. E. Peralta, F. Ogliaro, M. Bearpark, J. J. Heyd, E. Brothers, 
 K. N. Kudin, V. N. Staroverov, T. Keith, R. Kobayashi, J. Normand, 
 K. Raghavachari, A. Rendell, J. C. Burant, S. S. Iyengar, J. Tomasi, 
 M. Cossi, N. Rega, J. M. Millam, M. Klene, J. E. Knox, J. B. Cross, 
 V. Bakken, C. Adamo, J. Jaramillo, R. Gomperts, R. E. Stratmann, 
 O. Yazyev, A. J. Austin, R. Cammi, C. Pomelli, J. W. Ochterski, 
 R. L. Martin, K. Morokuma, V. G. Zakrzewski, G. A. Voth, 
 P. Salvador, J. J. Dannenberg, S. Dapprich, A. D. Daniels, 
 O. Farkas, J. B. Foresman, J. V. Ortiz, J. Cioslowski, 
 and D. J. Fox, Gaussian, Inc., Wallingford CT, 2010.
 
 ******************************************
 Gaussian 09:  EM64L-G09RevC.01 23-Sep-2011
                28-Dec-2013 
 ******************************************
 %chk=12_C18H11N5S3Si.chk
 %NProcShared=12
 Will use up to   12 processors via shared memory.
 %Mem=8000MB
 Default route:  MaxDisk=100GB
 --------------------------------------------
 #B3LYP/6-31++G(d,p) opt scf=direct freq test
 --------------------------------------------
 1/14=-1,18=20,19=15,26=3,38=1/1,3;
 2/9=110,12=2,17=6,18=5,40=1/2;
 3/5=1,6=6,7=1111,11=2,16=1,25=1,30=1,71=1,74=-5/1,2,3;
 4//1;
 5/5=2,38=5/2;
 6/7=2,8=2,9=2,10=2,28=1/1;
 7//1,2,3,16;
 1/14=-1,18=20,19=15/3(2);
 2/9=110/2;
 99//99;
 2/9=110/2;
 3/5=1,6=6,7=1111,11=2,16=1,25=1,30=1,71=1,74=-5/1,2,3;
 4/5=5,16=3/1;
 5/5=2,38=5/2;
 7//1,2,3,16;
 1/14=-1,18=20,19=15/3(-5);
 2/9=110/2;
 6/7=2,8=2,9=2,10=2,19=2,28=1/1;
 99/9=1/99;
 ----------------------------------------------------------------------
 Geom opt of No.12 candidate from the CEPDB database with SMILE code of
  c1cc2c3c[nH]cc3c3c4oc(cc4ncc3c2s1)-c1cncc2nsnc12, HPC, 20131227, Shuo
  Dai, Gaussian09
 ----------------------------------------------------------------------
 Charge =  0 Multiplicity = 1
 Symbolic Z-Matrix:
 C                     2.42968  -2.75818  -0.00002 
 C                     2.73119  -1.41464   0.00046 
 C                     1.54566  -0.67261  -0.00058 
 C                     1.47621   0.76511  -0.00042 
 C                     2.42579   1.75051   0.00005 
 N                     1.72305   2.93982   0.00147 
 H                     2.11156   3.8758    0.0018 
 C                     0.37578   2.67061   0.00937 
 C                     0.2021    1.30893   0.00155 
 C                    -1.00423   0.61273   0.0013 
 C                    -2.23625   1.18507  -0.00102 
 O                    -2.43324   2.49566  -0.00494 
 C                    -3.74991   2.75624  -0.01104 
 C                    -4.42977   1.53431  -0.00609 
 C                    -3.42772   0.49576  -0.00261 
 N                    -3.45542  -0.86933  -0.00159 
 C                    -2.20636  -1.45427  -0.00109 
 C                    -0.95713  -0.78707  -0.0001 
 C                     0.34721  -1.39568  -0.00055 
 S                     0.74687  -3.0781   -0.00139 
 C                    -3.90219   4.19996  -0.01368 
 C                    -2.80001   5.09495  -0.07235 
 N                    -2.76178   6.46799  -0.06109 
 C                    -3.92159   7.15821   0.00878 
 C                    -5.1229    6.42065   0.06836 
 N                    -6.35845   6.93453   0.13655 
 S                    -7.4006    5.64477   0.18833 
 N                    -6.34231   4.37051   0.12777 
 C                    -5.11003   4.89765   0.05886 
 H                     3.11294  -3.59231   0.00036 
 H                     3.73576  -1.01479   0.00167 
 H                     3.50293   1.76045   0.00013 
 H                    -0.31284   3.49169   0.02324 
 H                    -5.49642   1.35925  -0.00693 
 H                    -2.22854  -2.54484  -0.00225 
 H                    -1.79      4.70784  -0.14194 
 H                    -3.85913   8.23873   0.01155 
 

 GradGradGradGradGradGradGradGradGradGradGradGradGradGradGradGradGradGrad
 Berny optimization.
 Initialization pass.
                           ----------------------------
                           !    Initial Parameters    !
                           ! (Angstroms and Degrees)  !
 --------------------------                            --------------------------
 ! Name  Definition              Value          Derivative Info.                !
 --------------------------------------------------------------------------------
 ! R1    R(1,2)                  1.377          estimate D2E/DX2                !
 ! R2    R(1,20)                 1.713          estimate D2E/DX2                !
 ! R3    R(1,30)                 1.0782         estimate D2E/DX2                !
 ! R4    R(2,3)                  1.3986         estimate D2E/DX2                !
 ! R5    R(2,31)                 1.0812         estimate D2E/DX2                !
 ! R6    R(3,4)                  1.4394         estimate D2E/DX2                !
 ! R7    R(3,19)                 1.3997         estimate D2E/DX2                !
 ! R8    R(4,5)                  1.3685         estimate D2E/DX2                !
 ! R9    R(4,9)                  1.3853         estimate D2E/DX2                !
 ! R10   R(5,6)                  1.3814         estimate D2E/DX2                !
 ! R11   R(5,32)                 1.0772         estimate D2E/DX2                !
 ! R12   R(6,7)                  1.0134         estimate D2E/DX2                !
 ! R13   R(6,8)                  1.3739         estimate D2E/DX2                !
 ! R14   R(8,9)                  1.3727         estimate D2E/DX2                !
 ! R15   R(8,33)                 1.0717         estimate D2E/DX2                !
 ! R16   R(9,10)                 1.3928         estimate D2E/DX2                !
 ! R17   R(10,11)                1.3585         estimate D2E/DX2                !
 ! R18   R(10,18)                1.4006         estimate D2E/DX2                !
 ! R19   R(11,12)                1.3253         estimate D2E/DX2                !
 ! R20   R(11,15)                1.3765         estimate D2E/DX2                !
 ! R21   R(12,13)                1.3422         estimate D2E/DX2                !
 ! R22   R(13,14)                1.3983         estimate D2E/DX2                !
 ! R23   R(13,21)                1.4517         estimate D2E/DX2                !
 ! R24   R(14,15)                1.4432         estimate D2E/DX2                !
 ! R25   R(14,34)                1.0809         estimate D2E/DX2                !
 ! R26   R(15,16)                1.3654         estimate D2E/DX2                !
 ! R27   R(16,17)                1.3792         estimate D2E/DX2                !
 ! R28   R(17,18)                1.4162         estimate D2E/DX2                !
 ! R29   R(17,35)                1.0908         estimate D2E/DX2                !
 ! R30   R(18,19)                1.4393         estimate D2E/DX2                !
 ! R31   R(19,20)                1.7292         estimate D2E/DX2                !
 ! R32   R(21,22)                1.421          estimate D2E/DX2                !
 ! R33   R(21,29)                1.3968         estimate D2E/DX2                !
 ! R34   R(22,23)                1.3736         estimate D2E/DX2                !
 ! R35   R(22,36)                1.0839         estimate D2E/DX2                !
 ! R36   R(23,24)                1.3515         estimate D2E/DX2                !
 ! R37   R(24,25)                1.4109         estimate D2E/DX2                !
 ! R38   R(24,37)                1.0823         estimate D2E/DX2                !
 ! R39   R(25,26)                1.3399         estimate D2E/DX2                !
 ! R40   R(25,29)                1.5231         estimate D2E/DX2                !
 ! R41   R(26,27)                1.659          estimate D2E/DX2                !
 ! R42   R(27,28)                1.6575         estimate D2E/DX2                !
 ! R43   R(28,29)                1.3421         estimate D2E/DX2                !
 ! A1    A(2,1,20)             113.4125         estimate D2E/DX2                !
 ! A2    A(2,1,30)             128.0296         estimate D2E/DX2                !
 ! A3    A(20,1,30)            118.5578         estimate D2E/DX2                !
 ! A4    A(1,2,3)              109.3942         estimate D2E/DX2                !
 ! A5    A(1,2,31)             124.3525         estimate D2E/DX2                !
 ! A6    A(3,2,31)             126.2532         estimate D2E/DX2                !
 ! A7    A(2,3,4)              124.8082         estimate D2E/DX2                !
 ! A8    A(2,3,19)             116.8531         estimate D2E/DX2                !
 ! A9    A(4,3,19)             118.3386         estimate D2E/DX2                !
 ! A10   A(3,4,5)              133.295          estimate D2E/DX2                !
 ! A11   A(3,4,9)              115.8795         estimate D2E/DX2                !
 ! A12   A(5,4,9)              110.8255         estimate D2E/DX2                !
 ! A13   A(4,5,6)              105.4825         estimate D2E/DX2                !
 ! A14   A(4,5,32)             134.4682         estimate D2E/DX2                !
 ! A15   A(6,5,32)             120.0493         estimate D2E/DX2                !
 ! A16   A(5,6,7)              126.8795         estimate D2E/DX2                !
 ! A17   A(5,6,8)              109.2781         estimate D2E/DX2                !
 ! A18   A(7,6,8)              123.8417         estimate D2E/DX2                !
 ! A19   A(6,8,9)              108.5661         estimate D2E/DX2                !
 ! A20   A(6,8,33)             118.6875         estimate D2E/DX2                !
 ! A21   A(9,8,33)             132.746          estimate D2E/DX2                !
 ! A22   A(4,9,8)              105.8454         estimate D2E/DX2                !
 ! A23   A(4,9,10)             126.8958         estimate D2E/DX2                !
 ! A24   A(8,9,10)             127.2583         estimate D2E/DX2                !
 ! A25   A(9,10,11)            125.0923         estimate D2E/DX2                !
 ! A26   A(9,10,18)            118.0631         estimate D2E/DX2                !
 ! A27   A(11,10,18)           116.8444         estimate D2E/DX2                !
 ! A28   A(10,11,12)           123.4655         estimate D2E/DX2                !
 ! A29   A(10,11,15)           125.0316         estimate D2E/DX2                !
 ! A30   A(12,11,15)           111.5027         estimate D2E/DX2                !
 ! A31   A(11,12,13)           109.7431         estimate D2E/DX2                !
 ! A32   A(12,13,14)           107.8949         estimate D2E/DX2                !
 ! A33   A(12,13,21)           107.2161         estimate D2E/DX2                !
 ! A34   A(14,13,21)           144.8881         estimate D2E/DX2                !
 ! A35   A(13,14,15)           106.9343         estimate D2E/DX2                !
 ! A36   A(13,14,34)           128.4106         estimate D2E/DX2                !
 ! A37   A(15,14,34)           124.6549         estimate D2E/DX2                !
 ! A38   A(11,15,14)           103.9244         estimate D2E/DX2                !
 ! A39   A(11,15,16)           121.2134         estimate D2E/DX2                !
 ! A40   A(14,15,16)           134.8622         estimate D2E/DX2                !
 ! A41   A(15,16,17)           113.9314         estimate D2E/DX2                !
 ! A42   A(16,17,18)           126.7999         estimate D2E/DX2                !
 ! A43   A(16,17,35)           113.9287         estimate D2E/DX2                !
 ! A44   A(18,17,35)           119.2713         estimate D2E/DX2                !
 ! A45   A(10,18,17)           116.1791         estimate D2E/DX2                !
 ! A46   A(10,18,19)           116.9411         estimate D2E/DX2                !
 ! A47   A(17,18,19)           126.8799         estimate D2E/DX2                !
 ! A48   A(3,19,18)            123.8819         estimate D2E/DX2                !
 ! A49   A(3,19,20)            107.7412         estimate D2E/DX2                !
 ! A50   A(18,19,20)           128.3769         estimate D2E/DX2                !
 ! A51   A(1,20,19)             92.5989         estimate D2E/DX2                !
 ! A52   A(13,21,22)           123.0293         estimate D2E/DX2                !
 ! A53   A(13,21,29)           125.9704         estimate D2E/DX2                !
 ! A54   A(22,21,29)           110.9939         estimate D2E/DX2                !
 ! A55   A(21,22,23)           130.6029         estimate D2E/DX2                !
 ! A56   A(21,22,36)           120.0314         estimate D2E/DX2                !
 ! A57   A(23,22,36)           109.3653         estimate D2E/DX2                !
 ! A58   A(22,23,24)           119.1466         estimate D2E/DX2                !
 ! A59   A(23,24,25)           117.7684         estimate D2E/DX2                !
 ! A60   A(23,24,37)           117.4178         estimate D2E/DX2                !
 ! A61   A(25,24,37)           124.8135         estimate D2E/DX2                !
 ! A62   A(24,25,26)           125.93           estimate D2E/DX2                !
 ! A63   A(24,25,29)           121.0152         estimate D2E/DX2                !
 ! A64   A(26,25,29)           113.0548         estimate D2E/DX2                !
 ! A65   A(25,26,27)           106.4207         estimate D2E/DX2                !
 ! A66   A(26,27,28)           101.2711         estimate D2E/DX2                !
 ! A67   A(27,28,29)           106.6283         estimate D2E/DX2                !
 ! A68   A(21,29,25)           120.4717         estimate D2E/DX2                !
 ! A69   A(21,29,28)           126.9042         estimate D2E/DX2                !
 ! A70   A(25,29,28)           112.624          estimate D2E/DX2                !
 ! D1    D(20,1,2,3)            -0.0109         estimate D2E/DX2                !
 ! D2    D(20,1,2,31)          179.9773         estimate D2E/DX2                !
 ! D3    D(30,1,2,3)           179.9891         estimate D2E/DX2                !
 ! D4    D(30,1,2,31)           -0.0228         estimate D2E/DX2                !
 ! D5    D(2,1,20,19)           -0.028          estimate D2E/DX2                !
 ! D6    D(30,1,20,19)         179.972          estimate D2E/DX2                !
 ! D7    D(1,2,3,4)            179.9988         estimate D2E/DX2                !
 ! D8    D(1,2,3,19)             0.0591         estimate D2E/DX2                !
 ! D9    D(31,2,3,4)             0.0109         estimate D2E/DX2                !
 ! D10   D(31,2,3,19)         -179.9288         estimate D2E/DX2                !
 ! D11   D(2,3,4,5)              0.0353         estimate D2E/DX2                !
 ! D12   D(2,3,4,9)           -179.8562         estimate D2E/DX2                !
 ! D13   D(19,3,4,5)           179.9741         estimate D2E/DX2                !
 ! D14   D(19,3,4,9)             0.0826         estimate D2E/DX2                !
 ! D15   D(2,3,19,18)          179.9309         estimate D2E/DX2                !
 ! D16   D(2,3,19,20)           -0.078          estimate D2E/DX2                !
 ! D17   D(4,3,19,18)           -0.0129         estimate D2E/DX2                !
 ! D18   D(4,3,19,20)          179.9783         estimate D2E/DX2                !
 ! D19   D(3,4,5,6)           -179.9345         estimate D2E/DX2                !
 ! D20   D(3,4,5,32)             0.0231         estimate D2E/DX2                !
 ! D21   D(9,4,5,6)             -0.039          estimate D2E/DX2                !
 ! D22   D(9,4,5,32)           179.9187         estimate D2E/DX2                !
 ! D23   D(3,4,9,8)            179.6514         estimate D2E/DX2                !
 ! D24   D(3,4,9,10)            -0.1065         estimate D2E/DX2                !
 ! D25   D(5,4,9,8)             -0.2641         estimate D2E/DX2                !
 ! D26   D(5,4,9,10)           179.978          estimate D2E/DX2                !
 ! D27   D(4,5,6,7)           -179.975          estimate D2E/DX2                !
 ! D28   D(4,5,6,8)              0.3325         estimate D2E/DX2                !
 ! D29   D(32,5,6,7)             0.0599         estimate D2E/DX2                !
 ! D30   D(32,5,6,8)          -179.6326         estimate D2E/DX2                !
 ! D31   D(5,6,8,9)             -0.5078         estimate D2E/DX2                !
 ! D32   D(5,6,8,33)           179.2821         estimate D2E/DX2                !
 ! D33   D(7,6,8,9)            179.7884         estimate D2E/DX2                !
 ! D34   D(7,6,8,33)            -0.4217         estimate D2E/DX2                !
 ! D35   D(6,8,9,4)              0.4651         estimate D2E/DX2                !
 ! D36   D(6,8,9,10)          -179.7782         estimate D2E/DX2                !
 ! D37   D(33,8,9,4)          -179.284          estimate D2E/DX2                !
 ! D38   D(33,8,9,10)            0.4727         estimate D2E/DX2                !
 ! D39   D(4,9,10,11)         -179.778          estimate D2E/DX2                !
 ! D40   D(4,9,10,18)            0.0502         estimate D2E/DX2                !
 ! D41   D(8,9,10,11)            0.5146         estimate D2E/DX2                !
 ! D42   D(8,9,10,18)         -179.6572         estimate D2E/DX2                !
 ! D43   D(9,10,11,12)           0.0823         estimate D2E/DX2                !
 ! D44   D(9,10,11,15)         179.9316         estimate D2E/DX2                !
 ! D45   D(18,10,11,12)       -179.7478         estimate D2E/DX2                !
 ! D46   D(18,10,11,15)          0.1015         estimate D2E/DX2                !
 ! D47   D(9,10,18,17)        -179.9646         estimate D2E/DX2                !
 ! D48   D(9,10,18,19)           0.0279         estimate D2E/DX2                !
 ! D49   D(11,10,18,17)         -0.1222         estimate D2E/DX2                !
 ! D50   D(11,10,18,19)        179.8704         estimate D2E/DX2                !
 ! D51   D(10,11,12,13)        179.7894         estimate D2E/DX2                !
 ! D52   D(15,11,12,13)         -0.0779         estimate D2E/DX2                !
 ! D53   D(10,11,15,14)       -179.9472         estimate D2E/DX2                !
 ! D54   D(10,11,15,16)          0.017          estimate D2E/DX2                !
 ! D55   D(12,11,15,14)         -0.0823         estimate D2E/DX2                !
 ! D56   D(12,11,15,16)        179.8819         estimate D2E/DX2                !
 ! D57   D(11,12,13,14)          0.2106         estimate D2E/DX2                !
 ! D58   D(11,12,13,21)        179.9418         estimate D2E/DX2                !
 ! D59   D(12,13,14,15)         -0.2565         estimate D2E/DX2                !
 ! D60   D(12,13,14,34)        179.8785         estimate D2E/DX2                !
 ! D61   D(21,13,14,15)       -179.81           estimate D2E/DX2                !
 ! D62   D(21,13,14,34)          0.325          estimate D2E/DX2                !
 ! D63   D(12,13,21,22)          2.9953         estimate D2E/DX2                !
 ! D64   D(12,13,21,29)       -176.0046         estimate D2E/DX2                !
 ! D65   D(14,13,21,22)       -177.4495         estimate D2E/DX2                !
 ! D66   D(14,13,21,29)          3.5506         estimate D2E/DX2                !
 ! D67   D(13,14,15,11)          0.2039         estimate D2E/DX2                !
 ! D68   D(13,14,15,16)       -179.7529         estimate D2E/DX2                !
 ! D69   D(34,14,15,11)       -179.9247         estimate D2E/DX2                !
 ! D70   D(34,14,15,16)          0.1185         estimate D2E/DX2                !
 ! D71   D(11,15,16,17)         -0.0996         estimate D2E/DX2                !
 ! D72   D(14,15,16,17)        179.8514         estimate D2E/DX2                !
 ! D73   D(15,16,17,18)          0.0721         estimate D2E/DX2                !
 ! D74   D(15,16,17,35)       -179.8865         estimate D2E/DX2                !
 ! D75   D(16,17,18,10)          0.0401         estimate D2E/DX2                !
 ! D76   D(16,17,18,19)       -179.9516         estimate D2E/DX2                !
 ! D77   D(35,17,18,10)        179.9967         estimate D2E/DX2                !
 ! D78   D(35,17,18,19)          0.005          estimate D2E/DX2                !
 ! D79   D(10,18,19,3)          -0.0446         estimate D2E/DX2                !
 ! D80   D(10,18,19,20)        179.9662         estimate D2E/DX2                !
 ! D81   D(17,18,19,3)         179.947          estimate D2E/DX2                !
 ! D82   D(17,18,19,20)         -0.0422         estimate D2E/DX2                !
 ! D83   D(3,19,20,1)            0.0573         estimate D2E/DX2                !
 ! D84   D(18,19,20,1)        -179.9521         estimate D2E/DX2                !
 ! D85   D(13,21,22,23)       -178.7654         estimate D2E/DX2                !
 ! D86   D(13,21,22,36)          1.4702         estimate D2E/DX2                !
 ! D87   D(29,21,22,23)          0.3676         estimate D2E/DX2                !
 ! D88   D(29,21,22,36)       -179.3968         estimate D2E/DX2                !
 ! D89   D(13,21,29,25)        179.0461         estimate D2E/DX2                !
 ! D90   D(13,21,29,28)         -0.8454         estimate D2E/DX2                !
 ! D91   D(22,21,29,25)         -0.0559         estimate D2E/DX2                !
 ! D92   D(22,21,29,28)       -179.9473         estimate D2E/DX2                !
 ! D93   D(21,22,23,24)         -0.3893         estimate D2E/DX2                !
 ! D94   D(36,22,23,24)        179.3945         estimate D2E/DX2                !
 ! D95   D(22,23,24,25)          0.0607         estimate D2E/DX2                !
 ! D96   D(22,23,24,37)       -179.7423         estimate D2E/DX2                !
 ! D97   D(23,24,25,26)       -179.7736         estimate D2E/DX2                !
 ! D98   D(23,24,25,29)          0.2024         estimate D2E/DX2                !
 ! D99   D(37,24,25,26)          0.0133         estimate D2E/DX2                !
 ! D100  D(37,24,25,29)        179.9894         estimate D2E/DX2                !
 ! D101  D(24,25,26,27)       -179.8697         estimate D2E/DX2                !
 ! D102  D(29,25,26,27)          0.1526         estimate D2E/DX2                !
 ! D103  D(24,25,29,21)         -0.2046         estimate D2E/DX2                !
 ! D104  D(24,25,29,28)        179.7014         estimate D2E/DX2                !
 ! D105  D(26,25,29,21)        179.7743         estimate D2E/DX2                !
 ! D106  D(26,25,29,28)         -0.3197         estimate D2E/DX2                !
 ! D107  D(25,26,27,28)          0.0219         estimate D2E/DX2                !
 ! D108  D(26,27,28,29)         -0.2048         estimate D2E/DX2                !
 ! D109  D(27,28,29,21)       -179.7938         estimate D2E/DX2                !
 ! D110  D(27,28,29,25)          0.3076         estimate D2E/DX2                !
 --------------------------------------------------------------------------------
 Trust Radius=3.00D-01 FncErr=1.00D-07 GrdErr=1.00D-06
 Number of steps in this run=    222 maximum allowed number of steps=    222.
 GradGradGradGradGradGradGradGradGradGradGradGradGradGradGradGradGradGrad

                          Input orientation:                          
 ---------------------------------------------------------------------
 Center     Atomic      Atomic             Coordinates (Angstroms)
 Number     Number       Type             X           Y           Z
 ---------------------------------------------------------------------
      1          6           0        2.429680   -2.758180   -0.000020
      2          6           0        2.731190   -1.414640    0.000460
      3          6           0        1.545660   -0.672610   -0.000580
      4          6           0        1.476210    0.765110   -0.000420
      5          6           0        2.425790    1.750510    0.000050
      6          7           0        1.723050    2.939820    0.001470
      7          1           0        2.111560    3.875800    0.001800
      8          6           0        0.375780    2.670610    0.009370
      9          6           0        0.202100    1.308930    0.001550
     10          6           0       -1.004230    0.612730    0.001300
     11          6           0       -2.236250    1.185070   -0.001020
     12          8           0       -2.433240    2.495660   -0.004940
     13          6           0       -3.749910    2.756240   -0.011040
     14          6           0       -4.429770    1.534310   -0.006090
     15          6           0       -3.427720    0.495760   -0.002610
     16          7           0       -3.455420   -0.869330   -0.001590
     17          6           0       -2.206360   -1.454270   -0.001090
     18          6           0       -0.957130   -0.787070   -0.000100
     19          6           0        0.347210   -1.395680   -0.000550
     20         16           0        0.746870   -3.078100   -0.001390
     21          6           0       -3.902190    4.199960   -0.013680
     22          6           0       -2.800010    5.094950   -0.072350
     23          7           0       -2.761780    6.467990   -0.061090
     24          6           0       -3.921590    7.158210    0.008780
     25          6           0       -5.122900    6.420650    0.068360
     26          7           0       -6.358450    6.934530    0.136550
     27         16           0       -7.400600    5.644770    0.188330
     28          7           0       -6.342310    4.370510    0.127770
     29          6           0       -5.110030    4.897650    0.058860
     30          1           0        3.112940   -3.592310    0.000360
     31          1           0        3.735760   -1.014790    0.001670
     32          1           0        3.502930    1.760450    0.000130
     33          1           0       -0.312840    3.491690    0.023240
     34          1           0       -5.496420    1.359250   -0.006930
     35          1           0       -2.228540   -2.544840   -0.002250
     36          1           0       -1.790000    4.707840   -0.141940
     37          1           0       -3.859130    8.238730    0.011550
 ---------------------------------------------------------------------
                    Distance matrix (angstroms):
                    1          2          3          4          5
     1  C    0.000000
     2  C    1.376956   0.000000
     3  C    2.265192   1.398603   0.000000
     4  C    3.650024   2.515211   1.439396   0.000000
     5  C    4.508692   3.179850   2.578011   1.368472   0.000000
     6  N    5.741649   4.469639   3.616783   2.188675   1.381414
     7  H    6.641603   5.326603   4.583479   3.174912   2.148395
     8  C    5.804339   4.715645   3.542010   2.200448   2.247045
     9  C    4.637187   3.716737   2.394088   1.385316   2.267111
    10  C    4.811941   4.250129   2.855528   2.485117   3.613804
    11  C    6.109020   5.606599   4.213528   3.736138   4.696205
    12  O    7.158970   6.477794   5.086217   4.275351   4.915836
    13  C    8.282287   7.707206   6.308739   5.592588   6.257067
    14  C    8.091821   7.744398   6.369952   5.955863   6.858971
    15  C    6.700542   6.448396   5.108777   4.911322   5.986483
    16  N    6.180789   6.210597   5.004948   5.195418   6.438338
    17  C    4.815916   4.937709   3.832577   4.299648   5.632711
    18  C    3.918642   3.741330   2.505406   2.886244   4.228884
    19  C    2.488592   2.384056   1.399683   2.437961   3.770810
    20  S    1.712951   2.589330   2.534650   3.911803   5.112167
    21  C    9.407894   8.690550   7.308979   6.381658   6.785523
    22  C    9.435388   8.542496   7.221824   6.085947   6.204797
    23  N   10.586652   9.607932   8.339417   7.105426   7.012078
    24  C   11.775971  10.851420   9.550532   8.367082   8.338617
    25  C   11.886844  11.094283   9.735953   8.691267   8.876801
    26  N   13.084285  12.342962  10.970977   9.973084  10.200763
    27  S   12.933656  12.350050  10.953563  10.131360  10.571596
    28  N   11.304086  10.761625   9.363205   8.610726   9.152065
    29  C   10.745344  10.066437   8.679259   7.775600   8.166794
    30  H    1.078247   2.210878   3.313762   4.654675   5.386827
    31  H    2.178361   1.081223   2.216671   2.876389   3.059887
    32  H    4.644339   3.267534   3.122609   2.257941   1.077186
    33  H    6.825162   5.773968   4.560261   3.261211   3.245357
    34  H    8.931760   8.682631   7.329351   6.997901   7.931869
    35  H    4.663103   5.086873   4.213055   4.967992   6.333469
    36  H    8.577138   7.612240   6.332129   5.121843   5.151587
    37  H   12.668121  11.688456  10.422278   9.182646   9.033125
                    6          7          8          9         10
     6  N    0.000000
     7  H    1.013409   0.000000
     8  C    1.373926   2.113166   0.000000
     9  C    2.230043   3.199197   1.372734   0.000000
    10  C    3.585164   4.511737   2.477774   1.392812   0.000000
    11  C    4.330729   5.113070   3.004936   2.441495   1.358474
    12  O    4.179960   4.749741   2.814499   2.890223   2.363797
    13  C    5.476052   5.967446   4.126629   4.208711   3.483324
    14  C    6.311316   6.947779   4.938089   4.637356   3.547350
    15  C    5.701217   6.489092   4.381407   3.719792   2.426314
    16  N    6.428545   7.314885   5.216262   4.257027   2.864410
    17  C    5.894769   6.859598   4.866435   3.665510   2.391153
    18  C    4.590542   5.582044   3.705710   2.395210   1.400593
    19  C    4.548571   5.558906   4.066402   2.708501   2.420765
    20  S    6.096581   7.086545   5.760685   4.420726   4.085166
    21  C    5.764678   6.022500   4.543178   5.020307   4.611574
    22  C    5.010799   5.061160   3.996216   4.832398   4.829135
    23  N    5.706628   5.520222   4.926392   5.950160   6.113669
    24  C    7.046760   6.868272   6.213368   7.156741   7.166195
    25  C    7.680344   7.669296   6.655957   7.381719   7.120384
    26  N    9.015908   9.006390   7.971640   8.643287   8.285597
    27  S    9.518018   9.677047   8.327649   8.754167   8.140636
    28  N    8.192244   8.469269   6.930831   7.226237   6.529319
    29  C    7.108261   7.293750   5.920833   6.411000   5.934766
    30  H    6.678362   7.534947   6.834932   5.700451   5.885019
    31  H    4.437335   5.153241   4.987153   4.229235   5.011619
    32  H    2.135155   2.531920   3.256922   3.331569   4.650995
    33  H    2.109474   2.454733   1.071710   2.242783   2.960897
    34  H    7.390468   8.013393   6.016865   5.698748   4.553804
    35  H    6.759924   7.749910   5.829540   4.556267   3.386620
    36  H    3.935477   3.991882   2.977214   3.942289   4.172275
    37  H    7.696706   7.394890   6.995601   8.032174   8.142876
                   11         12         13         14         15
    11  C    0.000000
    12  O    1.325318   0.000000
    13  C    2.181706   1.342222   0.000000
    14  C    2.221154   2.215926   1.398337   0.000000
    15  C    1.376500   2.233516   2.283341   1.443157   0.000000
    16  N    2.388919   3.516820   3.637523   2.593620   1.365371
    17  C    2.639509   3.956442   4.484533   3.724941   2.300943
    18  C    2.350635   3.599339   4.511628   4.177089   2.783788
    19  C    3.651648   4.782619   5.833090   5.603964   4.222280
    20  S    5.203232   6.417158   7.366183   6.933394   5.495423
    21  C    3.444572   2.250006   1.451731   2.717368   3.734480
    22  C    3.950959   2.625904   2.525002   3.916461   4.642352
    23  N    5.309335   3.986289   3.841353   5.208302   6.009528
    24  C    6.206357   4.894359   4.405361   5.646833   6.680739
    25  C    5.979035   4.758696   3.913989   4.935817   6.163034
    26  N    7.075857   5.927129   4.927918   5.736073   7.075755
    27  S    6.826074   5.884634   4.659495   5.075383   6.506346
    28  N    5.198398   4.337453   3.057069   3.423413   4.850311
    29  C    4.695258   3.597059   2.537804   3.432059   4.712810
    30  H    7.171973   8.235504   9.348953   9.120019   7.713142
    31  H    6.364298   7.097877   8.381890   8.554172   7.321013
    32  H    5.767950   5.981528   7.320889   7.935925   7.045095
    33  H    3.003430   2.342854   3.515041   4.558652   4.321891
    34  H    3.264825   3.267186   2.236492   1.080920   2.241685
    35  H    3.729918   5.044656   5.515079   4.635180   3.268529
    36  H    3.553717   2.307871   2.768957   4.130149   4.521411
    37  H    7.237957   5.917456   5.483624   6.728684   7.754992
                   16         17         18         19         20
    16  N    0.000000
    17  C    1.379241   0.000000
    18  C    2.499644   1.416239   0.000000
    19  C    3.838885   2.554242   1.439343   0.000000
    20  S    4.747410   3.370221   2.855247   1.729239   0.000000
    21  C    5.088954   5.903077   5.791721   7.026291   8.636207
    22  C    6.000600   6.576457   6.164380   7.213766   8.909778
    23  N    7.370274   7.941933   7.476388   8.456169  10.170645
    24  C    8.041071   8.781624   8.480305   9.559905  11.250630
    25  C    7.478582   8.397940   8.325236   9.540538  11.166258
    26  N    8.327478   9.361130   9.424226  10.694722  12.278329
    27  S    7.618006   8.798430   9.106172  10.470538  11.937576
    28  N    5.983878   7.144981   7.457690   8.832615  10.283722
    29  C    5.999954   6.984396   7.040319   8.330126   9.895428
    30  H    7.110413   5.732902   4.943161   3.531918   2.421302
    31  H    7.192652   5.958350   4.698412   3.409891   3.631903
    32  H    7.438708   6.552131   5.136340   4.463152   5.568432
    33  H    5.375400   5.296086   4.327059   4.931797   6.654753
    34  H    3.021966   4.329021   5.021144   6.460471   7.659555
    35  H    2.076673   1.090796   2.169388   2.820472   3.022818
    36  H    5.822212   6.177766   5.559481   6.468432   8.190014
    37  H    9.117012   9.832907   9.480865  10.512626  12.218267
                   21         22         23         24         25
    21  C    0.000000
    22  C    1.421003   0.000000
    23  N    2.539044   1.373618   0.000000
    24  C    2.958399   2.349801   1.351460   0.000000
    25  C    2.535415   2.678264   2.365140   1.410918   0.000000
    26  N    3.678812   4.011258   3.632183   2.450438   1.339890
    27  S    3.790403   4.640656   4.717897   3.798190   2.409211
    28  N    2.450159   3.621153   4.153948   3.693957   2.386119
    29  C    1.396750   2.322140   2.827478   2.554414   1.523084
    30  H   10.484833  10.508889  11.650139  12.847504  12.965070
    31  H    9.248358   8.947105   9.910296  11.199687  11.565728
    32  H    7.796615   7.131002   7.836534   9.179291   9.804441
    33  H    3.658749   2.960675   3.855228   5.144575   5.631831
    34  H    3.257491   4.607642   5.794861   6.009016   5.075722
    35  H    6.949357   7.661454   9.028782   9.849656   9.421376
    36  H    2.176175   1.083890   2.012218   3.251262   3.753154
    37  H    4.039078   3.318453   2.084460   1.082327   2.214894
                   26         27         28         29         30
    26  N    0.000000
    27  S    1.658987   0.000000
    28  N    2.564086   1.657523   0.000000
    29  C    2.390286   2.412812   1.342065   0.000000
    30  H   14.161219  13.996196  12.362220  11.819479   0.000000
    31  H   12.849240  12.977022  11.427373  10.639935   2.651701
    32  H   11.137169  11.576283  10.186140   9.166709   5.366948
    33  H    6.958117   7.409410   6.094076   4.999102   7.868898
    34  H    5.643353   4.693582   3.130713   3.560042   9.931721
    35  H   10.340884   9.687943   8.047489   7.981064   5.443217
    36  H    5.089837   5.697872   4.572752   3.331508   9.641139
    37  H    2.821908   4.393392   4.598132   3.567885  13.732567
                   31         32         33         34         35
    31  H    0.000000
    32  H    2.784990   0.000000
    33  H    6.058052   4.190206   0.000000
    34  H    9.532538   9.008291   5.605151   0.000000
    35  H    6.157430   7.168352   6.333265   5.091265   0.000000
    36  H    7.956327   6.059901   1.920497   4.996882   7.267269
    37  H   11.971219   9.806537   5.925428   7.071655  10.906163
                   36         37
    36  H    0.000000
    37  H    4.095368   0.000000
 Stoichiometry    C20H9N5OS2
 Framework group  C1[X(C20H9N5OS2)]
 Deg. of freedom   105
 Full point group                 C1      NOp   1
 Largest Abelian subgroup         C1      NOp   1
 Largest concise Abelian subgroup C1      NOp   1
                         Standard orientation:                         
 ---------------------------------------------------------------------
 Center     Atomic      Atomic             Coordinates (Angstroms)
 Number     Number       Type             X           Y           Z
 ---------------------------------------------------------------------
      1          6           0       -6.520442   -0.109676   -0.034975
      2          6           0       -5.762500    1.039890   -0.040390
      3          6           0       -4.405533    0.701575   -0.023806
      4          6           0       -3.322335    1.649492   -0.023949
      5          6           0       -3.271996    3.016966   -0.037882
      6          7           0       -1.928089    3.336599   -0.030568
      7          1           0       -1.523926    4.265907   -0.036748
      8          6           0       -1.186768    2.179877   -0.020090
      9          6           0       -2.046553    1.109809   -0.009051
     10          6           0       -1.710506   -0.241749    0.007946
     11          6           0       -0.443442   -0.731296    0.026546
     12          8           0        0.636717    0.036617    0.032288
     13          6           0        1.738065   -0.730214    0.056012
     14          6           0        1.330304   -2.067769    0.061032
     15          6           0       -0.112760   -2.067362    0.044678
     16          7           0       -1.076236   -3.034809    0.044907
     17          6           0       -2.364213   -2.541723    0.027904
     18          6           0       -2.750904   -1.179421    0.009606
     19          6           0       -4.094295   -0.662964   -0.007179
     20         16           0       -5.582832   -1.543027   -0.010661
     21          6           0        2.883044    0.162273    0.059784
     22          6           0        2.761861    1.577441    0.102982
     23          7           0        3.723861    2.557860    0.090326
     24          6           0        5.026313    2.201376    0.035692
     25          6           0        5.329635    0.824115   -0.007177
     26          7           0        6.557692    0.290734   -0.058995
     27         16           0        6.352961   -1.355160   -0.095862
     28          7           0        4.700609   -1.477223   -0.048791
     29          6           0        4.224231   -0.223625    0.003124
     30          1           0       -7.595124   -0.196821   -0.044053
     31          1           0       -6.171848    2.040515   -0.055430
     32          1           0       -4.012412    3.799206   -0.052523
     33          1           0       -0.117634    2.253962   -0.025180
     34          1           0        1.944565   -2.957059    0.076397
     35          1           0       -3.133916   -3.314632    0.030062
     36          1           0        1.781583    2.036479    0.159166
     37          1           0        5.760840    2.996287    0.031386
 ---------------------------------------------------------------------
 Rotational constants (GHZ):      0.4339870      0.0764948      0.0650486
 Standard basis: 6-31++G(d,p) (6D, 7F)
 There are   594 symmetry adapted basis functions of A   symmetry.
 Integral buffers will be    131072 words long.
 Raffenetti 2 integral format.
 Two-electron integral symmetry is turned on.
   594 basis functions,  1016 primitive gaussians,   594 cartesian basis functions
   102 alpha electrons      102 beta electrons
       nuclear repulsion energy      2625.9083557441 Hartrees.
 NAtoms=   37 NActive=   37 NUniq=   37 SFac= 1.00D+00 NAtFMM=   60 NAOKFM=F Big=F
 One-electron integrals computed using PRISM.
 NBasis=   594 RedAO= T  NBF=   594
 NBsUse=   582 1.00D-06 NBFU=   582
 Harris functional with IExCor=  402 diagonalized for initial guess.
 ExpMin= 3.60D-02 ExpMax= 2.19D+04 ExpMxC= 3.30D+03 IAcc=3 IRadAn=         5 AccDes= 0.00D+00
 HarFok:  IExCor=  402 AccDes= 0.00D+00 IRadAn=         5 IDoV= 1
 ScaDFX=  1.000000  1.000000  1.000000  1.000000
 FoFCou: FMM=F IPFlag=           0 FMFlag=      100000 FMFlg1=           0
         NFxFlg=           0 DoJE=T BraDBF=F KetDBF=T FulRan=T
         Omega=  0.000000  0.000000  1.000000  0.000000  0.000000 ICntrl=     500 IOpCl=  0
         NMat0=    1 NMatS0=    1 NMatT0=    0 NMatD0=    1 NMtDS0=    0 NMtDT0=    0
         I1Cent=           4 NGrid=           0.
 Petite list used in FoFCou.
 Initial guess orbital symmetries:
       Occupied  (A) (A) (A) (A) (A) (A) (A) (A) (A) (A) (A) (A)
                 (A) (A) (A) (A) (A) (A) (A) (A) (A) (A) (A) (A)
                 (A) (A) (A) (A) (A) (A) (A) (A) (A) (A) (A) (A)
                 (A) (A) (A) (A) (A) (A) (A) (A) (A) (A) (A) (A)
                 (A) (A) (A) (A) (A) (A) (A) (A) (A) (A) (A) (A)
                 (A) (A) (A) (A) (A) (A) (A) (A) (A) (A) (A) (A)
                 (A) (A) (A) (A) (A) (A) (A) (A) (A) (A) (A) (A)
                 (A) (A) (A) (A) (A) (A) (A) (A) (A) (A) (A) (A)
                 (A) (A) (A) (A) (A) (A)
       Virtual   (A) (A) (A) (A) (A) (A) (A) (A) (A) (A) (A) (A)
                 (A) (A) (A) (A) (A) (A) (A) (A) (A) (A) (A) (A)
                 (A) (A) (A) (A) (A) (A) (A) (A) (A) (A) (A) (A)
                 (A) (A) (A) (A) (A) (A) (A) (A) (A) (A) (A) (A)
                 (A) (A) (A) (A) (A) (A) (A) (A) (A) (A) (A) (A)
                 (A) (A) (A) (A) (A) (A) (A) (A) (A) (A) (A) (A)
                 (A) (A) (A) (A) (A) (A) (A) (A) (A) (A) (A) (A)
                 (A) (A) (A) (A) (A) (A) (A) (A) (A) (A) (A) (A)
                 (A) (A) (A) (A) (A) (A) (A) (A) (A) (A) (A) (A)
                 (A) (A) (A) (A) (A) (A) (A) (A) (A) (A) (A) (A)
                 (A) (A) (A) (A) (A) (A) (A) (A) (A) (A) (A) (A)
                 (A) (A) (A) (A) (A) (A) (A) (A) (A) (A) (A) (A)
                 (A) (A) (A) (A) (A) (A) (A) (A) (A) (A) (A) (A)
                 (A) (A) (A) (A) (A) (A) (A) (A) (A) (A) (A) (A)
                 (A) (A) (A) (A) (A) (A) (A) (A) (A) (A) (A) (A)
                 (A) (A) (A) (A) (A) (A) (A) (A) (A) (A) (A) (A)
                 (A) (A) (A) (A) (A) (A) (A) (A) (A) (A) (A) (A)
                 (A) (A) (A) (A) (A) (A) (A) (A) (A) (A) (A) (A)
                 (A) (A) (A) (A) (A) (A) (A) (A) (A) (A) (A) (A)
                 (A) (A) (A) (A) (A) (A) (A) (A) (A) (A) (A) (A)
                 (A) (A) (A) (A) (A) (A) (A) (A) (A) (A) (A) (A)
                 (A) (A) (A) (A) (A) (A) (A) (A) (A) (A) (A) (A)
                 (A) (A) (A) (A) (A) (A) (A) (A) (A) (A) (A) (A)
                 (A) (A) (A) (A) (A) (A) (A) (A) (A) (A) (A) (A)
                 (A) (A) (A) (A) (A) (A) (A) (A) (A) (A) (A) (A)
                 (A) (A) (A) (A) (A) (A) (A) (A) (A) (A) (A) (A)
                 (A) (A) (A) (A) (A) (A) (A) (A) (A) (A) (A) (A)
                 (A) (A) (A) (A) (A) (A) (A) (A) (A) (A) (A) (A)
                 (A) (A) (A) (A) (A) (A) (A) (A) (A) (A) (A) (A)
                 (A) (A) (A) (A) (A) (A) (A) (A) (A) (A) (A) (A)
                 (A) (A) (A) (A) (A) (A) (A) (A) (A) (A) (A) (A)
                 (A) (A) (A) (A) (A) (A) (A) (A) (A) (A) (A) (A)
                 (A) (A) (A) (A) (A) (A) (A) (A) (A) (A) (A) (A)
                 (A) (A) (A) (A) (A) (A) (A) (A) (A) (A) (A) (A)
                 (A) (A) (A) (A) (A) (A) (A) (A) (A) (A) (A) (A)
                 (A) (A) (A) (A) (A) (A) (A) (A) (A) (A) (A) (A)
                 (A) (A) (A) (A) (A) (A) (A) (A) (A) (A) (A) (A)
                 (A) (A) (A) (A) (A) (A) (A) (A) (A) (A) (A) (A)
                 (A) (A) (A) (A) (A) (A) (A) (A) (A) (A) (A) (A)
                 (A) (A) (A) (A) (A) (A) (A) (A) (A) (A) (A) (A)
 The electronic state of the initial guess is 1-A.
 Requested convergence on RMS density matrix=1.00D-08 within 128 cycles.
 Requested convergence on MAX density matrix=1.00D-06.
 Requested convergence on             energy=1.00D-06.
 No special actions if energy rises.
 EnCoef did     2 forward-backward iterations
 Restarting incremental Fock formation.
 SCF Done:  E(RB3LYP) =  -1912.89962771     A.U. after   23 cycles
             Convg  =    0.6456D-09             -V/T =  2.0066

 **********************************************************************

            Population analysis using the SCF density.

 **********************************************************************

 Orbital symmetries:
       Occupied  (A) (A) (A) (A) (A) (A) (A) (A) (A) (A) (A) (A)
                 (A) (A) (A) (A) (A) (A) (A) (A) (A) (A) (A) (A)
                 (A) (A) (A) (A) (A) (A) (A) (A) (A) (A) (A) (A)
                 (A) (A) (A) (A) (A) (A) (A) (A) (A) (A) (A) (A)
                 (A) (A) (A) (A) (A) (A) (A) (A) (A) (A) (A) (A)
                 (A) (A) (A) (A) (A) (A) (A) (A) (A) (A) (A) (A)
                 (A) (A) (A) (A) (A) (A) (A) (A) (A) (A) (A) (A)
                 (A) (A) (A) (A) (A) (A) (A) (A) (A) (A) (A) (A)
                 (A) (A) (A) (A) (A) (A)
       Virtual   (A) (A) (A) (A) (A) (A) (A) (A) (A) (A) (A) (A)
                 (A) (A) (A) (A) (A) (A) (A) (A) (A) (A) (A) (A)
                 (A) (A) (A) (A) (A) (A) (A) (A) (A) (A) (A) (A)
                 (A) (A) (A) (A) (A) (A) (A) (A) (A) (A) (A) (A)
                 (A) (A) (A) (A) (A) (A) (A) (A) (A) (A) (A) (A)
                 (A) (A) (A) (A) (A) (A) (A) (A) (A) (A) (A) (A)
                 (A) (A) (A) (A) (A) (A) (A) (A) (A) (A) (A) (A)
                 (A) (A) (A) (A) (A) (A) (A) (A) (A) (A) (A) (A)
                 (A) (A) (A) (A) (A) (A) (A) (A) (A) (A) (A) (A)
                 (A) (A) (A) (A) (A) (A) (A) (A) (A) (A) (A) (A)
                 (A) (A) (A) (A) (A) (A) (A) (A) (A) (A) (A) (A)
                 (A) (A) (A) (A) (A) (A) (A) (A) (A) (A) (A) (A)
                 (A) (A) (A) (A) (A) (A) (A) (A) (A) (A) (A) (A)
                 (A) (A) (A) (A) (A) (A) (A) (A) (A) (A) (A) (A)
                 (A) (A) (A) (A) (A) (A) (A) (A) (A) (A) (A) (A)
                 (A) (A) (A) (A) (A) (A) (A) (A) (A) (A) (A) (A)
                 (A) (A) (A) (A) (A) (A) (A) (A) (A) (A) (A) (A)
                 (A) (A) (A) (A) (A) (A) (A) (A) (A) (A) (A) (A)
                 (A) (A) (A) (A) (A) (A) (A) (A) (A) (A) (A) (A)
                 (A) (A) (A) (A) (A) (A) (A) (A) (A) (A) (A) (A)
                 (A) (A) (A) (A) (A) (A) (A) (A) (A) (A) (A) (A)
                 (A) (A) (A) (A) (A) (A) (A) (A) (A) (A) (A) (A)
                 (A) (A) (A) (A) (A) (A) (A) (A) (A) (A) (A) (A)
                 (A) (A) (A) (A) (A) (A) (A) (A) (A) (A) (A) (A)
                 (A) (A) (A) (A) (A) (A) (A) (A) (A) (A) (A) (A)
                 (A) (A) (A) (A) (A) (A) (A) (A) (A) (A) (A) (A)
                 (A) (A) (A) (A) (A) (A) (A) (A) (A) (A) (A) (A)
                 (A) (A) (A) (A) (A) (A) (A) (A) (A) (A) (A) (A)
                 (A) (A) (A) (A) (A) (A) (A) (A) (A) (A) (A) (A)
                 (A) (A) (A) (A) (A) (A) (A) (A) (A) (A) (A) (A)
                 (A) (A) (A) (A) (A) (A) (A) (A) (A) (A) (A) (A)
                 (A) (A) (A) (A) (A) (A) (A) (A) (A) (A) (A) (A)
                 (A) (A) (A) (A) (A) (A) (A) (A) (A) (A) (A) (A)
                 (A) (A) (A) (A) (A) (A) (A) (A) (A) (A) (A) (A)
                 (A) (A) (A) (A) (A) (A) (A) (A) (A) (A) (A) (A)
                 (A) (A) (A) (A) (A) (A) (A) (A) (A) (A) (A) (A)
                 (A) (A) (A) (A) (A) (A) (A) (A) (A) (A) (A) (A)
                 (A) (A) (A) (A) (A) (A) (A) (A) (A) (A) (A) (A)
                 (A) (A) (A) (A) (A) (A) (A) (A) (A) (A) (A) (A)
                 (A) (A) (A) (A) (A) (A) (A) (A) (A) (A) (A) (A)
 The electronic state is 1-A.
 Alpha  occ. eigenvalues --  -88.99887 -88.92286 -19.23364 -14.41201 -14.40216
 Alpha  occ. eigenvalues --  -14.39733 -14.37017 -14.34796 -10.28128 -10.27576
 Alpha  occ. eigenvalues --  -10.27267 -10.26019 -10.25352 -10.25249 -10.24866
 Alpha  occ. eigenvalues --  -10.23677 -10.23322 -10.23258 -10.22960 -10.22865
 Alpha  occ. eigenvalues --  -10.22663 -10.22295 -10.21737 -10.21667 -10.21087
 Alpha  occ. eigenvalues --  -10.20498 -10.19790 -10.19328  -8.05169  -7.98245
 Alpha  occ. eigenvalues --   -6.01728  -6.01139  -6.00927  -5.94670  -5.94289
 Alpha  occ. eigenvalues --   -5.93958  -1.15911  -1.03559  -1.00491  -0.95753
 Alpha  occ. eigenvalues --   -0.94456  -0.91970  -0.90910  -0.86682  -0.84089
 Alpha  occ. eigenvalues --   -0.81374  -0.80552  -0.79535  -0.77971  -0.75977
 Alpha  occ. eigenvalues --   -0.73919  -0.72664  -0.69664  -0.67915  -0.65483
 Alpha  occ. eigenvalues --   -0.64469  -0.63553  -0.62321  -0.60575  -0.58805
 Alpha  occ. eigenvalues --   -0.57587  -0.55996  -0.55074  -0.54103  -0.52910
 Alpha  occ. eigenvalues --   -0.52710  -0.50292  -0.50046  -0.49745  -0.48476
 Alpha  occ. eigenvalues --   -0.48176  -0.47490  -0.47133  -0.44893  -0.44630
 Alpha  occ. eigenvalues --   -0.44511  -0.42663  -0.42195  -0.41918  -0.41126
 Alpha  occ. eigenvalues --   -0.40532  -0.40315  -0.39960  -0.39514  -0.39162
 Alpha  occ. eigenvalues --   -0.38591  -0.37106  -0.36644  -0.35107  -0.34966
 Alpha  occ. eigenvalues --   -0.34260  -0.33011  -0.30657  -0.30260  -0.29066
 Alpha  occ. eigenvalues --   -0.28913  -0.27962  -0.27060  -0.25895  -0.23783
 Alpha  occ. eigenvalues --   -0.22988  -0.20593
 Alpha virt. eigenvalues --   -0.12334  -0.06803  -0.04772  -0.03316  -0.02733
 Alpha virt. eigenvalues --   -0.02119  -0.01959  -0.00604  -0.00531  -0.00325
 Alpha virt. eigenvalues --    0.00573   0.00936   0.01535   0.01950   0.01974
 Alpha virt. eigenvalues --    0.02116   0.02681   0.03005   0.03355   0.03607
 Alpha virt. eigenvalues --    0.03890   0.04770   0.04802   0.05188   0.05545
 Alpha virt. eigenvalues --    0.05601   0.06377   0.06484   0.06521   0.06964
 Alpha virt. eigenvalues --    0.06994   0.07539   0.08018   0.08291   0.09145
 Alpha virt. eigenvalues --    0.09300   0.09680   0.09729   0.09844   0.09947
 Alpha virt. eigenvalues --    0.10285   0.10506   0.10854   0.10919   0.11391
 Alpha virt. eigenvalues --    0.11481   0.11998   0.12187   0.12394   0.12508
 Alpha virt. eigenvalues --    0.12647   0.12981   0.13274   0.13588   0.13644
 Alpha virt. eigenvalues --    0.13678   0.14111   0.14589   0.15244   0.15306
 Alpha virt. eigenvalues --    0.15511   0.15678   0.16111   0.16413   0.16451
 Alpha virt. eigenvalues --    0.16943   0.17155   0.17431   0.17530   0.17899
 Alpha virt. eigenvalues --    0.18191   0.18324   0.18413   0.18730   0.19138
 Alpha virt. eigenvalues --    0.19234   0.19406   0.20243   0.20542   0.20748
 Alpha virt. eigenvalues --    0.21225   0.21471   0.21654   0.21930   0.22078
 Alpha virt. eigenvalues --    0.22331   0.22693   0.22725   0.23216   0.23612
 Alpha virt. eigenvalues --    0.23757   0.23817   0.23970   0.24597   0.24632
 Alpha virt. eigenvalues --    0.25019   0.25076   0.25442   0.25844   0.25917
 Alpha virt. eigenvalues --    0.26357   0.27041   0.27322   0.27488   0.27795
 Alpha virt. eigenvalues --    0.27981   0.28238   0.28326   0.28413   0.28773
 Alpha virt. eigenvalues --    0.29443   0.29527   0.29916   0.30026   0.30279
 Alpha virt. eigenvalues --    0.30487   0.30748   0.31219   0.31319   0.31685
 Alpha virt. eigenvalues --    0.31782   0.32456   0.32739   0.33128   0.33393
 Alpha virt. eigenvalues --    0.33434   0.33981   0.34207   0.34772   0.35397
 Alpha virt. eigenvalues --    0.35771   0.35957   0.36717   0.36821   0.36949
 Alpha virt. eigenvalues --    0.37203   0.37699   0.38528   0.38721   0.39311
 Alpha virt. eigenvalues --    0.39531   0.40109   0.40956   0.41313   0.42000
 Alpha virt. eigenvalues --    0.42711   0.43109   0.43339   0.43722   0.44686
 Alpha virt. eigenvalues --    0.45873   0.47190   0.47613   0.48312   0.49551
 Alpha virt. eigenvalues --    0.50026   0.50430   0.51169   0.51643   0.52063
 Alpha virt. eigenvalues --    0.54386   0.54554   0.55946   0.57161   0.58337
 Alpha virt. eigenvalues --    0.60435   0.61295   0.64134   0.64472   0.64787
 Alpha virt. eigenvalues --    0.65202   0.65423   0.65769   0.66257   0.67162
 Alpha virt. eigenvalues --    0.67561   0.68260   0.68547   0.69172   0.69836
 Alpha virt. eigenvalues --    0.70024   0.70548   0.71195   0.71938   0.72479
 Alpha virt. eigenvalues --    0.73417   0.73663   0.74296   0.74988   0.75072
 Alpha virt. eigenvalues --    0.76037   0.76459   0.77723   0.77898   0.78560
 Alpha virt. eigenvalues --    0.78626   0.79245   0.80065   0.80158   0.80460
 Alpha virt. eigenvalues --    0.81237   0.82004   0.82533   0.83792   0.84302
 Alpha virt. eigenvalues --    0.85199   0.85594   0.86648   0.88563   0.88773
 Alpha virt. eigenvalues --    0.90366   0.91698   0.92697   0.93259   0.93740
 Alpha virt. eigenvalues --    0.93977   0.94668   0.95038   0.95225   0.96011
 Alpha virt. eigenvalues --    0.97363   0.97925   0.98533   0.98881   0.99155
 Alpha virt. eigenvalues --    0.99955   1.00261   1.01103   1.01720   1.02785
 Alpha virt. eigenvalues --    1.03751   1.04094   1.04279   1.05009   1.05287
 Alpha virt. eigenvalues --    1.05900   1.08114   1.08321   1.09925   1.11084
 Alpha virt. eigenvalues --    1.11324   1.11912   1.12133   1.13125   1.13779
 Alpha virt. eigenvalues --    1.14284   1.15418   1.15513   1.16381   1.16882
 Alpha virt. eigenvalues --    1.17567   1.17893   1.18514   1.19217   1.19426
 Alpha virt. eigenvalues --    1.19977   1.20964   1.21533   1.22372   1.22563
 Alpha virt. eigenvalues --    1.23433   1.23940   1.24980   1.25479   1.26430
 Alpha virt. eigenvalues --    1.27483   1.27557   1.29244   1.29423   1.29687
 Alpha virt. eigenvalues --    1.30573   1.32194   1.32693   1.33465   1.33769
 Alpha virt. eigenvalues --    1.34174   1.34609   1.35456   1.35706   1.35755
 Alpha virt. eigenvalues --    1.35961   1.37160   1.37374   1.37943   1.38548
 Alpha virt. eigenvalues --    1.39328   1.40240   1.40757   1.43443   1.43880
 Alpha virt. eigenvalues --    1.45164   1.46207   1.47041   1.47972   1.48996
 Alpha virt. eigenvalues --    1.50288   1.50871   1.51202   1.52040   1.53548
 Alpha virt. eigenvalues --    1.54895   1.56996   1.57684   1.61660   1.62595
 Alpha virt. eigenvalues --    1.65186   1.67166   1.68094   1.68591   1.69267
 Alpha virt. eigenvalues --    1.70737   1.71503   1.72726   1.73686   1.74481
 Alpha virt. eigenvalues --    1.74698   1.77312   1.78624   1.78707   1.81438
 Alpha virt. eigenvalues --    1.81890   1.82587   1.83211   1.84054   1.85057
 Alpha virt. eigenvalues --    1.85585   1.87165   1.87712   1.90231   1.91025
 Alpha virt. eigenvalues --    1.91719   1.92690   1.94223   1.94956   1.95742
 Alpha virt. eigenvalues --    1.97127   1.97968   1.98072   1.99861   2.01314
 Alpha virt. eigenvalues --    2.01826   2.02493   2.03513   2.04003   2.04315
 Alpha virt. eigenvalues --    2.06613   2.06916   2.07811   2.10027   2.10590
 Alpha virt. eigenvalues --    2.11211   2.14204   2.14252   2.15100   2.16175
 Alpha virt. eigenvalues --    2.18044   2.19311   2.20634   2.21073   2.22552
 Alpha virt. eigenvalues --    2.22894   2.23195   2.23634   2.24800   2.26181
 Alpha virt. eigenvalues --    2.26806   2.28966   2.29443   2.31376   2.31485
 Alpha virt. eigenvalues --    2.32858   2.34550   2.37161   2.37314   2.37719
 Alpha virt. eigenvalues --    2.38432   2.39039   2.39947   2.41128   2.41386
 Alpha virt. eigenvalues --    2.42107   2.43645   2.43736   2.44390   2.44702
 Alpha virt. eigenvalues --    2.45404   2.46433   2.46738   2.49677   2.51197
 Alpha virt. eigenvalues --    2.51583   2.53484   2.54631   2.56283   2.56368
 Alpha virt. eigenvalues --    2.57723   2.58987   2.59869   2.61447   2.62100
 Alpha virt. eigenvalues --    2.62922   2.63614   2.64236   2.65821   2.66098
 Alpha virt. eigenvalues --    2.66655   2.67473   2.68495   2.70238   2.70394
 Alpha virt. eigenvalues --    2.73723   2.74056   2.75081   2.76414   2.76600
 Alpha virt. eigenvalues --    2.77251   2.79749   2.80860   2.82091   2.83884
 Alpha virt. eigenvalues --    2.85226   2.86661   2.89000   2.90099   2.91584
 Alpha virt. eigenvalues --    2.95597   2.97271   2.98832   3.00627   3.03453
 Alpha virt. eigenvalues --    3.06989   3.08583   3.10766   3.12511   3.13776
 Alpha virt. eigenvalues --    3.14772   3.19754   3.20958   3.25269   3.27448
 Alpha virt. eigenvalues --    3.31275   3.33120   3.34574   3.40843   3.46208
 Alpha virt. eigenvalues --    3.52251   3.56418   3.59938   3.62906   3.66282
 Alpha virt. eigenvalues --    3.75011   3.79021   3.94463   3.99866   4.10369
 Alpha virt. eigenvalues --    4.18967   4.28160   4.29563   4.31540   4.33593
 Alpha virt. eigenvalues --    4.34557   4.36084   4.40328   4.41378   4.43433
 Alpha virt. eigenvalues --    4.44239   4.46745   4.49563   4.51373   4.52797
 Alpha virt. eigenvalues --    4.54691   4.58089   4.60540   4.62393   4.68273
 Alpha virt. eigenvalues --    4.73166   4.79902   4.85870   4.99323   5.10107
          Condensed to atoms (all electrons):
              1          2          3          4          5          6
     1  C    6.094546   0.034345  -0.238904   0.094294  -0.147240   0.013550
     2  C    0.034345   7.715510   0.066798  -0.680658   0.718859   0.004994
     3  C   -0.238904   0.066798   6.835383   0.424871   0.259855   0.023297
     4  C    0.094294  -0.680658   0.424871   6.988513  -0.836009  -0.143137
     5  C   -0.147240   0.718859   0.259855  -0.836009   8.602513   0.383023
     6  N    0.013550   0.004994   0.023297  -0.143137   0.383023   6.625830
     7  H    0.000396   0.000470   0.004725   0.072808  -0.112895   0.293810
     8  C   -0.073682  -0.139175  -0.488854  -0.531468  -0.110349   0.240919
     9  C    0.030802  -0.650821  -0.255068   0.916130  -1.240378  -0.116317
    10  C   -0.020543  -0.456069  -0.656078  -0.119951  -0.697360   0.001112
    11  C    0.039407   0.070080  -0.042449  -0.082359  -0.064190  -0.028003
    12  O    0.000057   0.001191   0.022529   0.050569   0.021621   0.000592
    13  C    0.015523   0.052999   0.242743  -0.186593  -0.136047   0.014859
    14  C   -0.005120   0.031551   0.092951   0.084763   0.019675  -0.006895
    15  C   -0.024684  -0.004190  -0.051923   0.269092   0.029067  -0.013070
    16  N   -0.000031  -0.007169   0.007673   0.011371   0.003783   0.000120
    17  C   -0.109211   0.128208  -0.686124  -0.533600  -0.193932  -0.015046
    18  C    0.127971  -0.765314  -0.192253   0.066127  -0.360353  -0.025643
    19  C   -0.129758  -0.231930   0.254139   0.184367  -0.706461  -0.025586
    20  S    0.224703  -0.136973   0.124144  -0.015440  -0.006583  -0.008610
    21  C   -0.000233   0.003634   0.031212  -0.008960   0.016942   0.008717
    22  C    0.000687  -0.002955  -0.016526  -0.009104  -0.036888   0.002801
    23  N   -0.000005  -0.000036  -0.000686   0.000356   0.000101  -0.003077
    24  C   -0.000001   0.000038   0.001721   0.003147  -0.000749  -0.000382
    25  C   -0.000005   0.000042  -0.000574  -0.003368   0.001003  -0.000306
    26  N    0.000000   0.000000   0.000013  -0.000014  -0.000011   0.000003
    27  S    0.000000   0.000003   0.000047  -0.000236  -0.000051  -0.000009
    28  N    0.000001   0.000013   0.000190  -0.000414  -0.000120  -0.000036
    29  C    0.000069   0.001704   0.013701  -0.011467  -0.000015  -0.000022
    30  H    0.369064   0.004323  -0.048388   0.007018  -0.002261   0.000381
    31  H   -0.079400   0.420389  -0.101624   0.005480  -0.053317  -0.000621
    32  H    0.008669   0.019358  -0.025118  -0.053662   0.429611  -0.075941
    33  H    0.006287  -0.005323   0.017440  -0.092418   0.052602  -0.052373
    34  H   -0.000120   0.000446   0.000429   0.001726   0.000575  -0.000157
    35  H   -0.002531   0.004937  -0.038477  -0.022335  -0.005009   0.000152
    36  H   -0.000964  -0.001713  -0.023438   0.021254  -0.010432  -0.043051
    37  H    0.000000   0.000001   0.000055   0.000063  -0.000101  -0.000013
              7          8          9         10         11         12
     1  C    0.000396  -0.073682   0.030802  -0.020543   0.039407   0.000057
     2  C    0.000470  -0.139175  -0.650821  -0.456069   0.070080   0.001191
     3  C    0.004725  -0.488854  -0.255068  -0.656078  -0.042449   0.022529
     4  C    0.072808  -0.531468   0.916130  -0.119951  -0.082359   0.050569
     5  C   -0.112895  -0.110349  -1.240378  -0.697360  -0.064190   0.021621
     6  N    0.293810   0.240919  -0.116317   0.001112  -0.028003   0.000592
     7  H    0.432763  -0.049041   0.098808   0.007214   0.004943   0.001612
     8  C   -0.049041   8.330946  -0.437998   0.248437   0.389875  -0.103975
     9  C    0.098808  -0.437998   7.803788   0.793460   0.108466   0.060605
    10  C    0.007214   0.248437   0.793460   7.484186   0.634515  -0.507328
    11  C    0.004943   0.389875   0.108466   0.634515  13.623100   0.049401
    12  O    0.001612  -0.103975   0.060605  -0.507328   0.049401   8.905662
    13  C   -0.000621  -0.131157   0.252567   0.865804  -1.363392  -0.604382
    14  C    0.000658  -0.121309  -0.451639  -0.956639  -3.057169   0.153898
    15  C    0.002433  -0.053463  -1.002035  -1.480054  -1.461588   0.402581
    16  N    0.000017   0.013560   0.074391   0.101574   0.505097   0.012509
    17  C   -0.001483   0.110076  -0.382529  -0.084040  -0.605875  -0.054404
    18  C    0.003011  -0.555475   0.696761   0.062727  -0.546219   0.214301
    19  C    0.001602  -0.284658  -0.039227  -0.000976   0.004454  -0.018874
    20  S    0.000058   0.026128   0.116668  -0.033933   0.160819  -0.001642
    21  C   -0.002611  -0.271405   0.230248   0.061037   0.462422  -0.158517
    22  C    0.001414  -0.013594  -0.159565  -0.053301  -1.220714  -0.192248
    23  N    0.000370   0.016470  -0.004289   0.000437   0.053238   0.002873
    24  C   -0.000458  -0.056994   0.048743   0.016488   0.072834   0.023503
    25  C    0.000370   0.063317  -0.031704   0.019113  -0.233334   0.007234
    26  N   -0.000004  -0.000712   0.000377   0.000318  -0.015890  -0.000412
    27  S   -0.000002  -0.000058  -0.000786   0.000492  -0.046508  -0.002769
    28  N   -0.000002   0.000544  -0.001091   0.002336  -0.018553  -0.005375
    29  C    0.000202   0.009477   0.008710   0.110566  -1.161051  -0.008833
    30  H    0.000006  -0.001047  -0.003961  -0.002842   0.002132  -0.000002
    31  H    0.000119   0.006352   0.002132  -0.001535   0.000120   0.000061
    32  H   -0.014366   0.022001  -0.036755  -0.003653  -0.003102  -0.000176
    33  H   -0.056897  -0.042360  -0.091673   0.036505  -0.276798  -0.003283
    34  H    0.000016  -0.000945  -0.010961  -0.015409  -0.000613   0.030062
    35  H   -0.000038   0.010263  -0.010364  -0.028887  -0.032316   0.001829
    36  H    0.007130   0.345002  -0.084154   0.023260   0.040498   0.038049
    37  H   -0.000033  -0.002599   0.001581   0.000250  -0.001113   0.000127
             13         14         15         16         17         18
     1  C    0.015523  -0.005120  -0.024684  -0.000031  -0.109211   0.127971
     2  C    0.052999   0.031551  -0.004190  -0.007169   0.128208  -0.765314
     3  C    0.242743   0.092951  -0.051923   0.007673  -0.686124  -0.192253
     4  C   -0.186593   0.084763   0.269092   0.011371  -0.533600   0.066127
     5  C   -0.136047   0.019675   0.029067   0.003783  -0.193932  -0.360353
     6  N    0.014859  -0.006895  -0.013070   0.000120  -0.015046  -0.025643
     7  H   -0.000621   0.000658   0.002433   0.000017  -0.001483   0.003011
     8  C   -0.131157  -0.121309  -0.053463   0.013560   0.110076  -0.555475
     9  C    0.252567  -0.451639  -1.002035   0.074391  -0.382529   0.696761
    10  C    0.865804  -0.956639  -1.480054   0.101574  -0.084040   0.062727
    11  C   -1.363392  -3.057169  -1.461588   0.505097  -0.605875  -0.546219
    12  O   -0.604382   0.153898   0.402581   0.012509  -0.054404   0.214301
    13  C   13.735863  -0.760434  -3.834294   0.212928  -0.802892  -1.053292
    14  C   -0.760434   8.752842   2.133830  -0.582471   0.525835   0.080700
    15  C   -3.834294   2.133830  11.571977  -0.277468   0.461167   0.631523
    16  N    0.212928  -0.582471  -0.277468   7.275371  -0.347065   0.330087
    17  C   -0.802892   0.525835   0.461167  -0.347065   9.736605  -1.132920
    18  C   -1.053292   0.080700   0.631523   0.330087  -1.132920   8.995929
    19  C    0.399471   0.030955  -0.284524   0.020834  -0.166258  -0.123651
    20  S    0.012753  -0.026791  -0.127756   0.021847  -0.174084  -0.051854
    21  C    1.218573  -0.408938  -0.398441   0.009937   0.029956   0.040497
    22  C   -0.904422   0.036286   0.186628  -0.004430  -0.080262  -0.078161
    23  N    0.071810   0.002992   0.010533  -0.000001   0.000990  -0.001921
    24  C   -0.405860  -0.210071  -0.078513   0.000504   0.002907   0.006440
    25  C   -0.807049   0.127830   0.053706   0.000657  -0.004677  -0.012806
    26  N   -0.043673   0.029124  -0.003699  -0.000011  -0.000113  -0.000025
    27  S   -0.157843   0.020041  -0.006778   0.000017  -0.000282  -0.000992
    28  N    0.025947   0.143093  -0.000730  -0.000124   0.002165  -0.002277
    29  C    0.220019   0.219560  -0.328352   0.016297  -0.059663  -0.070996
    30  H    0.000312  -0.000028  -0.000363  -0.000035  -0.002842  -0.007088
    31  H   -0.000336   0.000417   0.001635  -0.000148   0.013495   0.019934
    32  H   -0.000019  -0.000634  -0.003296   0.000129  -0.002522  -0.012609
    33  H    0.296989  -0.059015  -0.189140   0.004715  -0.035696   0.019714
    34  H   -0.144728   0.416763   0.068648  -0.025110   0.033679  -0.005951
    35  H   -0.019089   0.032508   0.084264  -0.146316   0.666884  -0.303661
    36  H   -0.411364  -0.018246   0.126751  -0.001704   0.014697  -0.057516
    37  H   -0.012744  -0.003940  -0.001425   0.000005   0.000033   0.000141
             19         20         21         22         23         24
     1  C   -0.129758   0.224703  -0.000233   0.000687  -0.000005  -0.000001
     2  C   -0.231930  -0.136973   0.003634  -0.002955  -0.000036   0.000038
     3  C    0.254139   0.124144   0.031212  -0.016526  -0.000686   0.001721
     4  C    0.184367  -0.015440  -0.008960  -0.009104   0.000356   0.003147
     5  C   -0.706461  -0.006583   0.016942  -0.036888   0.000101  -0.000749
     6  N   -0.025586  -0.008610   0.008717   0.002801  -0.003077  -0.000382
     7  H    0.001602   0.000058  -0.002611   0.001414   0.000370  -0.000458
     8  C   -0.284658   0.026128  -0.271405  -0.013594   0.016470  -0.056994
     9  C   -0.039227   0.116668   0.230248  -0.159565  -0.004289   0.048743
    10  C   -0.000976  -0.033933   0.061037  -0.053301   0.000437   0.016488
    11  C    0.004454   0.160819   0.462422  -1.220714   0.053238   0.072834
    12  O   -0.018874  -0.001642  -0.158517  -0.192248   0.002873   0.023503
    13  C    0.399471   0.012753   1.218573  -0.904422   0.071810  -0.405860
    14  C    0.030955  -0.026791  -0.408938   0.036286   0.002992  -0.210071
    15  C   -0.284524  -0.127756  -0.398441   0.186628   0.010533  -0.078513
    16  N    0.020834   0.021847   0.009937  -0.004430  -0.000001   0.000504
    17  C   -0.166258  -0.174084   0.029956  -0.080262   0.000990   0.002907
    18  C   -0.123651  -0.051854   0.040497  -0.078161  -0.001921   0.006440
    19  C    7.639163  -0.121320   0.007043   0.013955   0.000020   0.000649
    20  S   -0.121320  16.230125   0.000570  -0.000252   0.000017   0.000007
    21  C    0.007043   0.000570   9.964340  -3.455032   0.407612   0.286198
    22  C    0.013955  -0.000252  -3.455032  11.475373  -0.098630  -0.579951
    23  N    0.000020   0.000017   0.407612  -0.098630   6.787813  -0.145131
    24  C    0.000649   0.000007   0.286198  -0.579951  -0.145131  10.947659
    25  C    0.001088   0.000072  -1.929469   0.826504   0.202313  -3.079851
    26  N    0.000012  -0.000000   0.057039   0.003764   0.001510  -0.472574
    27  S    0.000091  -0.000002  -0.045204   0.028290   0.002751   0.012405
    28  N    0.000187  -0.000004  -0.071353   0.038087   0.003872   0.082697
    29  C    0.018229   0.000396   0.321105   0.614042  -0.027699  -1.447776
    30  H    0.022181  -0.044726   0.000001   0.000009  -0.000000   0.000000
    31  H    0.029903   0.001434   0.000115   0.000049  -0.000001   0.000005
    32  H   -0.007083   0.003882  -0.000118  -0.000997   0.000037  -0.000025
    33  H   -0.015286  -0.006809   0.259113   0.041014  -0.042460  -0.025832
    34  H   -0.002314  -0.000470  -0.049911  -0.019597   0.000578   0.001472
    35  H   -0.013314  -0.023155  -0.001151   0.000506   0.000006  -0.000028
    36  H    0.008851   0.002358  -0.873701   0.578583  -0.150955   0.142046
    37  H    0.000021   0.000000   0.010118  -0.016486  -0.114527   0.705870
             25         26         27         28         29         30
     1  C   -0.000005   0.000000   0.000000   0.000001   0.000069   0.369064
     2  C    0.000042   0.000000   0.000003   0.000013   0.001704   0.004323
     3  C   -0.000574   0.000013   0.000047   0.000190   0.013701  -0.048388
     4  C   -0.003368  -0.000014  -0.000236  -0.000414  -0.011467   0.007018
     5  C    0.001003  -0.000011  -0.000051  -0.000120  -0.000015  -0.002261
     6  N   -0.000306   0.000003  -0.000009  -0.000036  -0.000022   0.000381
     7  H    0.000370  -0.000004  -0.000002  -0.000002   0.000202   0.000006
     8  C    0.063317  -0.000712  -0.000058   0.000544   0.009477  -0.001047
     9  C   -0.031704   0.000377  -0.000786  -0.001091   0.008710  -0.003961
    10  C    0.019113   0.000318   0.000492   0.002336   0.110566  -0.002842
    11  C   -0.233334  -0.015890  -0.046508  -0.018553  -1.161051   0.002132
    12  O    0.007234  -0.000412  -0.002769  -0.005375  -0.008833  -0.000002
    13  C   -0.807049  -0.043673  -0.157843   0.025947   0.220019   0.000312
    14  C    0.127830   0.029124   0.020041   0.143093   0.219560  -0.000028
    15  C    0.053706  -0.003699  -0.006778  -0.000730  -0.328352  -0.000363
    16  N    0.000657  -0.000011   0.000017  -0.000124   0.016297  -0.000035
    17  C   -0.004677  -0.000113  -0.000282   0.002165  -0.059663  -0.002842
    18  C   -0.012806  -0.000025  -0.000992  -0.002277  -0.070996  -0.007088
    19  C    0.001088   0.000012   0.000091   0.000187   0.018229   0.022181
    20  S    0.000072  -0.000000  -0.000002  -0.000004   0.000396  -0.044726
    21  C   -1.929469   0.057039  -0.045204  -0.071353   0.321105   0.000001
    22  C    0.826504   0.003764   0.028290   0.038087   0.614042   0.000009
    23  N    0.202313   0.001510   0.002751   0.003872  -0.027699  -0.000000
    24  C   -3.079851  -0.472574   0.012405   0.082697  -1.447776   0.000000
    25  C   13.103643   0.187498   0.130190  -0.212113  -2.074811  -0.000000
    26  N    0.187498   7.375499   0.005250  -0.120074   0.397276   0.000000
    27  S    0.130190   0.005250  15.617581  -0.130382  -0.284650   0.000000
    28  N   -0.212113  -0.120074  -0.130382   7.664533   0.047964   0.000000
    29  C   -2.074811   0.397276  -0.284650   0.047964   9.608852   0.000001
    30  H   -0.000000   0.000000   0.000000   0.000000   0.000001   0.523288
    31  H   -0.000004   0.000000   0.000000   0.000000  -0.000010  -0.004893
    32  H    0.000046  -0.000000  -0.000000  -0.000000   0.000043  -0.000017
    33  H   -0.012299   0.000878  -0.000908  -0.001985   0.017647   0.000054
    34  H   -0.007108  -0.000143  -0.003466  -0.007663  -0.034672  -0.000001
    35  H   -0.000171   0.000001   0.000007   0.000020  -0.001373   0.000399
    36  H    0.010314  -0.004259   0.002526   0.009389  -0.058314  -0.000009
    37  H   -0.420129  -0.003142  -0.002341  -0.004902   0.042296   0.000000
             31         32         33         34         35         36
     1  C   -0.079400   0.008669   0.006287  -0.000120  -0.002531  -0.000964
     2  C    0.420389   0.019358  -0.005323   0.000446   0.004937  -0.001713
     3  C   -0.101624  -0.025118   0.017440   0.000429  -0.038477  -0.023438
     4  C    0.005480  -0.053662  -0.092418   0.001726  -0.022335   0.021254
     5  C   -0.053317   0.429611   0.052602   0.000575  -0.005009  -0.010432
     6  N   -0.000621  -0.075941  -0.052373  -0.000157   0.000152  -0.043051
     7  H    0.000119  -0.014366  -0.056897   0.000016  -0.000038   0.007130
     8  C    0.006352   0.022001  -0.042360  -0.000945   0.010263   0.345002
     9  C    0.002132  -0.036755  -0.091673  -0.010961  -0.010364  -0.084154
    10  C   -0.001535  -0.003653   0.036505  -0.015409  -0.028887   0.023260
    11  C    0.000120  -0.003102  -0.276798  -0.000613  -0.032316   0.040498
    12  O    0.000061  -0.000176  -0.003283   0.030062   0.001829   0.038049
    13  C   -0.000336  -0.000019   0.296989  -0.144728  -0.019089  -0.411364
    14  C    0.000417  -0.000634  -0.059015   0.416763   0.032508  -0.018246
    15  C    0.001635  -0.003296  -0.189140   0.068648   0.084264   0.126751
    16  N   -0.000148   0.000129   0.004715  -0.025110  -0.146316  -0.001704
    17  C    0.013495  -0.002522  -0.035696   0.033679   0.666884   0.014697
    18  C    0.019934  -0.012609   0.019714  -0.005951  -0.303661  -0.057516
    19  C    0.029903  -0.007083  -0.015286  -0.002314  -0.013314   0.008851
    20  S    0.001434   0.003882  -0.006809  -0.000470  -0.023155   0.002358
    21  C    0.000115  -0.000118   0.259113  -0.049911  -0.001151  -0.873701
    22  C    0.000049  -0.000997   0.041014  -0.019597   0.000506   0.578583
    23  N   -0.000001   0.000037  -0.042460   0.000578   0.000006  -0.150955
    24  C    0.000005  -0.000025  -0.025832   0.001472  -0.000028   0.142046
    25  C   -0.000004   0.000046  -0.012299  -0.007108  -0.000171   0.010314
    26  N    0.000000  -0.000000   0.000878  -0.000143   0.000001  -0.004259
    27  S    0.000000  -0.000000  -0.000908  -0.003466   0.000007   0.002526
    28  N    0.000000  -0.000000  -0.001985  -0.007663   0.000020   0.009389
    29  C   -0.000010   0.000043   0.017647  -0.034672  -0.001373  -0.058314
    30  H   -0.004893  -0.000017   0.000054  -0.000001   0.000399  -0.000009
    31  H    0.655215  -0.012743   0.000315   0.000005   0.000664  -0.000099
    32  H   -0.012743   0.589029   0.002849  -0.000007  -0.000039   0.001047
    33  H    0.000315   0.002849   1.675767  -0.004753  -0.000174  -0.711941
    34  H    0.000005  -0.000007  -0.004753   0.568875   0.002533   0.005887
    35  H    0.000664  -0.000039  -0.000174   0.002533   0.685636   0.000174
    36  H   -0.000099   0.001047  -0.711941   0.005887   0.000174   1.689396
    37  H    0.000000  -0.000003   0.000177   0.000025  -0.000001   0.002252
             37
     1  C    0.000000
     2  C    0.000001
     3  C    0.000055
     4  C    0.000063
     5  C   -0.000101
     6  N   -0.000013
     7  H   -0.000033
     8  C   -0.002599
     9  C    0.001581
    10  C    0.000250
    11  C   -0.001113
    12  O    0.000127
    13  C   -0.012744
    14  C   -0.003940
    15  C   -0.001425
    16  N    0.000005
    17  C    0.000033
    18  C    0.000141
    19  C    0.000021
    20  S    0.000000
    21  C    0.010118
    22  C   -0.016486
    23  N   -0.114527
    24  C    0.705870
    25  C   -0.420129
    26  N   -0.003142
    27  S   -0.002341
    28  N   -0.004902
    29  C    0.042296
    30  H    0.000000
    31  H    0.000000
    32  H   -0.000003
    33  H    0.000177
    34  H    0.000025
    35  H   -0.000001
    36  H    0.002252
    37  H    0.624843
 Mulliken atomic charges:
              1
     1  C   -0.227941
     2  C   -0.197568
     3  C    0.442566
     4  C    0.129246
     5  C    0.181521
     6  N   -0.055866
     7  H    0.303497
     8  C   -0.363050
     9  C   -0.232923
    10  C    0.648765
    11  C    0.039835
    12  O   -0.338646
    13  C    0.141069
    14  C   -0.266936
    15  C   -0.408051
    16  N   -0.231339
    17  C   -0.251177
    18  C    0.065113
    19  C   -0.465996
    20  S   -0.145575
    21  C    0.248614
    22  C   -0.904879
    23  N    0.022722
    24  C    0.148863
    25  C    0.094836
    26  N   -0.393807
    27  S    0.863572
    28  N   -0.443843
    29  C   -0.098452
    30  H    0.189333
    31  H    0.096892
    32  H    0.176185
    33  H    0.295359
    34  H    0.202378
    35  H    0.157645
    36  H    0.382397
    37  H    0.195640
 Sum of Mulliken atomic charges =  -0.00000
 Mulliken charges with hydrogens summed into heavy atoms:
              1
     1  C   -0.038608
     2  C   -0.100675
     3  C    0.442566
     4  C    0.129246
     5  C    0.357706
     6  N    0.247631
     8  C   -0.067691
     9  C   -0.232923
    10  C    0.648765
    11  C    0.039835
    12  O   -0.338646
    13  C    0.141069
    14  C   -0.064558
    15  C   -0.408051
    16  N   -0.231339
    17  C   -0.093531
    18  C    0.065113
    19  C   -0.465996
    20  S   -0.145575
    21  C    0.248614
    22  C   -0.522482
    23  N    0.022722
    24  C    0.344503
    25  C    0.094836
    26  N   -0.393807
    27  S    0.863572
    28  N   -0.443843
    29  C   -0.098452
 Sum of Mulliken charges with hydrogens summed into heavy atoms =  -0.00000
[...]
 0016400,0.00000280,0.00094185,-0.00029212,0.00000432,-0.00056392,-0.00
 304962,0.00005218,-0.00480991,-0.00395420,0.00008209,-0.01377583,0.030
 86910,-0.00002889,0.00069658,-0.00003895,-0.00002455,-0.13464908,0.128
 32940,0.00054511,0.01229634,-0.00796287,-0.00007051,0.00040035,0.00100
 004,-0.00003123,0.00000881,-0.00151524,0.00000871,-0.00037497,0.000671
 02,-0.00000677,-0.00102579,0.00034598,0.00001241,0.00024775,0.00017647
 ,-0.00000567,0.00016005,-0.00004063,0.00000013,-0.00010736,0.00014618,
 -0.00000098,0.00011907,0.00004562,-0.00000162,-0.00019350,-0.00002239,
 0.00000151,0.00014523,0.00004931,-0.00000718,0.00000129,-0.00001672,0.
 00000355,0.00017226,-0.00017329,0.00000321,-0.00047117,0.00020053,-0.0
 0000006,0.00016711,-0.00018024,-0.00000268,0.00004132,0.00000312,0.000
 00081,0.00000661,-0.00003285,-0.00000183,0.00002397,-0.00004122,-0.000
 00241,0.00002100,0.00000750,0.00000479,0.00005520,0.00001763,-0.000003
 05,-0.00009931,0.00004887,-0.00000087,-0.00001635,-0.00002946,0.000001
 31,0.00001792,-0.00001498,0.00000171,-0.00005289,0.00135466,0.00001670
 ,0.14077766,0.00011816,-0.00006103,0.00000208,-0.00027131,-0.00029550,
 0.00000572,0.00147210,-0.00000924,-0.00001114,-0.00272827,-0.00398359,
 0.00006445,-0.00204045,0.00056306,0.00002492,-0.00487058,0.00798437,-0
 .00000172,0.00083547,0.00015061,-0.00001688,0.13669172,-0.28998005,-0.
 00017538,0.01613873,-0.00854357,-0.00011956,0.00044130,0.00080648,-0.0
 0001413,-0.00062527,-0.00129377,0.00000898,0.00128630,0.00016026,-0.00
 001343,-0.00071407,0.00049280,-0.00000311,0.00027988,0.00013463,0.0000
 0050,0.00010505,0.00011540,0.00000201,0.00001247,0.00004278,-0.0000007
 8,0.00000619,-0.00006086,-0.00000107,0.00009323,-0.00030231,0.00000136
 ,-0.00015935,0.00016390,0.00000323,-0.00003417,-0.00011290,-0.00000292
 ,-0.00009135,0.00014308,-0.00000467,0.00023988,-0.00013934,0.00000228,
 -0.00010186,0.00007398,0.00000164,0.00002621,-0.00002626,-0.00000371,0
 .00000785,-0.00000091,0.00000768,0.00000382,-0.00002219,-0.00000269,-0
 .00002569,0.00001277,-0.00000176,0.00000100,-0.00001225,-0.00000172,-0
 .00000211,-0.00005860,0.00000436,-0.00002631,-0.00003604,-0.00000090,0
 .00001512,-0.00000002,-0.00000174,-0.00011228,0.00045650,0.00000943,-0
 .14602766,0.29350341,-0.00000124,0.00000037,-0.00006647,0.00000601,0.0
 0000611,0.00013660,-0.00000421,0.00000503,0.00118740,0.00005215,0.0000
 6048,0.00384152,0.00007591,0.00004509,0.00222979,0.00011731,-0.0003366
 0,-0.00341934,-0.00002752,-0.00000754,-0.00197936,0.00051040,-0.000096
 78,-0.02020925,-0.00016939,0.00011376,0.00108555,-0.00003069,-0.000023
 66,-0.00243613,0.00000018,0.00002126,0.00005744,-0.00000512,-0.0000068
 6,-0.00044421,0.00001274,-0.00000671,0.00000504,-0.00000070,-0.0000013
 1,0.00000266,-0.00000035,-0.00000276,0.00024660,0.00000016,-0.00000037
 ,-0.00013000,-0.00000318,-0.00000214,0.00016992,0.00000230,0.00000233,
 -0.00012927,-0.00000312,-0.00000383,-0.00027435,-0.00000036,0.00000193
 ,0.00002452,-0.00000220,0.00000082,0.00006015,0.00000222,-0.00000377,-
 0.00013074,-0.00000139,0.00000217,-0.00005689,-0.00000266,-0.00000032,
 0.00002385,0.00000228,-0.00000141,0.00002332,-0.00000058,0.00000023,-0
 .00001988,0.00000241,-0.00000030,0.00001253,-0.00000184,0.00000257,-0.
 00001090,0.00000081,-0.00000079,0.00000480,0.00000005,-0.00000051,-0.0
 0004304,0.,0.00000033,0.00005124,0.00002190,-0.00000534,0.00229867,-0.
 00055556,0.00023974,0.01760060,-0.00000904,0.00000229,0.00000330,0.000
 00299,0.00001039,0.00000130,0.00003018,0.00001415,-0.00000202,-0.00002
 573,-0.00006145,0.00000488,-0.00001542,0.00001984,-0.00000073,-0.00002
 898,-0.00002057,-0.00000028,-0.00000606,-0.00000003,-0.00000023,0.0000
 2514,0.00003351,0.00000137,-0.00006342,0.00014603,-0.00000561,-0.00032
 703,-0.00057859,0.00001228,-0.00176547,0.00119633,0.00004166,0.0018349
 8,0.00020265,0.00006185,-0.00548312,0.00279078,0.00002563,-0.36252642,
 -0.03814868,0.00326637,-0.00785729,-0.00533216,0.00010822,0.00110803,-
 0.00029891,-0.00002569,-0.00033859,0.00022165,0.00000004,0.00032997,0.
 00000104,-0.00000400,-0.00002731,0.00003209,0.00000482,-0.00000385,-0.
 00000503,-0.00000407,0.00007776,-0.00039605,-0.00002874,-0.00005685,0.
 00001063,0.00000221,-0.00012133,-0.00001157,0.00000598,0.00007601,0.00
 011388,-0.00000391,-0.00007563,-0.00013068,0.00000996,-0.00009933,0.00
 006712,-0.00000016,-0.00048635,0.00063641,-0.00000146,-0.00207748,0.00
 177005,0.00000684,0.00066165,-0.00048049,0.00000087,-0.00000191,0.0000
 0240,-0.00000146,0.00000056,0.00000016,-0.00000177,-0.00000546,-0.0000
 0589,0.00000062,0.00000145,-0.00000097,-0.00000010,0.37729550,0.000046
 10,-0.00001208,-0.00000051,-0.00001636,-0.00002289,0.00000031,-0.00005
 063,-0.00002106,0.00000034,0.00007202,0.00010921,0.00000005,-0.0000098
 4,-0.00002915,-0.00000008,0.00001121,0.00005121,-0.00000056,0.00000551
 ,0.00000586,-0.00000003,-0.00000784,-0.00008636,0.00000029,0.00026020,
 -0.00034141,-0.00000249,0.00068444,0.00142478,-0.00000956,0.00374965,-
 0.00588281,0.00000290,-0.00608885,-0.00335304,0.00010325,-0.02355463,0
 .00574392,0.00019375,-0.03291150,-0.05976279,0.00042614,0.02116433,0.0
 1043125,-0.00023574,-0.00250736,0.00139312,0.00001060,0.00026362,-0.00
 012904,-0.00000416,-0.00035355,-0.00003086,0.00000367,0.00001354,-0.00
 004047,0.00000019,0.00000628,0.00001026,0.00000002,0.00060396,0.000899
 71,-0.00002006,-0.00014667,-0.00020562,0.00000157,0.00018721,0.0001302
 2,-0.00000100,-0.00008740,-0.00019118,0.00000097,-0.00016887,0.0000576
 5,0.00000374,-0.00005390,0.00100705,-0.00000524,0.00138420,-0.00036136
 ,-0.00000994,0.00009474,-0.00083704,-0.00000155,-0.00092934,-0.0010513
 8,0.00001443,-0.00000078,-0.00000026,0.00000024,-0.00000123,-0.0000015
 9,0.00000003,0.00000792,0.00001401,0.00000019,0.00004011,0.00006090,-0
 .00000024,0.03820128,0.05088115,0.00000134,-0.00000055,0.00000198,0.00
 000393,0.00000601,-0.00000693,-0.00000130,-0.00000517,0.00000984,-0.00
 000081,0.00000135,-0.00002281,0.00000303,0.00000217,-0.00001023,-0.000
 00033,-0.00000160,-0.00000432,0.00000174,0.00000106,0.00000256,-0.0000
 0318,0.00000220,-0.00000871,0.00000232,0.00000140,-0.00004422,0.000000
 39,-0.00000063,0.00049756,0.00002846,0.00003023,0.00342484,0.00008642,
 0.00004949,0.00825563,0.00014003,-0.00005530,-0.00077348,0.00324802,0.
 00047713,-0.03082700,-0.00000334,0.00000561,0.00120220,-0.00001636,-0.
 00000737,-0.00178618,-0.00000853,-0.00001010,-0.00025187,0.00000258,0.
 00000380,-0.00010777,0.00000160,-0.00000346,0.00003952,-0.00000192,0.0
 0000266,-0.00000704,-0.00003179,-0.00001167,-0.00263335,-0.00000134,-0
 .00000421,-0.00024970,0.00000484,0.00000273,0.00036181,-0.00000638,-0.
 00000202,0.00001406,0.00001038,-0.00000233,0.00032288,0.00000038,-0.00
 000506,-0.00000044,0.00000538,-0.00000465,0.00003774,0.00000998,-0.000
 00998,-0.00062934,-0.00000089,0.00000898,0.00015518,0.00000032,-0.0000
 0162,-0.00000094,-0.00000062,-0.00000007,0.00000238,-0.00000135,-0.000
 00018,0.00000697,0.00000199,-0.00000063,0.00003419,-0.00347617,-0.0004
 7074,0.02303065,-0.00081749,-0.00008809,0.00000355,0.00033601,0.000302
 56,-0.00000447,0.00035680,0.00002629,-0.00000752,0.00015102,-0.0001440
 3,0.00000325,-0.00003376,0.00005130,-0.00000045,-0.00014101,-0.0001615
 6,0.00000194,-0.00005088,0.00001709,0.00000029,-0.00033177,0.00016335,
 0.00000262,0.00041267,-0.00154685,-0.00000313,-0.00513315,-0.00083565,
 0.00009798,-0.00115644,0.00068012,0.00001133,0.00033903,0.00027222,-0.
 00001620,-0.00025098,0.00023266,-0.00000475,0.00074500,0.00063770,-0.0
 0000152,-0.00302132,0.00450522,0.00011470,-0.00217001,0.03645652,-0.00
 017842,-0.05934808,-0.03749962,0.00034371,0.00035271,-0.02758824,0.000
 15998,0.00113364,-0.00131670,-0.00002200,-0.00149386,0.00132993,0.0000
 1738,0.00016125,-0.00003498,-0.00000440,-0.00002543,0.00006560,0.00000
 141,0.00001041,0.00000306,0.00000026,-0.00001087,0.00001911,-0.0000019
 3,0.00000160,0.00000966,0.00000398,-0.00000055,0.00003094,-0.00000384,
 0.00000032,-0.00001219,0.00000228,-0.00002302,0.00000258,-0.00000288,0
 .00000759,-0.00001611,0.00000215,0.00013224,0.00003787,-0.00000110,0.0
 0002333,0.00006748,0.00000024,-0.00002286,-0.00002135,0.00000095,-0.00
 001087,-0.00002016,0.00000071,-0.00001259,-0.00000749,0.00000214,0.069
 89903,-0.00047609,0.00055604,-0.00000035,0.00047188,0.00012381,-0.0000
 0560,-0.00019061,-0.00012939,0.00000158,0.00012774,-0.00003152,-0.0000
 0289,-0.00010268,-0.00010918,0.00000153,-0.00027342,0.00000718,0.00000
 342,-0.00001548,0.00002772,-0.00000003,0.00001485,0.00023616,-0.000001
 47,0.00022502,-0.00059509,0.00000168,-0.00180769,0.00087317,0.00003186
 ,-0.00026014,0.00044324,0.00000219,-0.00028653,-0.00021648,-0.00000119
 ,0.00038557,-0.00005740,-0.00000223,-0.00039498,-0.00050124,0.00000814
 ,0.00202926,0.00141745,0.00001972,0.01055535,-0.01929764,-0.00004223,-
 0.03577509,-0.32373016,0.00149768,0.00051445,-0.00964133,0.00005547,0.
 00047584,-0.00041161,-0.00001130,0.00038519,-0.00005631,0.00000114,-0.
 00010052,0.00008038,0.00000130,-0.00000468,-0.00003537,-0.00000122,0.0
 0000601,-0.00001618,0.,0.00000750,-0.00002097,0.00000117,0.00000440,-0
 .00001710,-0.00000224,0.00000211,-0.00005170,0.00000144,-0.00000142,0.
 00003053,0.00000019,0.00002392,-0.00001369,0.00000048,-0.00000395,0.00
 000136,-0.00000143,0.00005868,-0.00000620,-0.00000029,0.00001859,0.000
 10324,0.00000025,-0.00002252,-0.00001392,-0.00000005,0.00000671,0.0000
 0371,-0.00000023,0.00000826,0.00001183,0.00000034,0.02438239,0.3510263
 6,0.00000521,-0.00000382,-0.00051753,-0.00000330,0.00000026,-0.0000528
 4,-0.00000630,-0.00000439,-0.00033420,-0.00000089,0.00000100,0.0000314
 8,0.00000231,0.00000093,-0.00000254,0.00000331,0.00000086,0.00007391,0
 .00000178,0.00000095,-0.00001444,0.00000081,-0.00000095,-0.00000421,-0
 .00000544,0.00001691,-0.00016608,0.00009744,0.00002186,0.00474100,0.00
 001184,-0.00000536,0.00034211,-0.00001126,-0.00000396,-0.00109325,-0.0
 0000299,-0.00000448,-0.00036067,0.00000503,0.00000071,0.00078952,0.000
 12310,-0.00000740,0.01105388,-0.00007214,-0.00028339,-0.00534945,0.000
 33582,0.00151108,-0.03872435,0.00004601,0.00032069,0.00525581,-0.00002
 977,0.00000468,-0.00183707,0.00002037,-0.00000622,0.00097818,-0.000004
 79,-0.00000203,-0.00020916,-0.00000004,-0.00000248,0.00000008,0.000000
 47,0.00000166,0.00004997,-0.00000123,-0.00000048,0.00000267,0.00000102
 ,-0.00000238,0.00001218,0.00000042,0.00000018,-0.00000411,0.00000246,-
 0.00000086,0.00000297,-0.00000084,0.00000328,-0.00001031,-0.00000017,-
 0.00000097,0.00002556,-0.00000084,-0.00000157,0.00000485,0.00000006,-0
 .00000070,0.00011119,-0.00000035,0.00000027,-0.00000659,0.00000081,0.0
 0000035,-0.00000205,0.00000073,0.00000077,0.00010932,-0.00051888,-0.00
 155672,0.02513455,-0.00001825,0.00001267,0.00000193,0.00000374,0.00000
 935,0.00000091,0.00000916,0.00000857,-0.00000172,0.00003077,-0.0000311
 4,0.00000568,-0.00000385,-0.00001420,-0.00000106,-0.00008605,-0.000078
 67,-0.00000014,-0.00001769,0.00001674,0.00000038,-0.00000404,0.0001704
 8,-0.00000054,0.00004175,-0.00002333,-0.00000684,0.00003364,0.00009808
 ,0.00000303,0.00071974,-0.00069744,-0.00000726,0.00066514,0.00241582,-
 0.00001747,-0.00203869,0.00100735,-0.00001815,0.00019750,-0.00004015,0
 .00000065,0.00002066,0.00025124,0.00000002,0.00006507,0.00005109,-0.00
 000057,0.00003008,0.00000071,-0.00000262,-0.00002494,-0.00005862,0.000
 00267,0.00000643,-0.00001630,0.00000184,-0.00000010,-0.00000508,-0.000
 00216,-0.01618154,0.00404912,0.00019369,-0.33648342,0.04440892,0.00260
 667,-0.00305374,0.00818692,-0.00001395,0.00248191,0.00005494,0.0000320
 8,0.00022466,-0.00039237,0.00000110,0.00010709,0.00016928,-0.00000742,
 -0.00028032,-0.00025811,-0.00000828,-0.00082935,0.00033022,0.00001200,
 -0.00031878,-0.00305993,0.00008995,-0.00000290,-0.00000150,-0.00000033
 ,-0.00000345,0.00000068,-0.00000113,-0.00000432,-0.00000670,0.00000107
 ,-0.00004731,0.00008171,0.00000270,-0.00001035,0.00007113,-0.00000018,
 -0.00000482,0.00000788,0.00000033,0.35495935,-0.00002625,0.00002441,-0
 .00000233,0.00001204,0.00001864,-0.00000096,-0.00000962,-0.00002605,0.
 00000083,-0.00001120,-0.00000614,-0.00000030,-0.00010616,0.00008232,0.
 00000093,-0.00002778,0.00002531,-0.00000057,0.00000427,0.00005313,0.00
 000027,0.00003541,-0.00014790,-0.00000175,0.00000798,-0.00005010,0.000
 00090,-0.00008463,0.00019609,0.00000035,0.00043637,-0.00142995,0.00000
 329,0.00012898,-0.00151510,0.00000081,-0.00149165,0.00033787,0.0000037
 7,0.00028381,0.00049544,-0.00000729,0.00031303,0.00002095,-0.00000388,
 0.00001197,0.00021109,-0.00000111,0.00014246,0.00001462,-0.00000388,-0
 .00008760,-0.00012719,0.00000246,0.00002491,-0.00002891,-0.00000294,0.
 00000389,0.00001568,0.00000301,-0.02306324,0.00871403,0.00021117,0.044
 47670,-0.06052748,-0.00033990,0.03571204,-0.01563494,-0.00027890,0.002
 31186,-0.00466734,0.00002263,-0.00024569,-0.00084292,0.00000313,0.0002
 6084,0.00037371,-0.00000834,-0.00046580,0.00000527,0.00000463,-0.00127
 184,0.00056231,0.00000992,-0.00186052,-0.00414035,0.00006437,-0.000000
 90,-0.00000183,0.00000154,-0.00000551,-0.00000261,0.00000135,-0.000005
 45,0.00001066,0.00000038,0.00032139,0.00006709,-0.00000126,0.00000837,
 0.00010134,0.00000158,-0.00000103,0.00001112,0.00000080,-0.05669702,0.
 07794911,0.00000156,-0.00000063,-0.00000327,0.00000187,0.00000229,-0.0
 0000035,-0.00000084,-0.00000179,0.00000548,-0.00000198,0.00000269,-0.0
 0000119,0.00000187,0.00000123,-0.00000187,-0.00000054,-0.00000027,-0.0
 0007010,0.00000076,-0.00000062,0.00004922,-0.00000192,-0.00000084,-0.0
 0011414,0.00000224,0.00000143,-0.00001530,-0.00000092,-0.00000202,0.00
 009680,-0.00001133,0.00001420,-0.00019337,-0.00000765,-0.00001464,-0.0
 0008153,-0.00000139,-0.00002458,-0.00296321,0.00000026,-0.00000140,-0.
 00000369,-0.00000418,-0.00000465,-0.00006032,-0.00000084,-0.00000090,0
 .00001651,-0.00000583,-0.00000684,0.00003765,0.00000471,0.00000501,0.0
 0002635,0.00000090,-0.00000166,-0.00002539,-0.00000094,0.00000094,0.00
 000608,0.00030428,-0.00004687,0.00647359,0.00260190,-0.00033806,-0.040
 65041,-0.00012407,-0.00001972,-0.00109032,0.00001995,0.00004171,0.0062
 4854,0.00000078,0.00000250,-0.00045335,-0.00000594,-0.00000498,-0.0002
 3720,-0.00000362,-0.00000218,-0.00132018,0.00001830,0.00000105,0.00088
 241,0.00008337,0.00007816,0.00758249,-0.00000023,-0.00000040,0.0000033
 5,0.,0.,0.00000004,-0.00000088,-0.00000020,0.00001275,0.00000282,-0.00
 000105,0.00025312,-0.00000151,-0.00000099,-0.00002886,0.00000010,0.000
 00007,-0.00001944,-0.00287461,0.00032076,0.02506816,-0.00002193,0.0000
 1164,-0.00000057,0.00000420,0.00001111,-0.00000049,0.00001951,0.000017
 15,0.00000029,0.00000264,-0.00001451,-0.00000158,-0.00000973,0.0000215
 0,0.00000044,-0.00000870,-0.00002162,0.00000017,0.00000659,0.00000805,
 0.00000003,0.00001239,-0.00000275,-0.00000076,-0.00002241,-0.00000495,
 0.00000202,0.00004296,-0.00000387,-0.00000096,0.00002866,-0.00003136,0
 .00000062,0.00009581,0.00004978,-0.00000112,0.00021289,0.00023479,-0.0
 0001956,-0.00004672,-0.00000225,-0.00000124,0.00000756,0.00007525,0.00
 000146,0.00001718,-0.00002651,0.00000051,-0.00006632,0.00001111,0.0000
 0066,0.00004770,0.00002035,-0.00000116,-0.00003081,-0.00000751,-0.0000
 0041,0.00000243,-0.00000684,0.00000090,-0.00078262,0.00031191,0.000002
 26,-0.00323342,0.00182586,0.00013696,-0.01424474,0.03653770,-0.0000744
 0,-0.06285311,0.04545853,0.00005334,0.00836829,-0.02311249,0.00007758,
 0.00217574,0.00126746,-0.00003912,0.00029754,-0.00028068,-0.00000731,-
 0.00050720,-0.00189532,0.00001492,-0.00409896,-0.00071530,0.00008104,-
 0.00000037,-0.00000034,0.00000031,-0.00000282,-0.00000032,0.00000051,-
 0.00000113,0.00000150,-0.00000017,0.00001970,-0.00000434,-0.00000003,-
 0.00001920,0.00002877,-0.00000078,-0.00000287,0.00000420,-0.00000012,-
 0.00018280,0.00096556,0.00000355,0.07477406,-0.00000747,0.00000050,0.0
 0000080,0.00000334,0.00001225,0.00000071,0.00001794,0.00001482,-0.0000
 0174,0.00000382,-0.00001042,0.00000625,0.00001102,0.00000463,-0.000001
 63,-0.00001370,-0.00002005,-0.00000036,-0.00000111,0.00000471,-0.00000
 002,-0.00000201,0.00001138,0.00000061,-0.00000399,0.00000748,-0.000006
 58,0.00002781,-0.00002198,0.00000285,0.00000273,0.00017105,-0.00000201
 ,0.00009955,-0.00016664,-0.00000205,0.00001618,0.00031632,-0.00001359,
 0.00002416,-0.00021554,0.00000219,-0.00011357,0.00005312,0.00000366,0.
 00003112,-0.00007271,0.00000031,-0.00008858,-0.00000427,-0.00000331,0.
 00006016,0.00002904,0.00000232,-0.00003233,0.00000112,0.00000105,-0.00
 000200,-0.00000838,-0.00000079,-0.00044827,-0.00050290,0.00000208,-0.0
 0026732,0.00307750,0.00004254,0.01158245,-0.00363023,-0.00012051,0.046
 56066,-0.32916496,0.00074693,0.00633719,-0.01565007,0.00003722,0.00056
 611,0.00142000,-0.00002179,-0.00048741,-0.00103379,0.00000849,-0.00045
 928,-0.00073888,0.00000428,-0.00263830,0.00060487,0.00004274,0.,-0.000
 00146,0.00000020,-0.00000103,0.00000064,-0.00000080,-0.00000091,-0.000
 00117,0.00000110,-0.00000547,0.00000273,0.00000048,-0.00001825,0.00002
 693,0.00000057,0.00000038,-0.00000084,0.00000089,-0.00002233,-0.000141
 37,0.00000323,-0.06073128,0.34562656,0.00000048,-0.00000023,0.00000139
 ,0.00000171,0.00000288,-0.00000542,-0.00000063,-0.00000301,0.00000464,
 0.00000068,-0.00000042,0.00000103,0.00000147,0.00000061,0.00000147,0.0
 0000018,-0.00000056,-0.00000271,0.00000118,0.00000103,0.00000388,-0.00
 000198,0.00000129,-0.00001191,0.00000083,0.00000049,-0.00000292,-0.000
 00265,-0.00000119,0.00001634,-0.00000369,0.00000064,-0.00001143,0.0000
 0023,0.00000219,0.00003845,-0.00002093,-0.00001222,-0.00193843,0.00000
 237,0.00000163,-0.00006977,0.00000241,-0.00000370,0.00025793,0.0000010
 3,0.00000261,0.00006467,-0.00000237,-0.00000157,-0.00003362,0.00000080
 ,0.00000056,-0.00001060,0.00000040,-0.00000143,0.00000012,-0.00000084,
 0.00000157,0.00000029,0.00000228,-0.00000441,-0.00054143,0.00014658,0.
 00001884,0.01220235,0.00002916,-0.00035541,-0.00637806,0.00004516,0.00
 076187,-0.03754164,-0.00003943,0.00030661,0.00681611,-0.00003597,-0.00
 002341,-0.00148479,-0.00000498,0.00000329,-0.00067554,0.00000821,0.000
 02448,0.00023117,0.00008887,0.00002023,0.00430191,0.00000047,-0.000000
 96,0.00000167,-0.00000049,-0.00000005,0.00000072,-0.00000045,0.0000000
 2,0.00000122,0.00000045,0.00000026,0.00000237,-0.00000098,-0.00000055,
 -0.00011614,0.00000053,-0.00000018,-0.00001093,0.00000771,-0.00000547,
 0.00057097,-0.00022780,-0.00073634,0.02431664\\0.00000406,0.00000113,-
 0.00000273,-0.00000433,0.00000466,0.00000152,-0.00000189,-0.00000824,0
 .00000020,0.00000834,0.00001235,0.00000090,-0.00000160,-0.00000985,-0.
 00000207,0.00000236,0.00000165,0.00000154,-0.00000049,0.00000035,0.000
 00034,-0.00000661,0.00000827,0.00000041,-0.00000135,-0.00001399,-0.000
 00046,0.00001144,0.00000279,-0.00000019,0.00000071,-0.00000594,-0.0000
 0001,-0.00002001,0.00000142,-0.00000107,0.00002586,-0.00000941,0.00000
 443,-0.00000327,-0.00000463,-0.00000193,-0.00000192,0.00001893,0.00000
 124,0.00000187,-0.00001096,0.,-0.00001058,0.00000043,0.00000056,0.0000
 0060,0.00000149,-0.00000086,-0.00000528,-0.00000560,-0.00000153,0.0000
 0376,0.00000214,0.00000295,0.00000045,0.00001405,-0.00000316,0.0000103
 2,-0.00001344,-0.00000434,-0.00000998,0.00001234,-0.00000107,-0.000000
 37,-0.00001182,0.00000828,-0.00001894,0.00001320,0.00001254,0.00001461
 ,0.00001172,-0.00000944,-0.00001318,0.00000016,-0.00000073,0.00002630,
 -0.00000892,0.00000958,-0.00001737,-0.00000766,-0.00001259,-0.00000430
 ,-0.00000225,-0.00000049,0.00000066,0.00000049,0.00000045,0.00000015,0
 .00000314,0.00000024,0.00000310,0.00000135,-0.00000111,0.00000163,-0.0
 0000089,-0.00000069,0.00000322,-0.00000071,0.00000006,-0.00000376,-0.0
 0000135,0.00000173,0.00000577,0.00000359,-0.00000248\\\@


 JUST WHEN YOU THINK YOU'VE GOT THE WORLD ON A STRING,
 YOU FIND OUT IT'S YOUR LEASH.
 Job cpu time:  0 days 13 hours 42 minutes 55.6 seconds.
 File lengths (MBytes):  RWF=   1388 Int=      0 D2E=      0 Chk=     26 Scr=      1
 Normal termination of Gaussian 09 at Sun Dec 29 01:42:28 2013.
