 Entering Gaussian System, Link 0=g09
 Initial command:
 /opt/gaussian/g09/l1.exe /panfs/panfs.cluster/home/shuo/Gau-12796.inp -scrdir=/panfs/panfs.cluster/home/shuo/
 Default is to use a total of  12 processors:
                               12 via shared-memory
                                1 via Linda
 Entering Link 1 = /opt/gaussian/g09/l1.exe PID=     12797.
  
 Copyright (c) 1988,1990,1992,1993,1995,1998,2003,2009,2011,
            Gaussian, Inc.  All Rights Reserved.
  
 This is part of the Gaussian(R) 09 program.  It is based on
 the Gaussian(R) 03 system (copyright 2003, Gaussian, Inc.),
 the Gaussian(R) 98 system (copyright 1998, Gaussian, Inc.),
 the Gaussian(R) 94 system (copyright 1995, Gaussian, Inc.),
 the Gaussian 92(TM) system (copyright 1992, Gaussian, Inc.),
 the Gaussian 90(TM) system (copyright 1990, Gaussian, Inc.),
 the Gaussian 88(TM) system (copyright 1988, Gaussian, Inc.),
 the Gaussian 86(TM) system (copyright 1986, Carnegie Mellon
 University), and the Gaussian 82(TM) system (copyright 1983,
 Carnegie Mellon University). Gaussian is a federally registered
 trademark of Gaussian, Inc.
  
 This software contains proprietary and confidential information,
 including trade secrets, belonging to Gaussian, Inc.
  
 This software is provided under written license and may be
 used, copied, transmitted, or stored only in accord with that
 written license.
  
 The following legend is applicable only to US Government
 contracts under FAR:
  
                    RESTRICTED RIGHTS LEGEND
  
 Use, reproduction and disclosure by the US Government is
 subject to restrictions as set forth in subparagraphs (a)
 and (c) of the Commercial Computer Software - Restricted
 Rights clause in FAR 52.227-19.
  
 Gaussian, Inc.
 340 Quinnipiac St., Bldg. 40, Wallingford CT 06492
  
  
 ---------------------------------------------------------------
 Warning -- This program may not be used in any manner that
 competes with the business of Gaussian, Inc. or will provide
 assistance to any competitor of Gaussian, Inc.  The licensee
 of this program is prohibited from giving any competitor of
 Gaussian, Inc. access to this program.  By using this program,
 the user acknowledges that Gaussian, Inc. is engaged in the
 business of creating and licensing software in the field of
 computational chemistry and represents and warrants to the
 licensee that it is not a competitor of Gaussian, Inc. and that
 it will not use this program in any manner prohibited above.
 ---------------------------------------------------------------
  

 Cite this work as:
 Gaussian 09, Revision C.01,
 M. J. Frisch, G. W. Trucks, H. B. Schlegel, G. E. Scuseria, 
 M. A. Robb, J. R. Cheeseman, G. Scalmani, V. Barone, B. Mennucci, 
 G. A. Petersson, H. Nakatsuji, M. Caricato, X. Li, H. P. Hratchian, 
 A. F. Izmaylov, J. Bloino, G. Zheng, J. L. Sonnenberg, M. Hada, 
 M. Ehara, K. Toyota, R. Fukuda, J. Hasegawa, M. Ishida, T. Nakajima, 
 Y. Honda, O. Kitao, H. Nakai, T. Vreven, J. A. Montgomery, Jr., 
 J. E. Peralta, F. Ogliaro, M. Bearpark, J. J. Heyd, E. Brothers, 
 K. N. Kudin, V. N. Staroverov, T. Keith, R. Kobayashi, J. Normand, 
 K. Raghavachari, A. Rendell, J. C. Burant, S. S. Iyengar, J. Tomasi, 
 M. Cossi, N. Rega, J. M. Millam, M. Klene, J. E. Knox, J. B. Cross, 
 V. Bakken, C. Adamo, J. Jaramillo, R. Gomperts, R. E. Stratmann, 
 O. Yazyev, A. J. Austin, R. Cammi, C. Pomelli, J. W. Ochterski, 
 R. L. Martin, K. Morokuma, V. G. Zakrzewski, G. A. Voth, 
 P. Salvador, J. J. Dannenberg, S. Dapprich, A. D. Daniels, 
 O. Farkas, J. B. Foresman, J. V. Ortiz, J. Cioslowski, 
 and D. J. Fox, Gaussian, Inc., Wallingford CT, 2010.
 
 ******************************************
 Gaussian 09:  EM64L-G09RevC.01 23-Sep-2011
                30-Dec-2013 
 ******************************************
 %chk=95_C20H12N6S2Si.chk
 %NProcShared=12
 Will use up to   12 processors via shared memory.
 %Mem=8000MB
 Default route:  MaxDisk=100GB
 --------------------------------------------
 #B3LYP/6-31++G(d,p) opt scf=direct freq test
 --------------------------------------------
 1/14=-1,18=20,19=15,26=3,38=1/1,3;
 2/9=110,12=2,17=6,18=5,40=1/2;
 3/5=1,6=6,7=1111,11=2,16=1,25=1,30=1,71=1,74=-5/1,2,3;
 4//1;
 5/5=2,38=5/2;
 6/7=2,8=2,9=2,10=2,28=1/1;
 7//1,2,3,16;
 1/14=-1,18=20,19=15/3(2);
 2/9=110/2;
 99//99;
 2/9=110/2;
 3/5=1,6=6,7=1111,11=2,16=1,25=1,30=1,71=1,74=-5/1,2,3;
 4/5=5,16=3/1;
 5/5=2,38=5/2;
 7//1,2,3,16;
 1/14=-1,18=20,19=15/3(-5);
 2/9=110/2;
 6/7=2,8=2,9=2,10=2,19=2,28=1/1;
 99/9=1/99;
 ----------------------------------------------------------------------
 Geom opt of No.95 candidate from the CEPDB database with SMILE code of
  [SiH2]1ccc2c1c(sc2-c1ccco1)-c1sc(c2[SiH2]ccc12)-c1nccc2nsnc12, HPC, 2
 0131227, Shuo Dai, Gaussian09
 ----------------------------------------------------------------------
 Charge =  0 Multiplicity = 1
 Symbolic Z-Matrix:
 Si                   -1.72261   1.24477   0.00119 
 H                    -1.78729   2.07307  -1.23586 
 H                    -1.78123   2.05732   1.24864 
 C                    -2.42472  -0.44014  -0.00008 
 C                    -1.44997  -1.37314  -0.00153 
 C                    -0.11926  -0.83936  -0.00312 
 C                    -0.04482   0.57341  -0.00207 
 C                     1.20816   1.09666  -0.00079 
 S                     2.31782  -0.2081   -0.00377 
 C                     1.12992  -1.39886  -0.00317 
 C                     1.61129  -2.72494  -0.00142 
 C                     2.93938  -3.14055   0.01569 
 C                     2.92157  -4.5402    0.01673 
 C                     1.59586  -4.8939   -0.00467 
 O                     0.79553  -3.80602  -0.01625 
 C                     1.69415   2.41766   0.00151 
 S                     3.38734   2.54115   0.00127 
 C                     3.44263   4.20174  -0.00407 
 C                     2.16544   4.65925   0.00033 
 Si                    1.40716   6.32505   0.00579 
 H                     1.75384   6.94081  -1.29399 
 H                     1.75468   6.92337   1.31341 
 C                    -0.28058   5.55719   0.00917 
 C                    -0.17822   4.21149   0.01056 
 C                     1.14016   3.68102   0.00468 
 C                     4.73104   4.81455  -0.00949 
 N                     4.74195   6.17093  -0.01147 
 C                     5.9194    6.83441  -0.01754 
 C                     7.19225   6.27101  -0.02088 
 C                     7.2206    4.86419  -0.02028 
 N                     8.32235   4.09547  -0.02506 
 S                     7.81271   2.51911  -0.02359 
 N                     6.1922    2.76321  -0.01578 
 C                     5.96196   4.09298  -0.01466 
 H                    -3.49238  -0.5507    0.0029 
 H                    -1.63968  -2.43542  -0.00033 
 H                     3.81682  -2.50028   0.02885 
 H                     3.78049  -5.18997   0.03176 
 H                     1.06766  -5.82968  -0.01274 
 H                    -1.20706   6.09938   0.01533 
 H                    -1.08847   3.66659   0.01948 
 H                     5.78986   7.91347  -0.02047 
 H                     8.09092   6.85953  -0.02483 
 

 GradGradGradGradGradGradGradGradGradGradGradGradGradGradGradGradGradGrad
 Berny optimization.
 Initialization pass.
                           ----------------------------
                           !    Initial Parameters    !
                           ! (Angstroms and Degrees)  !
 --------------------------                            --------------------------
 ! Name  Definition              Value          Derivative Info.                !
 --------------------------------------------------------------------------------
 ! R1    R(1,2)                  1.4902         estimate D2E/DX2                !
 ! R2    R(1,3)                  1.4899         estimate D2E/DX2                !
 ! R3    R(1,4)                  1.8253         estimate D2E/DX2                !
 ! R4    R(1,7)                  1.8071         estimate D2E/DX2                !
 ! R5    R(4,5)                  1.3493         estimate D2E/DX2                !
 ! R6    R(4,35)                 1.0734         estimate D2E/DX2                !
 ! R7    R(5,6)                  1.4338         estimate D2E/DX2                !
 ! R8    R(5,36)                 1.0791         estimate D2E/DX2                !
 ! R9    R(6,7)                  1.4147         estimate D2E/DX2                !
 ! R10   R(6,10)                 1.3688         estimate D2E/DX2                !
 ! R11   R(7,8)                  1.3578         estimate D2E/DX2                !
 ! R12   R(8,9)                  1.7128         estimate D2E/DX2                !
 ! R13   R(8,16)                 1.4076         estimate D2E/DX2                !
 ! R14   R(9,10)                 1.682          estimate D2E/DX2                !
 ! R15   R(10,11)                1.4107         estimate D2E/DX2                !
 ! R16   R(11,12)                1.3917         estimate D2E/DX2                !
 ! R17   R(11,15)                1.3544         estimate D2E/DX2                !
 ! R18   R(12,13)                1.3998         estimate D2E/DX2                !
 ! R19   R(12,37)                1.0863         estimate D2E/DX2                !
 ! R20   R(13,14)                1.3722         estimate D2E/DX2                !
 ! R21   R(13,38)                1.0771         estimate D2E/DX2                !
 ! R22   R(14,15)                1.3506         estimate D2E/DX2                !
 ! R23   R(14,39)                1.0746         estimate D2E/DX2                !
 ! R24   R(16,17)                1.6977         estimate D2E/DX2                !
 ! R25   R(16,25)                1.3795         estimate D2E/DX2                !
 ! R26   R(17,18)                1.6615         estimate D2E/DX2                !
 ! R27   R(18,19)                1.3567         estimate D2E/DX2                !
 ! R28   R(18,26)                1.4267         estimate D2E/DX2                !
 ! R29   R(19,20)                1.8303         estimate D2E/DX2                !
 ! R30   R(19,25)                1.4171         estimate D2E/DX2                !
 ! R31   R(20,21)                1.4795         estimate D2E/DX2                !
 ! R32   R(20,22)                1.4794         estimate D2E/DX2                !
 ! R33   R(20,23)                1.8542         estimate D2E/DX2                !
 ! R34   R(23,24)                1.3496         estimate D2E/DX2                !
 ! R35   R(23,40)                1.0735         estimate D2E/DX2                !
 ! R36   R(24,25)                1.4211         estimate D2E/DX2                !
 ! R37   R(24,41)                1.0609         estimate D2E/DX2                !
 ! R38   R(26,27)                1.3564         estimate D2E/DX2                !
 ! R39   R(26,34)                1.4268         estimate D2E/DX2                !
 ! R40   R(27,28)                1.3515         estimate D2E/DX2                !
 ! R41   R(28,29)                1.392          estimate D2E/DX2                !
 ! R42   R(28,42)                1.0868         estimate D2E/DX2                !
 ! R43   R(29,30)                1.4071         estimate D2E/DX2                !
 ! R44   R(29,43)                1.0742         estimate D2E/DX2                !
 ! R45   R(30,31)                1.3434         estimate D2E/DX2                !
 ! R46   R(30,34)                1.4761         estimate D2E/DX2                !
 ! R47   R(31,32)                1.6567         estimate D2E/DX2                !
 ! R48   R(32,33)                1.6388         estimate D2E/DX2                !
 ! R49   R(33,34)                1.3496         estimate D2E/DX2                !
 ! A1    A(2,1,3)              112.9674         estimate D2E/DX2                !
 ! A2    A(2,1,4)              119.7232         estimate D2E/DX2                !
 ! A3    A(2,1,7)              104.1997         estimate D2E/DX2                !
 ! A4    A(3,1,4)              119.2658         estimate D2E/DX2                !
 ! A5    A(3,1,7)              103.9248         estimate D2E/DX2                !
 ! A6    A(4,1,7)               90.8131         estimate D2E/DX2                !
 ! A7    A(1,4,5)              111.1246         estimate D2E/DX2                !
 ! A8    A(1,4,35)             118.5336         estimate D2E/DX2                !
 ! A9    A(5,4,35)             130.3416         estimate D2E/DX2                !
 ! A10   A(4,5,6)              114.3968         estimate D2E/DX2                !
 ! A11   A(4,5,36)             123.6206         estimate D2E/DX2                !
 ! A12   A(6,5,36)             121.9825         estimate D2E/DX2                !
 ! A13   A(5,6,7)              114.873          estimate D2E/DX2                !
 ! A14   A(5,6,10)             134.0157         estimate D2E/DX2                !
 ! A15   A(7,6,10)             111.1111         estimate D2E/DX2                !
 ! A16   A(1,7,6)              108.7925         estimate D2E/DX2                !
 ! A17   A(1,7,8)              135.5255         estimate D2E/DX2                !
 ! A18   A(6,7,8)              115.6818         estimate D2E/DX2                !
 ! A19   A(7,8,9)              107.7144         estimate D2E/DX2                !
 ! A20   A(7,8,16)             132.864          estimate D2E/DX2                !
 ! A21   A(9,8,16)             119.4216         estimate D2E/DX2                !
 ! A22   A(8,9,10)              94.6887         estimate D2E/DX2                !
 ! A23   A(6,10,9)             110.8038         estimate D2E/DX2                !
 ! A24   A(6,10,11)            134.0783         estimate D2E/DX2                !
 ! A25   A(9,10,11)            115.1179         estimate D2E/DX2                !
 ! A26   A(10,11,12)           127.3257         estimate D2E/DX2                !
 ! A27   A(10,11,15)           123.0084         estimate D2E/DX2                !
 ! A28   A(12,11,15)           109.666          estimate D2E/DX2                !
 ! A29   A(11,12,13)           106.6471         estimate D2E/DX2                !
 ! A30   A(11,12,37)           126.5091         estimate D2E/DX2                !
 ! A31   A(13,12,37)           126.8435         estimate D2E/DX2                !
 ! A32   A(12,13,14)           105.665          estimate D2E/DX2                !
 ! A33   A(12,13,38)           126.375          estimate D2E/DX2                !
 ! A34   A(14,13,38)           127.9601         estimate D2E/DX2                !
 ! A35   A(13,14,15)           111.4072         estimate D2E/DX2                !
 ! A36   A(13,14,39)           134.3821         estimate D2E/DX2                !
 ! A37   A(15,14,39)           114.2107         estimate D2E/DX2                !
 ! A38   A(11,15,14)           106.6142         estimate D2E/DX2                !
 ! A39   A(8,16,17)            114.3697         estimate D2E/DX2                !
 ! A40   A(8,16,25)            136.124          estimate D2E/DX2                !
 ! A41   A(17,16,25)           109.5063         estimate D2E/DX2                !
 ! A42   A(16,17,18)            96.0784         estimate D2E/DX2                !
 ! A43   A(17,18,19)           107.8005         estimate D2E/DX2                !
 ! A44   A(17,18,26)           117.3447         estimate D2E/DX2                !
 ! A45   A(19,18,26)           134.8547         estimate D2E/DX2                !
 ! A46   A(18,19,20)           134.1838         estimate D2E/DX2                !
 ! A47   A(18,19,25)           116.6373         estimate D2E/DX2                !
 ! A48   A(20,19,25)           109.1787         estimate D2E/DX2                !
 ! A49   A(19,20,21)           106.2067         estimate D2E/DX2                !
 ! A50   A(19,20,22)           105.867          estimate D2E/DX2                !
 ! A51   A(19,20,23)            90.0118         estimate D2E/DX2                !
 ! A52   A(21,20,22)           123.5846         estimate D2E/DX2                !
 ! A53   A(21,20,23)           112.7837         estimate D2E/DX2                !
 ! A54   A(22,20,23)           112.3144         estimate D2E/DX2                !
 ! A55   A(20,23,24)           110.1141         estimate D2E/DX2                !
 ! A56   A(20,23,40)           125.1994         estimate D2E/DX2                !
 ! A57   A(24,23,40)           124.6855         estimate D2E/DX2                !
 ! A58   A(23,24,25)           116.2674         estimate D2E/DX2                !
 ! A59   A(23,24,41)           116.5556         estimate D2E/DX2                !
 ! A60   A(25,24,41)           127.1766         estimate D2E/DX2                !
 ! A61   A(16,25,19)           109.9764         estimate D2E/DX2                !
 ! A62   A(16,25,24)           135.596          estimate D2E/DX2                !
 ! A63   A(19,25,24)           114.4276         estimate D2E/DX2                !
 ! A64   A(18,26,27)           115.8983         estimate D2E/DX2                !
 ! A65   A(18,26,34)           124.1841         estimate D2E/DX2                !
 ! A66   A(27,26,34)           119.9175         estimate D2E/DX2                !
 ! A67   A(26,27,28)           119.8617         estimate D2E/DX2                !
 ! A68   A(27,28,29)           126.7239         estimate D2E/DX2                !
 ! A69   A(27,28,42)           112.5557         estimate D2E/DX2                !
 ! A70   A(29,28,42)           120.7204         estimate D2E/DX2                !
 ! A71   A(28,29,30)           115.0299         estimate D2E/DX2                !
 ! A72   A(28,29,43)           122.9047         estimate D2E/DX2                !
 ! A73   A(30,29,43)           122.0653         estimate D2E/DX2                !
 ! A74   A(29,30,31)           126.0586         estimate D2E/DX2                !
 ! A75   A(29,30,34)           120.3426         estimate D2E/DX2                !
 ! A76   A(31,30,34)           113.5988         estimate D2E/DX2                !
 ! A77   A(30,31,32)           106.9881         estimate D2E/DX2                !
 ! A78   A(31,32,33)            99.3501         estimate D2E/DX2                !
 ! A79   A(32,33,34)           108.3891         estimate D2E/DX2                !
 ! A80   A(26,34,30)           118.1243         estimate D2E/DX2                !
 ! A81   A(26,34,33)           130.2018         estimate D2E/DX2                !
 ! A82   A(30,34,33)           111.6738         estimate D2E/DX2                !
 ! D1    D(2,1,4,5)            106.947          estimate D2E/DX2                !
 ! D2    D(2,1,4,35)           -73.2051         estimate D2E/DX2                !
 ! D3    D(3,1,4,5)           -106.4361         estimate D2E/DX2                !
 ! D4    D(3,1,4,35)            73.4117         estimate D2E/DX2                !
 ! D5    D(7,1,4,5)              0.0533         estimate D2E/DX2                !
 ! D6    D(7,1,4,35)           179.9012         estimate D2E/DX2                !
 ! D7    D(2,1,7,6)           -121.0344         estimate D2E/DX2                !
 ! D8    D(2,1,7,8)             59.1383         estimate D2E/DX2                !
 ! D9    D(3,1,7,6)            120.4481         estimate D2E/DX2                !
 ! D10   D(3,1,7,8)            -59.3793         estimate D2E/DX2                !
 ! D11   D(4,1,7,6)             -0.0316         estimate D2E/DX2                !
 ! D12   D(4,1,7,8)           -179.859          estimate D2E/DX2                !
 ! D13   D(1,4,5,6)             -0.0608         estimate D2E/DX2                !
 ! D14   D(1,4,5,36)           179.8636         estimate D2E/DX2                !
 ! D15   D(35,4,5,6)          -179.8854         estimate D2E/DX2                !
 ! D16   D(35,4,5,36)            0.039          estimate D2E/DX2                !
 ! D17   D(4,5,6,7)              0.0375         estimate D2E/DX2                !
 ! D18   D(4,5,6,10)           179.9027         estimate D2E/DX2                !
 ! D19   D(36,5,6,7)          -179.8882         estimate D2E/DX2                !
 ! D20   D(36,5,6,10)           -0.023          estimate D2E/DX2                !
 ! D21   D(5,6,7,1)              0.005          estimate D2E/DX2                !
 ! D22   D(5,6,7,8)            179.8708         estimate D2E/DX2                !
 ! D23   D(10,6,7,1)          -179.8911         estimate D2E/DX2                !
 ! D24   D(10,6,7,8)            -0.0253         estimate D2E/DX2                !
 ! D25   D(5,6,10,9)          -179.9347         estimate D2E/DX2                !
 ! D26   D(5,6,10,11)           -0.0146         estimate D2E/DX2                !
 ! D27   D(7,6,10,9)            -0.0658         estimate D2E/DX2                !
 ! D28   D(7,6,10,11)          179.8543         estimate D2E/DX2                !
 ! D29   D(1,7,8,9)            179.9194         estimate D2E/DX2                !
 ! D30   D(1,7,8,16)            -0.1249         estimate D2E/DX2                !
 ! D31   D(6,7,8,9)              0.1007         estimate D2E/DX2                !
 ! D32   D(6,7,8,16)          -179.9436         estimate D2E/DX2                !
 ! D33   D(7,8,9,10)            -0.1172         estimate D2E/DX2                !
 ! D34   D(16,8,9,10)          179.92           estimate D2E/DX2                !
 ! D35   D(7,8,16,17)         -179.9619         estimate D2E/DX2                !
 ! D36   D(7,8,16,25)            0.0794         estimate D2E/DX2                !
 ! D37   D(9,8,16,17)           -0.0103         estimate D2E/DX2                !
 ! D38   D(9,8,16,25)         -179.9691         estimate D2E/DX2                !
 ! D39   D(8,9,10,6)             0.1072         estimate D2E/DX2                !
 ! D40   D(8,9,10,11)         -179.8294         estimate D2E/DX2                !
 ! D41   D(6,10,11,12)        -179.0966         estimate D2E/DX2                !
 ! D42   D(6,10,11,15)           0.866          estimate D2E/DX2                !
 ! D43   D(9,10,11,12)           0.8209         estimate D2E/DX2                !
 ! D44   D(9,10,11,15)        -179.2164         estimate D2E/DX2                !
 ! D45   D(10,11,12,13)        179.7184         estimate D2E/DX2                !
 ! D46   D(10,11,12,37)         -0.1056         estimate D2E/DX2                !
 ! D47   D(15,11,12,13)         -0.2483         estimate D2E/DX2                !
 ! D48   D(15,11,12,37)        179.9277         estimate D2E/DX2                !
 ! D49   D(10,11,15,14)       -179.7924         estimate D2E/DX2                !
 ! D50   D(12,11,15,14)          0.176          estimate D2E/DX2                !
 ! D51   D(11,12,13,14)          0.2175         estimate D2E/DX2                !
 ! D52   D(11,12,13,38)       -179.7608         estimate D2E/DX2                !
 ! D53   D(37,12,13,14)       -179.9593         estimate D2E/DX2                !
 ! D54   D(37,12,13,38)          0.0624         estimate D2E/DX2                !
 ! D55   D(12,13,14,15)         -0.1174         estimate D2E/DX2                !
 ! D56   D(12,13,14,39)        179.9776         estimate D2E/DX2                !
 ! D57   D(38,13,14,15)        179.8604         estimate D2E/DX2                !
 ! D58   D(38,13,14,39)         -0.0446         estimate D2E/DX2                !
 ! D59   D(13,14,15,11)         -0.0341         estimate D2E/DX2                !
 ! D60   D(39,14,15,11)        179.8914         estimate D2E/DX2                !
 ! D61   D(8,16,17,18)         179.7092         estimate D2E/DX2                !
 ! D62   D(25,16,17,18)         -0.3211         estimate D2E/DX2                !
 ! D63   D(8,16,25,19)        -179.7669         estimate D2E/DX2                !
 ! D64   D(8,16,25,24)           0.2025         estimate D2E/DX2                !
 ! D65   D(17,16,25,19)          0.273          estimate D2E/DX2                !
 ! D66   D(17,16,25,24)       -179.7576         estimate D2E/DX2                !
 ! D67   D(16,17,18,19)          0.2658         estimate D2E/DX2                !
 ! D68   D(16,17,18,26)       -179.8387         estimate D2E/DX2                !
 ! D69   D(17,18,19,20)        179.6892         estimate D2E/DX2                !
 ! D70   D(17,18,19,25)         -0.1495         estimate D2E/DX2                !
 ! D71   D(26,18,19,20)         -0.1799         estimate D2E/DX2                !
 ! D72   D(26,18,19,25)        179.9814         estimate D2E/DX2                !
 ! D73   D(17,18,26,27)       -179.8925         estimate D2E/DX2                !
 ! D74   D(17,18,26,34)          0.1979         estimate D2E/DX2                !
 ! D75   D(19,18,26,27)         -0.0329         estimate D2E/DX2                !
 ! D76   D(19,18,26,34)       -179.9424         estimate D2E/DX2                !
 ! D77   D(18,19,20,21)         66.2243         estimate D2E/DX2                !
 ! D78   D(18,19,20,22)        -66.7359         estimate D2E/DX2                !
 ! D79   D(18,19,20,23)       -179.9886         estimate D2E/DX2                !
 ! D80   D(25,19,20,21)       -113.9283         estimate D2E/DX2                !
 ! D81   D(25,19,20,22)        113.1114         estimate D2E/DX2                !
 ! D82   D(25,19,20,23)         -0.1413         estimate D2E/DX2                !
 ! D83   D(18,19,25,16)         -0.0844         estimate D2E/DX2                !
 ! D84   D(18,19,25,24)        179.9392         estimate D2E/DX2                !
 ! D85   D(20,19,25,16)       -179.9619         estimate D2E/DX2                !
 ! D86   D(20,19,25,24)          0.0617         estimate D2E/DX2                !
 ! D87   D(19,20,23,24)          0.1955         estimate D2E/DX2                !
 ! D88   D(19,20,23,40)        179.8422         estimate D2E/DX2                !
 ! D89   D(21,20,23,24)        107.8219         estimate D2E/DX2                !
 ! D90   D(21,20,23,40)        -72.5313         estimate D2E/DX2                !
 ! D91   D(22,20,23,24)       -106.9993         estimate D2E/DX2                !
 ! D92   D(22,20,23,40)         72.6474         estimate D2E/DX2                !
 ! D93   D(20,23,24,25)         -0.2039         estimate D2E/DX2                !
 ! D94   D(20,23,24,41)        179.5806         estimate D2E/DX2                !
 ! D95   D(40,23,24,25)       -179.8528         estimate D2E/DX2                !
 ! D96   D(40,23,24,41)         -0.0684         estimate D2E/DX2                !
 ! D97   D(23,24,25,16)       -179.8711         estimate D2E/DX2                !
 ! D98   D(23,24,25,19)          0.0973         estimate D2E/DX2                !
 ! D99   D(41,24,25,16)          0.3709         estimate D2E/DX2                !
 ! D100  D(41,24,25,19)       -179.6607         estimate D2E/DX2                !
 ! D101  D(18,26,27,28)       -179.9526         estimate D2E/DX2                !
 ! D102  D(34,26,27,28)         -0.0389         estimate D2E/DX2                !
 ! D103  D(18,26,34,30)        179.9857         estimate D2E/DX2                !
 ! D104  D(18,26,34,33)          0.0089         estimate D2E/DX2                !
 ! D105  D(27,26,34,30)          0.0796         estimate D2E/DX2                !
 ! D106  D(27,26,34,33)       -179.8972         estimate D2E/DX2                !
 ! D107  D(26,27,28,29)         -0.0718         estimate D2E/DX2                !
 ! D108  D(26,27,28,42)        179.8883         estimate D2E/DX2                !
 ! D109  D(27,28,29,30)          0.1273         estimate D2E/DX2                !
 ! D110  D(27,28,29,43)       -179.9435         estimate D2E/DX2                !
 ! D111  D(42,28,29,30)       -179.8298         estimate D2E/DX2                !
 ! D112  D(42,28,29,43)          0.0994         estimate D2E/DX2                !
 ! D113  D(28,29,30,31)        179.8932         estimate D2E/DX2                !
 ! D114  D(28,29,30,34)         -0.0753         estimate D2E/DX2                !
 ! D115  D(43,29,30,31)         -0.0367         estimate D2E/DX2                !
 ! D116  D(43,29,30,34)        179.9948         estimate D2E/DX2                !
 ! D117  D(29,30,31,32)       -179.9368         estimate D2E/DX2                !
 ! D118  D(34,30,31,32)          0.0335         estimate D2E/DX2                !
 ! D119  D(29,30,34,26)         -0.0194         estimate D2E/DX2                !
 ! D120  D(29,30,34,33)        179.9615         estimate D2E/DX2                !
 ! D121  D(31,30,34,26)       -179.9916         estimate D2E/DX2                !
 ! D122  D(31,30,34,33)         -0.0107         estimate D2E/DX2                !
 ! D123  D(30,31,32,33)         -0.0397         estimate D2E/DX2                !
 ! D124  D(31,32,33,34)          0.0341         estimate D2E/DX2                !
 ! D125  D(32,33,34,26)        179.9597         estimate D2E/DX2                !
 ! D126  D(32,33,34,30)         -0.0183         estimate D2E/DX2                !
 --------------------------------------------------------------------------------
 Trust Radius=3.00D-01 FncErr=1.00D-07 GrdErr=1.00D-06
 Number of steps in this run=    258 maximum allowed number of steps=    258.
 GradGradGradGradGradGradGradGradGradGradGradGradGradGradGradGradGradGrad

                          Input orientation:                          
 ---------------------------------------------------------------------
 Center     Atomic      Atomic             Coordinates (Angstroms)
 Number     Number       Type             X           Y           Z
 ---------------------------------------------------------------------
      1         14           0       -1.722610    1.244770    0.001190
      2          1           0       -1.787290    2.073070   -1.235860
      3          1           0       -1.781230    2.057320    1.248640
      4          6           0       -2.424720   -0.440140   -0.000080
      5          6           0       -1.449970   -1.373140   -0.001530
      6          6           0       -0.119260   -0.839360   -0.003120
      7          6           0       -0.044820    0.573410   -0.002070
      8          6           0        1.208160    1.096660   -0.000790
      9         16           0        2.317820   -0.208100   -0.003770
     10          6           0        1.129920   -1.398860   -0.003170
     11          6           0        1.611290   -2.724940   -0.001420
     12          6           0        2.939380   -3.140550    0.015690
     13          6           0        2.921570   -4.540200    0.016730
     14          6           0        1.595860   -4.893900   -0.004670
     15          8           0        0.795530   -3.806020   -0.016250
     16          6           0        1.694150    2.417660    0.001510
     17         16           0        3.387340    2.541150    0.001270
     18          6           0        3.442630    4.201740   -0.004070
     19          6           0        2.165440    4.659250    0.000330
     20         14           0        1.407160    6.325050    0.005790
     21          1           0        1.753840    6.940810   -1.293990
     22          1           0        1.754680    6.923370    1.313410
     23          6           0       -0.280580    5.557190    0.009170
     24          6           0       -0.178220    4.211490    0.010560
     25          6           0        1.140160    3.681020    0.004680
     26          6           0        4.731040    4.814550   -0.009490
     27          7           0        4.741950    6.170930   -0.011470
     28          6           0        5.919400    6.834410   -0.017540
     29          6           0        7.192250    6.271010   -0.020880
     30          6           0        7.220600    4.864190   -0.020280
     31          7           0        8.322350    4.095470   -0.025060
     32         16           0        7.812710    2.519110   -0.023590
     33          7           0        6.192200    2.763210   -0.015780
     34          6           0        5.961960    4.092980   -0.014660
     35          1           0       -3.492380   -0.550700    0.002900
     36          1           0       -1.639680   -2.435420   -0.000330
     37          1           0        3.816820   -2.500280    0.028850
     38          1           0        3.780490   -5.189970    0.031760
     39          1           0        1.067660   -5.829680   -0.012740
     40          1           0       -1.207060    6.099380    0.015330
     41          1           0       -1.088470    3.666590    0.019480
     42          1           0        5.789860    7.913470   -0.020470
     43          1           0        8.090920    6.859530   -0.024830
 ---------------------------------------------------------------------
                    Distance matrix (angstroms):
                    1          2          3          4          5
     1  Si   0.000000
     2  H    1.490153   0.000000
     3  H    1.489901   2.484557   0.000000
     4  C    1.825344   2.872228   2.865430   0.000000
     5  C    2.632070   3.676101   3.666158   1.349307   0.000000
     6  C    2.629515   3.575503   3.566483   2.339772   1.433776
     7  C    1.807129   2.609103   2.604109   2.586738   2.400730
     8  C    2.934511   3.384006   3.379408   3.944562   3.628439
     9  S    4.293708   4.855277   4.847976   4.748215   3.943801
    10  C    3.889181   4.699355   4.689030   3.681660   2.580019
    11  C    5.183965   6.007919   5.995152   4.637854   3.346442
    12  C    6.400421   7.147700   7.128967   6.005500   4.731852
    13  C    7.418526   8.214480   8.195194   6.737477   5.398237
    14  C    6.978219   7.842207   7.829111   6.000089   4.655410
    15  O    5.643741   6.536215   6.528277   4.658264   3.310799
    16  C    3.612467   3.710829   3.709912   5.013194   4.925004
    17  S    5.271830   5.341010   5.338927   6.532085   6.222639
    18  C    5.951756   5.779326   5.784162   7.481501   7.417333
    19  C    5.174515   4.882680   4.889225   6.861002   7.032846
    20  Si   5.966970   5.461276   5.470286   7.775033   8.211296
    21  H    6.797652   6.019790   6.542947   8.579801   9.003145
    22  H    6.786749   6.524549   6.015422   8.568192   8.990602
    23  C    4.547140   3.994918   4.004663   6.369096   7.028304
    24  C    3.344646   2.952204   2.956845   5.165708   5.727616
    25  C    3.759093   3.562921   3.566281   5.449069   5.679203
    26  C    7.375164   7.176930   7.182957   8.877880   8.745997
    27  N    8.127592   7.805291   7.814188   9.750258   9.759763
    28  C    9.468091   9.140445   9.150055  11.069947  11.030492
    29  C   10.234173   9.986542   9.994509  11.727151  11.537823
    30  C    9.647884   9.508421   9.514285  11.007657  10.680984
    31  N   10.441667  10.380798  10.385504  11.664986  11.198414
    32  S    9.620129   9.686514   9.688937  10.656579  10.047255
    33  N    8.059167   8.101676   8.103865   9.193096   8.689785
    34  C    8.195436   8.100756   8.105358   9.533404   9.209525
    35  H    2.521071   3.365416   3.358820   1.073373   2.201787
    36  H    3.681125   4.677051   4.665263   2.144162   1.079088
    37  H    6.686662   7.343097   7.321050   6.572810   5.386134
    38  H    8.467049   9.238982   9.216113   7.814508   6.475107
    39  H    7.604843   8.491185   8.480096   6.422151   5.118529
    40  H    4.881929   4.255974   4.264853   6.651936   7.476486
    41  H    2.503534   2.145585   2.140210   4.318701   5.052722
    42  H   10.045359   9.643684   9.655389  11.715910  11.775255
    43  H   11.306263  11.043361  11.051800  12.800956  12.601824
                    6          7          8          9         10
     6  C    0.000000
     7  C    1.414730   0.000000
     8  C    2.347386   1.357848   0.000000
     9  S    2.517508   2.488539   1.712820   0.000000
    10  C    1.368755   2.295618   2.496747   1.681968   0.000000
    11  C    2.559339   3.690774   3.842804   2.614130   1.410747
    12  C    3.827677   4.764374   4.577264   2.997662   2.511570
    13  C    4.789912   5.911754   5.891542   4.374017   3.616410
    14  C    4.402378   5.708180   6.003094   4.741092   3.525962
    15  O    3.104526   4.459349   4.920038   3.906731   2.430310
    16  C    3.727822   2.534815   1.407563   2.698816   3.858005
    17  S    4.870740   3.956227   2.614456   2.949962   4.540886
    18  C    6.172500   5.032603   3.825492   4.551031   6.059319
    19  C    5.954375   4.645357   3.688961   4.869736   6.145975
    20  Si   7.325217   5.932088   5.232180   6.596320   7.728889
    21  H    8.105917   6.741515   6.010343   7.286265   8.462009
    22  H    8.093508   6.729835   5.998029   7.273923   8.448859
    23  C    6.398596   4.989366   4.702422   6.323798   7.097626
    24  C    5.051213   3.640547   3.409449   5.075746   5.760855
    25  C    4.692551   3.325878   2.585260   4.063522   5.079896
    26  C    7.449305   6.387187   5.121862   5.572313   7.181544
    27  N    8.530862   7.365153   6.183527   6.824111   8.387404
    28  C    9.764854   8.647097   7.424139   7.910026   9.525023
    29  C   10.198816   9.210764   7.910982   8.107973   9.776455
    30  C    9.295393   8.437858   7.095357   7.054477   8.736273
    31  N    9.778231   9.078269   7.720437   7.387527   9.050922
    32  S    8.613703   8.094874   6.756032   6.134483   7.746650
    33  N    7.267269   6.610282   5.255309   4.882586   6.553599
    34  C    7.830029   6.961964   5.619318   5.637301   7.314988
    35  H    3.385454   3.626199   4.980852   5.820296   4.699475
    36  H    2.204335   3.405384   4.537156   4.541230   2.957220
    37  H    4.272283   4.935665   4.443418   2.739006   2.904063
    38  H    5.842694   6.917419   6.792618   5.192273   4.625933
    39  H    5.129539   6.499022   6.927775   5.758918   4.431268
    40  H    7.023515   5.646897   5.555246   7.225611   7.854007
    41  H    4.609063   3.264572   3.446659   5.159125   5.529968
    42  H   10.560778   9.376583   8.213480   8.832624  10.413205
    43  H   11.255240  10.281347   8.976839   9.125816  10.800787
                   11         12         13         14         15
    11  C    0.000000
    12  C    1.391707   0.000000
    13  C    2.238824   1.399764   0.000000
    14  C    2.169017   2.209004   1.372249   0.000000
    15  O    1.354407   2.244986   2.249479   1.350609   0.000000
    16  C    5.143268   5.696007   7.065310   7.312223   6.288245
    17  S    5.557523   5.699350   7.096668   7.647837   6.855972
    18  C    7.164685   7.359543   8.757480   9.281230   8.433950
    19  C    7.404954   7.838118   9.230487   9.570116   8.575414
    20  Si   9.052295   9.588815  10.970288  11.220542  10.149540
    21  H    9.752834  10.234969  11.614438  11.905783  10.864867
    22  H    9.738543  10.216167  11.595536  11.891612  10.853929
    23  C    8.495467   9.274636  10.592974  10.618216   9.424880
    24  C    7.163557   7.985734   9.284439   9.276622   8.076470
    25  C    6.423264   7.054866   8.412017   8.587025   7.494997
    26  C    8.159462   8.154403   9.528180  10.202126   9.476419
    27  N    9.430675   9.484390  10.864754  11.503408  10.729109
    28  C   10.485287  10.410641  11.763074  12.499857  11.809860
    29  C   10.586530  10.327909  11.624215  12.488998  11.935853
    30  C    9.437140   9.077775  10.340483  11.263137  10.791389
    31  N    9.568536   9.018759  10.185527  11.227415  10.912683
    32  S    8.121463   7.468778   8.588291   9.674828   9.447123
    33  N    7.148757   6.740639   8.002367   8.930722   8.501696
    34  C    8.087802   7.839698   9.152964   9.991343   9.438549
    35  H    5.547503   6.933615   7.553480   6.689815   5.383646
    36  H    3.263837   4.633061   5.023484   4.063602   2.794467
    37  H    2.217149   1.086287   2.227755   3.265456   3.291684
    38  H    3.283733   2.215366   1.077112   2.204902   3.290533
    39  H    3.151995   3.276517   2.258453   1.074590   2.041878
    40  H    9.263477  10.127649  11.412548  11.344997  10.105855
    41  H    6.938357   7.909535   9.134103   8.971522   7.706532
    42  H   11.429636  11.415687  12.779764  13.476595  12.739301
    43  H   11.569279  11.249071  12.517098  13.428676  12.921948
                   16         17         18         19         20
    16  C    0.000000
    17  S    1.697687   0.000000
    18  C    2.498030   1.661519   0.000000
    19  C    2.290598   2.445279   1.356668   0.000000
    20  Si   3.917918   4.270718   2.941374   1.830275   0.000000
    21  H    4.705398   4.868576   3.466758   2.655220   1.479451
    22  H    4.693204   4.857071   3.462975   2.649366   1.479401
    23  C    3.708944   4.748705   3.962286   2.605645   1.854208
    24  C    2.593005   3.937428   3.620893   2.386071   2.642080
    25  C    1.379490   2.519749   2.360634   1.417093   2.657477
    26  C    3.868837   2.640832   1.426733   2.570315   3.651030
    27  N    4.834903   3.874330   2.359236   2.987260   3.338394
    28  C    6.112347   4.984352   3.614626   4.338647   4.540958
    29  C    6.714009   5.328197   4.282734   5.278924   5.785404
    30  C    6.043810   4.482283   3.835643   5.059354   5.994237
    31  N    6.837309   5.174063   4.880922   6.182721   7.265799
    32  S    6.119452   4.425495   4.682865   6.039241   7.450981
    33  N    4.511337   2.813688   3.103166   4.450845   5.965214
    34  C    4.584884   3.006177   2.521699   3.838548   5.072352
    35  H    5.975890   7.542552   8.407146   7.691197   8.442834
    36  H    5.887853   7.073696   8.359532   8.050670   9.275188
    37  H    5.356548   5.059766   6.712539   7.347567   9.148412
    38  H    7.888584   7.741170   9.397853   9.980807  11.757085
    39  H    8.271113   8.686306  10.308731  10.546229  12.159485
    40  H    4.687459   5.811171   5.022054   3.667145   2.623960
    41  H    3.050102   4.615173   4.562654   3.402010   3.646336
    42  H    6.854141   5.885100   4.391662   4.871016   4.661741
    43  H    7.787783   6.385354   5.354519   6.320853   6.705166
                   21         22         23         24         25
    21  H    0.000000
    22  H    2.607458   0.000000
    23  C    2.784151   2.776648   0.000000
    24  C    3.589414   3.576005   1.349588   0.000000
    25  C    3.562215   3.550105   2.353409   1.421112   0.000000
    26  C    3.877453   3.880194   5.066379   4.946202   3.765569
    27  N    3.341613   3.353395   5.059932   5.296033   4.378676
    28  C    4.358043   4.373126   6.330226   6.637881   5.725862
    29  C    5.625455   5.636761   7.506906   7.652871   6.583046
    30  C    5.984994   5.991263   7.533181   7.427618   6.194535
    31  N    7.269901   7.274806   8.726294   8.501436   7.194200
    32  S    7.607579   7.608206   8.644787   8.168248   6.773017
    33  N    6.227777   6.226175   7.050094   6.533028   5.134774
    34  C    5.239761   5.241763   6.412003   6.141375   4.839405
    35  H    9.237287   9.225551   6.900871   5.801911   6.274383
    36  H   10.055010  10.041640   8.107346   6.805689   6.718510
    37  H    9.753972   9.731788   9.039463   7.810796   6.735990
    38  H   12.370155  12.348261  11.488875  10.200945   9.255622
    39  H   12.852932  12.840209  11.466431  10.118194   9.510992
    40  H    3.345034   3.337046   1.073486   2.150038   3.370166
    41  H    4.530391   4.512690   2.056006   1.060920   2.228726
    42  H    4.342508   4.363738   6.511772   7.023076   6.287605
    43  H    6.463432   6.476334   8.472264   8.682859   7.643092
                   26         27         28         29         30
    26  C    0.000000
    27  N    1.356425   0.000000
    28  C    2.343523   1.351529   0.000000
    29  C    2.859888   2.452361   1.391969   0.000000
    30  C    2.490078   2.802027   2.361122   1.407106   0.000000
    31  N    3.662626   4.138476   3.643627   2.451554   1.343431
    32  S    3.842647   4.771321   4.712375   3.802858   2.418678
    33  N    2.518536   3.703485   4.080330   3.647573   2.339176
    34  C    1.426834   2.409629   2.741762   2.501493   1.476134
    35  H    9.818895  10.629426  11.963355  12.676656  12.003729
    36  H    9.651333  10.714224  11.961176  12.401828  11.479951
    37  H    7.371839   8.720515   9.568669   9.398485   8.113171
    38  H   10.049660  11.401593  12.213234  11.958133  10.626533
    39  H   11.256998  12.550500  13.561658  13.562351  12.337649
    40  H    6.075561   5.949501   7.164341   8.401141   8.517771
    41  H    5.931724   6.345587   7.690689   8.680723   8.395027
    42  H    3.274832   2.033382   1.086812   2.159716   3.368253
    43  H    3.933316   3.419057   2.171678   1.074234   2.176892
                   31         32         33         34         35
    31  N    0.000000
    32  S    1.656697   0.000000
    33  N    2.512477   1.638810   0.000000
    34  C    2.360414   2.429490   1.349555   0.000000
    35  H   12.695492  11.714499  10.235890  10.533215   0.000000
    36  H   11.911976  10.672187   9.400231  10.020237   2.642854
    37  H    7.987905   6.415930   5.774838   6.933585   7.564783
    38  H   10.336881   8.700102   8.310937   9.535939   8.626604
    39  H   12.293872  10.733038  10.004933  11.064057   6.975804
    40  H    9.737913   9.704437   8.116652   7.444554   7.031814
    41  H    9.420693   8.974941   7.336586   7.063394   4.854338
    42  H    4.581555   5.761168   5.165954   3.824369  12.561954
    43  H    2.773732   4.349327   4.514981   3.490899  13.750822
                   36         37         38         39         40
    36  H    0.000000
    37  H    5.456963   0.000000
    38  H    6.080034   2.689937   0.000000
    39  H    4.341756   4.317929   2.787590   0.000000
    40  H    8.545772   9.959604  12.342016  12.144036   0.000000
    41  H    6.126888   7.879863  10.106710   9.738022   2.435682
    42  H   12.739623  10.599128  13.256713  14.531807   7.228353
    43  H   13.456644  10.289648  12.797400  14.503185   9.329087
                   41         42         43
    41  H    0.000000
    42  H    8.083873   0.000000
    43  H    9.718952   2.530946   0.000000
 Stoichiometry    C21H13N3OS3Si2
 Framework group  C1[X(C21H13N3OS3Si2)]
 Deg. of freedom   123
 Full point group                 C1      NOp   1
 Largest Abelian subgroup         C1      NOp   1
 Largest concise Abelian subgroup C1      NOp   1
                         Standard orientation:                         
 ---------------------------------------------------------------------
 Center     Atomic      Atomic             Coordinates (Angstroms)
 Number     Number       Type             X           Y           Z
 ---------------------------------------------------------------------
      1         14           0       -3.179502    3.080264   -0.006272
      2          1           0       -2.553457    3.626010   -1.243521
      3          1           0       -2.566321    3.617070    1.240986
      4          6           0       -4.948917    2.631886   -0.009348
      5          6           0       -5.111136    1.292366   -0.008166
      6          6           0       -3.886059    0.547454   -0.006231
      7          6           0       -2.710787    1.334979   -0.005037
      8          6           0       -1.540748    0.645966   -0.000439
      9         16           0       -1.919593   -1.024432   -0.000413
     10          6           0       -3.584821   -0.787737   -0.002932
     11          6           0       -4.357457   -1.968090    0.000151
     12          6           0       -3.893777   -3.280119    0.020815
     13          6           0       -5.024597   -4.105094    0.021861
     14          6           0       -6.102523   -3.256256   -0.003057
     15          8           0       -5.711750   -1.963487   -0.016811
     16          6           0       -0.192157    1.049106    0.003105
     17         16           0        0.921906   -0.231905    0.007371
     18          6           0        2.284036    0.719524    0.002115
     19          6           0        1.884374    2.015988    0.003095
     20         14           0        2.762842    3.621663    0.006472
     21          1           0        3.465540    3.710624   -1.292404
     22          1           0        3.448001    3.705114    1.314990
     23          6           0        1.136353    4.511955    0.005385
     24          6           0        0.120762    3.623158    0.007099
     25          6           0        0.486734    2.249980    0.004751
     26          6           0        3.547004    0.055843    0.000104
     27          7           0        4.639060    0.860392   -0.001899
     28          6           0        5.876049    0.315892   -0.004857
     29          6           0        6.188363   -1.040588   -0.004785
     30          6           0        5.079483   -1.906804   -0.004056
     31          7           0        5.124890   -3.249466   -0.005871
     32         16           0        3.557748   -3.786785   -0.005699
     33          7           0        2.781435   -2.343516   -0.002215
     34          6           0        3.707597   -1.361923   -0.001759
     35          1           0       -5.677569    3.420045   -0.009208
     36          1           0       -6.075031    0.807250   -0.007430
     37          1           0       -2.855279   -3.598398    0.036288
     38          1           0       -5.029625   -5.182054    0.039204
     39          1           0       -7.168122   -3.394650   -0.012498
     40          1           0        1.014743    5.578524    0.009056
     41          1           0       -0.861119    4.024925    0.013615
     42          1           0        6.661953    1.066560   -0.008174
     43          1           0        7.198202   -1.406923   -0.006363
 ---------------------------------------------------------------------
 Rotational constants (GHZ):      0.1770662      0.0779177      0.0541839
 Standard basis: 6-31++G(d,p) (6D, 7F)
 There are   668 symmetry adapted basis functions of A   symmetry.
 Integral buffers will be    131072 words long.
 Raffenetti 2 integral format.
 Two-electron integral symmetry is turned on.
   668 basis functions,  1184 primitive gaussians,   668 cartesian basis functions
   122 alpha electrons      122 beta electrons
       nuclear repulsion energy      3514.2524905756 Hartrees.
 NAtoms=   43 NActive=   43 NUniq=   43 SFac= 1.00D+00 NAtFMM=   60 NAOKFM=F Big=F
 One-electron integrals computed using PRISM.
 NBasis=   668 RedAO= T  NBF=   668
 NBsUse=   658 1.00D-06 NBFU=   658
 Harris functional with IExCor=  402 diagonalized for initial guess.
 ExpMin= 3.31D-02 ExpMax= 2.19D+04 ExpMxC= 3.30D+03 IAcc=3 IRadAn=         5 AccDes= 0.00D+00
 HarFok:  IExCor=  402 AccDes= 0.00D+00 IRadAn=         5 IDoV= 1
 ScaDFX=  1.000000  1.000000  1.000000  1.000000
 FoFCou: FMM=F IPFlag=           0 FMFlag=      100000 FMFlg1=           0
         NFxFlg=           0 DoJE=T BraDBF=F KetDBF=T FulRan=T
         Omega=  0.000000  0.000000  1.000000  0.000000  0.000000 ICntrl=     500 IOpCl=  0
         NMat0=    1 NMatS0=    1 NMatT0=    0 NMatD0=    1 NMtDS0=    0 NMtDT0=    0
         I1Cent=           4 NGrid=           0.
 Petite list used in FoFCou.
 Initial guess orbital symmetries:
       Occupied  (A) (A) (A) (A) (A) (A) (A) (A) (A) (A) (A) (A)
                 (A) (A) (A) (A) (A) (A) (A) (A) (A) (A) (A) (A)
                 (A) (A) (A) (A) (A) (A) (A) (A) (A) (A) (A) (A)
                 (A) (A) (A) (A) (A) (A) (A) (A) (A) (A) (A) (A)
                 (A) (A) (A) (A) (A) (A) (A) (A) (A) (A) (A) (A)
                 (A) (A) (A) (A) (A) (A) (A) (A) (A) (A) (A) (A)
                 (A) (A) (A) (A) (A) (A) (A) (A) (A) (A) (A) (A)
                 (A) (A) (A) (A) (A) (A) (A) (A) (A) (A) (A) (A)
                 (A) (A) (A) (A) (A) (A) (A) (A) (A) (A) (A) (A)
                 (A) (A) (A) (A) (A) (A) (A) (A) (A) (A) (A) (A)
                 (A) (A)
       Virtual   (A) (A) (A) (A) (A) (A) (A) (A) (A) (A) (A) (A)
                 (A) (A) (A) (A) (A) (A) (A) (A) (A) (A) (A) (A)
                 (A) (A) (A) (A) (A) (A) (A) (A) (A) (A) (A) (A)
                 (A) (A) (A) (A) (A) (A) (A) (A) (A) (A) (A) (A)
                 (A) (A) (A) (A) (A) (A) (A) (A) (A) (A) (A) (A)
                 (A) (A) (A) (A) (A) (A) (A) (A) (A) (A) (A) (A)
                 (A) (A) (A) (A) (A) (A) (A) (A) (A) (A) (A) (A)
                 (A) (A) (A) (A) (A) (A) (A) (A) (A) (A) (A) (A)
                 (A) (A) (A) (A) (A) (A) (A) (A) (A) (A) (A) (A)
                 (A) (A) (A) (A) (A) (A) (A) (A) (A) (A) (A) (A)
                 (A) (A) (A) (A) (A) (A) (A) (A) (A) (A) (A) (A)
                 (A) (A) (A) (A) (A) (A) (A) (A) (A) (A) (A) (A)
                 (A) (A) (A) (A) (A) (A) (A) (A) (A) (A) (A) (A)
                 (A) (A) (A) (A) (A) (A) (A) (A) (A) (A) (A) (A)
                 (A) (A) (A) (A) (A) (A) (A) (A) (A) (A) (A) (A)
                 (A) (A) (A) (A) (A) (A) (A) (A) (A) (A) (A) (A)
                 (A) (A) (A) (A) (A) (A) (A) (A) (A) (A) (A) (A)
                 (A) (A) (A) (A) (A) (A) (A) (A) (A) (A) (A) (A)
                 (A) (A) (A) (A) (A) (A) (A) (A) (A) (A) (A) (A)
                 (A) (A) (A) (A) (A) (A) (A) (A) (A) (A) (A) (A)
                 (A) (A) (A) (A) (A) (A) (A) (A) (A) (A) (A) (A)
                 (A) (A) (A) (A) (A) (A) (A) (A) (A) (A) (A) (A)
                 (A) (A) (A) (A) (A) (A) (A) (A) (A) (A) (A) (A)
                 (A) (A) (A) (A) (A) (A) (A) (A) (A) (A) (A) (A)
                 (A) (A) (A) (A) (A) (A) (A) (A) (A) (A) (A) (A)
                 (A) (A) (A) (A) (A) (A) (A) (A) (A) (A) (A) (A)
                 (A) (A) (A) (A) (A) (A) (A) (A) (A) (A) (A) (A)
                 (A) (A) (A) (A) (A) (A) (A) (A) (A) (A) (A) (A)
                 (A) (A) (A) (A) (A) (A) (A) (A) (A) (A) (A) (A)
                 (A) (A) (A) (A) (A) (A) (A) (A) (A) (A) (A) (A)
                 (A) (A) (A) (A) (A) (A) (A) (A) (A) (A) (A) (A)
                 (A) (A) (A) (A) (A) (A) (A) (A) (A) (A) (A) (A)
                 (A) (A) (A) (A) (A) (A) (A) (A) (A) (A) (A) (A)
                 (A) (A) (A) (A) (A) (A) (A) (A) (A) (A) (A) (A)
                 (A) (A) (A) (A) (A) (A) (A) (A) (A) (A) (A) (A)
                 (A) (A) (A) (A) (A) (A) (A) (A) (A) (A) (A) (A)
                 (A) (A) (A) (A) (A) (A) (A) (A) (A) (A) (A) (A)
                 (A) (A) (A) (A) (A) (A) (A) (A) (A) (A) (A) (A)
                 (A) (A) (A) (A) (A) (A) (A) (A) (A) (A) (A) (A)
                 (A) (A) (A) (A) (A) (A) (A) (A) (A) (A) (A) (A)
                 (A) (A) (A) (A) (A) (A) (A) (A) (A) (A) (A) (A)
                 (A) (A) (A) (A) (A) (A) (A) (A) (A) (A) (A) (A)
                 (A) (A) (A) (A) (A) (A) (A) (A) (A) (A) (A) (A)
                 (A) (A) (A) (A) (A) (A) (A) (A) (A) (A) (A) (A)
                 (A) (A) (A) (A) (A) (A) (A) (A)
 The electronic state of the initial guess is 1-A.
 Requested convergence on RMS density matrix=1.00D-08 within 128 cycles.
 Requested convergence on MAX density matrix=1.00D-06.
 Requested convergence on             energy=1.00D-06.
 No special actions if energy rises.
 EnCoef did     8 forward-backward iterations
 Restarting incremental Fock formation.
 SCF Done:  E(RB3LYP) =  -2821.00562868     A.U. after   23 cycles
             Convg  =    0.5366D-08             -V/T =  2.0051

 **********************************************************************

            Population analysis using the SCF density.

 **********************************************************************

 Orbital symmetries:
       Occupied  (A) (A) (A) (A) (A) (A) (A) (A) (A) (A) (A) (A)
                 (A) (A) (A) (A) (A) (A) (A) (A) (A) (A) (A) (A)
                 (A) (A) (A) (A) (A) (A) (A) (A) (A) (A) (A) (A)
                 (A) (A) (A) (A) (A) (A) (A) (A) (A) (A) (A) (A)
                 (A) (A) (A) (A) (A) (A) (A) (A) (A) (A) (A) (A)
                 (A) (A) (A) (A) (A) (A) (A) (A) (A) (A) (A) (A)
                 (A) (A) (A) (A) (A) (A) (A) (A) (A) (A) (A) (A)
                 (A) (A) (A) (A) (A) (A) (A) (A) (A) (A) (A) (A)
                 (A) (A) (A) (A) (A) (A) (A) (A) (A) (A) (A) (A)
                 (A) (A) (A) (A) (A) (A) (A) (A) (A) (A) (A) (A)
                 (A) (A)
       Virtual   (A) (A) (A) (A) (A) (A) (A) (A) (A) (A) (A) (A)
                 (A) (A) (A) (A) (A) (A) (A) (A) (A) (A) (A) (A)
                 (A) (A) (A) (A) (A) (A) (A) (A) (A) (A) (A) (A)
                 (A) (A) (A) (A) (A) (A) (A) (A) (A) (A) (A) (A)
                 (A) (A) (A) (A) (A) (A) (A) (A) (A) (A) (A) (A)
                 (A) (A) (A) (A) (A) (A) (A) (A) (A) (A) (A) (A)
                 (A) (A) (A) (A) (A) (A) (A) (A) (A) (A) (A) (A)
                 (A) (A) (A) (A) (A) (A) (A) (A) (A) (A) (A) (A)
                 (A) (A) (A) (A) (A) (A) (A) (A) (A) (A) (A) (A)
                 (A) (A) (A) (A) (A) (A) (A) (A) (A) (A) (A) (A)
                 (A) (A) (A) (A) (A) (A) (A) (A) (A) (A) (A) (A)
                 (A) (A) (A) (A) (A) (A) (A) (A) (A) (A) (A) (A)
                 (A) (A) (A) (A) (A) (A) (A) (A) (A) (A) (A) (A)
                 (A) (A) (A) (A) (A) (A) (A) (A) (A) (A) (A) (A)
                 (A) (A) (A) (A) (A) (A) (A) (A) (A) (A) (A) (A)
                 (A) (A) (A) (A) (A) (A) (A) (A) (A) (A) (A) (A)
                 (A) (A) (A) (A) (A) (A) (A) (A) (A) (A) (A) (A)
                 (A) (A) (A) (A) (A) (A) (A) (A) (A) (A) (A) (A)
                 (A) (A) (A) (A) (A) (A) (A) (A) (A) (A) (A) (A)
                 (A) (A) (A) (A) (A) (A) (A) (A) (A) (A) (A) (A)
                 (A) (A) (A) (A) (A) (A) (A) (A) (A) (A) (A) (A)
                 (A) (A) (A) (A) (A) (A) (A) (A) (A) (A) (A) (A)
                 (A) (A) (A) (A) (A) (A) (A) (A) (A) (A) (A) (A)
                 (A) (A) (A) (A) (A) (A) (A) (A) (A) (A) (A) (A)
                 (A) (A) (A) (A) (A) (A) (A) (A) (A) (A) (A) (A)
                 (A) (A) (A) (A) (A) (A) (A) (A) (A) (A) (A) (A)
                 (A) (A) (A) (A) (A) (A) (A) (A) (A) (A) (A) (A)
                 (A) (A) (A) (A) (A) (A) (A) (A) (A) (A) (A) (A)
                 (A) (A) (A) (A) (A) (A) (A) (A) (A) (A) (A) (A)
                 (A) (A) (A) (A) (A) (A) (A) (A) (A) (A) (A) (A)
                 (A) (A) (A) (A) (A) (A) (A) (A) (A) (A) (A) (A)
                 (A) (A) (A) (A) (A) (A) (A) (A) (A) (A) (A) (A)
                 (A) (A) (A) (A) (A) (A) (A) (A) (A) (A) (A) (A)
                 (A) (A) (A) (A) (A) (A) (A) (A) (A) (A) (A) (A)
                 (A) (A) (A) (A) (A) (A) (A) (A) (A) (A) (A) (A)
                 (A) (A) (A) (A) (A) (A) (A) (A) (A) (A) (A) (A)
                 (A) (A) (A) (A) (A) (A) (A) (A) (A) (A) (A) (A)
                 (A) (A) (A) (A) (A) (A) (A) (A) (A) (A) (A) (A)
                 (A) (A) (A) (A) (A) (A) (A) (A) (A) (A) (A) (A)
                 (A) (A) (A) (A) (A) (A) (A) (A) (A) (A) (A) (A)
                 (A) (A) (A) (A) (A) (A) (A) (A) (A) (A) (A) (A)
                 (A) (A) (A) (A) (A) (A) (A) (A) (A) (A) (A) (A)
                 (A) (A) (A) (A) (A) (A) (A) (A) (A) (A) (A) (A)
                 (A) (A) (A) (A) (A) (A) (A) (A) (A) (A) (A) (A)
                 (A) (A) (A) (A) (A) (A) (A) (A)
 The electronic state is 1-A.
 Alpha  occ. eigenvalues --  -88.99634 -88.91336 -88.90852 -66.12569 -66.12264
 Alpha  occ. eigenvalues --  -19.24160 -14.39476 -14.38653 -14.35537 -10.26898
 Alpha  occ. eigenvalues --  -10.26701 -10.26373 -10.26327 -10.25484 -10.24342
 Alpha  occ. eigenvalues --  -10.23498 -10.23453 -10.23342 -10.22657 -10.21763
 Alpha  occ. eigenvalues --  -10.21689 -10.20933 -10.20683 -10.20487 -10.20390
 Alpha  occ. eigenvalues --  -10.20274 -10.18562 -10.18020 -10.17679 -10.17618
 Alpha  occ. eigenvalues --   -8.04901  -7.97569  -7.97146  -6.01462  -6.00873
 Alpha  occ. eigenvalues --   -6.00667  -5.94013  -5.93582  -5.93565  -5.93227
 Alpha  occ. eigenvalues --   -5.93117  -5.92848  -5.27706  -5.27239  -3.63616
 Alpha  occ. eigenvalues --   -3.63503  -3.63485  -3.63152  -3.63072  -3.63009
 Alpha  occ. eigenvalues --   -1.14099  -1.03328  -0.96069  -0.93148  -0.91324
 Alpha  occ. eigenvalues --   -0.90500  -0.83144  -0.82784  -0.82539  -0.81456
 Alpha  occ. eigenvalues --   -0.81005  -0.78915  -0.75616  -0.72835  -0.71990
 Alpha  occ. eigenvalues --   -0.71066  -0.68552  -0.64912  -0.63941  -0.63621
 Alpha  occ. eigenvalues --   -0.62523  -0.61757  -0.59093  -0.57804  -0.56961
 Alpha  occ. eigenvalues --   -0.56503  -0.55747  -0.54646  -0.52712  -0.51605
 Alpha  occ. eigenvalues --   -0.50666  -0.49363  -0.48873  -0.48050  -0.47939
 Alpha  occ. eigenvalues --   -0.47100  -0.46092  -0.44885  -0.44010  -0.43737
 Alpha  occ. eigenvalues --   -0.43126  -0.42625  -0.42075  -0.42023  -0.41639
 Alpha  occ. eigenvalues --   -0.40858  -0.40096  -0.39803  -0.39412  -0.38802
 Alpha  occ. eigenvalues --   -0.38032  -0.37014  -0.36357  -0.36169  -0.35541
 Alpha  occ. eigenvalues --   -0.33899  -0.33750  -0.32426  -0.31977  -0.31524
 Alpha  occ. eigenvalues --   -0.31276  -0.30927  -0.30314  -0.29703  -0.29613
 Alpha  occ. eigenvalues --   -0.29524  -0.28076  -0.27056  -0.24416  -0.23629
 Alpha  occ. eigenvalues --   -0.23034  -0.19413
 Alpha virt. eigenvalues --   -0.11908  -0.07616  -0.05830  -0.04392  -0.02077
 Alpha virt. eigenvalues --   -0.02036  -0.00975  -0.00954  -0.00571  -0.00348
 Alpha virt. eigenvalues --   -0.00200   0.00058   0.00602   0.00791   0.01004
 Alpha virt. eigenvalues --    0.01088   0.01784   0.01939   0.02536   0.02829
 Alpha virt. eigenvalues --    0.02853   0.02939   0.03217   0.03608   0.04097
 Alpha virt. eigenvalues --    0.04466   0.04766   0.04793   0.04889   0.05340
 Alpha virt. eigenvalues --    0.05769   0.06102   0.06284   0.06408   0.06642
 Alpha virt. eigenvalues --    0.07119   0.07661   0.07974   0.08192   0.08331
 Alpha virt. eigenvalues --    0.08568   0.08647   0.08922   0.09522   0.09570
 Alpha virt. eigenvalues --    0.09791   0.09826   0.10039   0.10555   0.10726
 Alpha virt. eigenvalues --    0.10855   0.10909   0.10977   0.11039   0.11447
 Alpha virt. eigenvalues --    0.11801   0.11890   0.11900   0.12205   0.12236
 Alpha virt. eigenvalues --    0.12461   0.12717   0.12853   0.12906   0.13063
 Alpha virt. eigenvalues --    0.13685   0.13708   0.13963   0.14221   0.14389
 Alpha virt. eigenvalues --    0.14749   0.14932   0.14947   0.15013   0.15394
 Alpha virt. eigenvalues --    0.15911   0.16108   0.16178   0.16322   0.16587
 Alpha virt. eigenvalues --    0.16648   0.17033   0.17419   0.17542   0.17828
 Alpha virt. eigenvalues --    0.17861   0.18395   0.18622   0.18726   0.19208
 Alpha virt. eigenvalues --    0.19697   0.19743   0.19989   0.20237   0.20428
 Alpha virt. eigenvalues --    0.20497   0.20810   0.20822   0.21082   0.21729
 Alpha virt. eigenvalues --    0.21781   0.21900   0.22135   0.22362   0.22634
 Alpha virt. eigenvalues --    0.23019   0.23123   0.23492   0.23612   0.24103
 Alpha virt. eigenvalues --    0.24354   0.24507   0.24737   0.25119   0.25158
 Alpha virt. eigenvalues --    0.25334   0.25517   0.25749   0.25799   0.25969
 Alpha virt. eigenvalues --    0.26515   0.27071   0.27208   0.27338   0.27555
 Alpha virt. eigenvalues --    0.27697   0.28268   0.28560   0.28697   0.28778
 Alpha virt. eigenvalues --    0.29268   0.29513   0.29573   0.29959   0.30123
 Alpha virt. eigenvalues --    0.30399   0.30659   0.30975   0.31460   0.31938
 Alpha virt. eigenvalues --    0.31987   0.32273   0.32428   0.32608   0.33129
 Alpha virt. eigenvalues --    0.33442   0.33574   0.33730   0.34242   0.34452
 Alpha virt. eigenvalues --    0.34985   0.35444   0.35621   0.36063   0.36545
 Alpha virt. eigenvalues --    0.36614   0.37073   0.37204   0.37676   0.38066
 Alpha virt. eigenvalues --    0.38561   0.38740   0.39342   0.39640   0.40320
 Alpha virt. eigenvalues --    0.40875   0.41341   0.41943   0.42298   0.43370
 Alpha virt. eigenvalues --    0.43781   0.44195   0.44607   0.44950   0.45728
 Alpha virt. eigenvalues --    0.46086   0.46877   0.48042   0.48326   0.48504
 Alpha virt. eigenvalues --    0.49733   0.50934   0.51146   0.51743   0.52442
 Alpha virt. eigenvalues --    0.52919   0.53254   0.55384   0.55934   0.56632
 Alpha virt. eigenvalues --    0.56831   0.58718   0.59327   0.59424   0.59792
 Alpha virt. eigenvalues --    0.60247   0.61463   0.62372   0.63257   0.63917
 Alpha virt. eigenvalues --    0.65194   0.65503   0.66321   0.66392   0.67090
 Alpha virt. eigenvalues --    0.67521   0.67854   0.68054   0.68235   0.68476
 Alpha virt. eigenvalues --    0.69232   0.69353   0.69584   0.70381   0.71035
 Alpha virt. eigenvalues --    0.71638   0.71684   0.72156   0.72496   0.72789
 Alpha virt. eigenvalues --    0.72862   0.73260   0.73795   0.74115   0.74934
 Alpha virt. eigenvalues --    0.75341   0.75398   0.75723   0.76430   0.77083
 Alpha virt. eigenvalues --    0.77807   0.78088   0.78402   0.79141   0.79629
 Alpha virt. eigenvalues --    0.80835   0.81360   0.81768   0.82071   0.83156
 Alpha virt. eigenvalues --    0.83490   0.83532   0.85180   0.85408   0.86404
 Alpha virt. eigenvalues --    0.86485   0.86685   0.87432   0.88265   0.88561
 Alpha virt. eigenvalues --    0.88968   0.90665   0.91746   0.92487   0.92733
 Alpha virt. eigenvalues --    0.92958   0.93722   0.94226   0.94601   0.94908
 Alpha virt. eigenvalues --    0.95506   0.95794   0.96698   0.97263   0.97581
 Alpha virt. eigenvalues --    0.99268   0.99410   1.00136   1.00889   1.01466
 Alpha virt. eigenvalues --    1.02149   1.02183   1.02905   1.03852   1.05604
 Alpha virt. eigenvalues --    1.06151   1.06731   1.07402   1.07430   1.08830
 Alpha virt. eigenvalues --    1.09298   1.09934   1.11086   1.11362   1.12073
 Alpha virt. eigenvalues --    1.12643   1.13712   1.14599   1.15423   1.16067
 Alpha virt. eigenvalues --    1.16224   1.16934   1.17632   1.18002   1.18493
 Alpha virt. eigenvalues --    1.19113   1.20297   1.20478   1.21314   1.21694
 Alpha virt. eigenvalues --    1.21780   1.22445   1.23015   1.23242   1.25210
 Alpha virt. eigenvalues --    1.25524   1.26034   1.26648   1.27088   1.27796
 Alpha virt. eigenvalues --    1.27971   1.28055   1.28079   1.29361   1.30064
 Alpha virt. eigenvalues --    1.30569   1.31647   1.32199   1.32579   1.32615
 Alpha virt. eigenvalues --    1.33491   1.33801   1.34073   1.34338   1.35404
 Alpha virt. eigenvalues --    1.35662   1.36942   1.37627   1.37953   1.38396
 Alpha virt. eigenvalues --    1.39009   1.40595   1.40645   1.41511   1.43661
 Alpha virt. eigenvalues --    1.43858   1.44266   1.45960   1.46802   1.47258
 Alpha virt. eigenvalues --    1.48449   1.49716   1.49873   1.51191   1.53542
 Alpha virt. eigenvalues --    1.54096   1.55626   1.57134   1.57659   1.58605
 Alpha virt. eigenvalues --    1.61117   1.63116   1.63850   1.64365   1.64567
 Alpha virt. eigenvalues --    1.67761   1.68872   1.69439   1.70364   1.70832
 Alpha virt. eigenvalues --    1.72340   1.73662   1.75121   1.76838   1.76891
 Alpha virt. eigenvalues --    1.80279   1.81056   1.81226   1.83146   1.84089
 Alpha virt. eigenvalues --    1.84591   1.85487   1.87832   1.88074   1.88550
 Alpha virt. eigenvalues --    1.89657   1.89830   1.90522   1.92641   1.92833
 Alpha virt. eigenvalues --    1.93973   1.94693   1.95381   1.96269   1.96610
 Alpha virt. eigenvalues --    1.97830   1.99106   1.99147   2.02000   2.02258
 Alpha virt. eigenvalues --    2.02966   2.03284   2.05086   2.05981   2.07908
 Alpha virt. eigenvalues --    2.09371   2.09660   2.11189   2.12234   2.13062
 Alpha virt. eigenvalues --    2.14156   2.14811   2.14978   2.15658   2.16071
 Alpha virt. eigenvalues --    2.17104   2.17329   2.17426   2.18949   2.19269
 Alpha virt. eigenvalues --    2.20664   2.21159   2.22187   2.22840   2.24142
 Alpha virt. eigenvalues --    2.26228   2.26512   2.27132   2.28218   2.28660
 Alpha virt. eigenvalues --    2.30252   2.30520   2.31463   2.33166   2.33608
 Alpha virt. eigenvalues --    2.35312   2.36056   2.37032   2.37497   2.38058
 Alpha virt. eigenvalues --    2.38322   2.39679   2.41381   2.41476   2.42452
 Alpha virt. eigenvalues --    2.43427   2.44191   2.46060   2.46644   2.47033
 Alpha virt. eigenvalues --    2.47261   2.47983   2.48530   2.49686   2.50465
 Alpha virt. eigenvalues --    2.51857   2.52392   2.53431   2.54402   2.54976
 Alpha virt. eigenvalues --    2.55987   2.56682   2.58704   2.60179   2.60315
 Alpha virt. eigenvalues --    2.61094   2.61698   2.64715   2.64758   2.65184
 Alpha virt. eigenvalues --    2.65260   2.66280   2.67129   2.68442   2.68449
 Alpha virt. eigenvalues --    2.69835   2.70866   2.72240   2.73553   2.74962
 Alpha virt. eigenvalues --    2.75706   2.77611   2.79218   2.80033   2.81135
 Alpha virt. eigenvalues --    2.81719   2.83118   2.84887   2.87852   2.90554
 Alpha virt. eigenvalues --    2.91077   2.94356   2.97949   3.01011   3.02954
 Alpha virt. eigenvalues --    3.04487   3.05862   3.08657   3.09398   3.11717
 Alpha virt. eigenvalues --    3.13753   3.16748   3.17987   3.19560   3.21314
 Alpha virt. eigenvalues --    3.27525   3.30229   3.31020   3.32471   3.35072
 Alpha virt. eigenvalues --    3.35511   3.38622   3.43312   3.54103   3.70314
 Alpha virt. eigenvalues --    3.70817   3.72286   3.81675   3.95411   4.00662
 Alpha virt. eigenvalues --    4.05951   4.13660   4.21716   4.31830   4.33495
 Alpha virt. eigenvalues --    4.33825   4.36056   4.36495   4.37889   4.39112
 Alpha virt. eigenvalues --    4.39333   4.40642   4.43551   4.45174   4.47888
 Alpha virt. eigenvalues --    4.54108   4.57499   4.57616   4.58108   4.60632
 Alpha virt. eigenvalues --    4.62835   4.71600   4.78851   4.80150   4.83387
 Alpha virt. eigenvalues --    4.87330
          Condensed to atoms (all electrons):
              1          2          3          4          5          6
     1  Si  12.857661   0.309375   0.314851   0.321782  -0.137087  -0.165247
     2  H    0.309375   0.864643  -0.045277  -0.045669   0.025797   0.014597
     3  H    0.314851  -0.045277   0.863551  -0.043487   0.027682   0.010487
     4  C    0.321782  -0.045669  -0.043487   7.655734  -2.350804   0.470759
     5  C   -0.137087   0.025797   0.027682  -2.350804  19.386213  -8.881980
     6  C   -0.165247   0.014597   0.010487   0.470759  -8.881980  18.251368
     7  C   -0.022816   0.009831   0.000770   0.681079  -5.930603   4.271076
     8  C   -0.189480  -0.036525  -0.033316   0.446268  -3.136861  -1.079257
     9  S   -0.233514   0.014191   0.016171  -0.060522   0.756931   0.164513
    10  C   -0.080616   0.016564   0.016264  -1.026066   4.909532  -2.847490
    11  C    0.014760   0.002825   0.003039  -0.012707   1.247465  -0.937844
    12  C    0.013703  -0.000913  -0.000712   0.050449   0.815074  -1.549221
    13  C   -0.015067   0.001115   0.001107   0.006785  -0.103256   0.380724
    14  C    0.004266  -0.000395  -0.000330  -0.020901   0.388184  -0.780275
    15  O    0.000920   0.000070   0.000058   0.057817  -0.079366   0.147034
    16  C   -0.061358   0.091531   0.093639  -0.294386  -0.093933  -1.010047
    17  S   -0.145380   0.017567   0.015756  -0.113556   0.065748  -0.374985
    18  C    0.002301   0.003854   0.002283   0.057857  -0.038593   0.196673
    19  C   -0.047266   0.007966   0.003795   0.126884  -0.180611   0.270918
    20  Si   0.045138  -0.005211  -0.003541  -0.007634   0.018206   0.026335
    21  H   -0.001976   0.000228   0.000119   0.000221  -0.000529  -0.001655
    22  H   -0.002155   0.000176   0.000124   0.000210  -0.000536  -0.001722
    23  C    0.026608  -0.045156  -0.040639  -0.032843  -0.023066  -0.092107
    24  C    0.103614  -0.003589   0.009951  -0.445460   0.321485  -0.874590
    25  C    0.205015  -0.044259  -0.056420   0.735514  -0.925419   0.687454
    26  C    0.012812   0.000024  -0.000040   0.004920  -0.017949  -0.047620
    27  N   -0.001071   0.000117   0.000100  -0.000035   0.000159   0.002056
    28  C    0.001168  -0.000089  -0.000085   0.000030  -0.000089  -0.001078
    29  C   -0.000733   0.000014   0.000008  -0.000019   0.000033   0.000144
    30  C    0.003645  -0.000227  -0.000205   0.000251  -0.000072   0.004494
    31  N    0.000004  -0.000000  -0.000000   0.000000   0.000000   0.000028
    32  S   -0.000092   0.000014   0.000013   0.000013  -0.000064   0.000126
    33  N   -0.001872   0.000176   0.000169  -0.000086   0.000205   0.001056
    34  C    0.015941  -0.001389  -0.001297   0.002224   0.001089   0.028319
    35  H   -0.021181  -0.004072  -0.004366   0.407427  -0.327360   0.196972
    36  H    0.017857  -0.000825  -0.000862  -0.163904   0.302435   0.111372
    37  H    0.002631  -0.000201  -0.000203   0.005692   0.013770  -0.053556
    38  H   -0.000150   0.000010   0.000010   0.000098  -0.001104  -0.005999
    39  H    0.000162  -0.000025  -0.000022  -0.002954   0.019518  -0.040639
    40  H   -0.003578   0.003005   0.002994  -0.000321   0.000640   0.007651
    41  H   -0.026542  -0.030250  -0.034537   0.076109  -0.138315  -0.023129
    42  H    0.000138  -0.000013  -0.000012   0.000002  -0.000003  -0.000051
    43  H   -0.000017   0.000001   0.000001  -0.000000   0.000000   0.000004
              7          8          9         10         11         12
     1  Si  -0.022816  -0.189480  -0.233514  -0.080616   0.014760   0.013703
     2  H    0.009831  -0.036525   0.014191   0.016564   0.002825  -0.000913
     3  H    0.000770  -0.033316   0.016171   0.016264   0.003039  -0.000712
     4  C    0.681079   0.446268  -0.060522  -1.026066  -0.012707   0.050449
     5  C   -5.930603  -3.136861   0.756931   4.909532   1.247465   0.815074
     6  C    4.271076  -1.079257   0.164513  -2.847490  -0.937844  -1.549221
     7  C   11.610214   0.247853  -0.298239  -2.691678  -0.763465  -0.240046
     8  C    0.247853  15.204280  -1.444478  -3.431682   0.084891  -0.749237
     9  S   -0.298239  -1.444478  22.106124   0.823850   0.251857  -0.213506
    10  C   -2.691678  -3.431682   0.823850  12.000695   0.013706  -1.031182
    11  C   -0.763465   0.084891   0.251857   0.013706   8.740140  -2.317633
    12  C   -0.240046  -0.749237  -0.213506  -1.031182  -2.317633  11.726741
    13  C   -0.010490  -0.181798  -0.164259   0.317592   0.991415  -2.713415
    14  C   -0.183821   0.081577   0.026657  -0.013413  -0.560224   1.202742
    15  O    0.065105  -0.056665  -0.024172  -0.324399  -0.040429   0.282436
    16  C   -1.107283  -0.002497  -0.431766   0.620416  -0.269038  -0.087484
    17  S   -1.131378   0.939929  -3.541033   0.004136  -0.122482  -0.297456
    18  C    0.364960   0.097745  -0.151223  -0.154177   0.039718   0.009005
    19  C    1.144688  -0.912328  -0.147330  -0.000628  -0.011998  -0.001420
    20  Si   0.055055   0.035360   0.005292  -0.004367   0.001530   0.001422
    21  H   -0.003828   0.001290  -0.001341   0.000133  -0.000043  -0.000056
    22  H   -0.004702   0.001566  -0.000879   0.000169  -0.000049  -0.000054
    23  C   -0.444843   0.122542  -0.071138   0.004195  -0.001172  -0.000131
    24  C   -2.197149   2.164272  -0.176590   0.219709  -0.027671   0.007528
    25  C    2.026541  -1.886856  -0.496215  -0.769512   0.002517  -0.045585
    26  C    0.174337  -0.314629   0.076052   0.042402  -0.013194   0.000500
    27  N    0.001675   0.011743   0.018244  -0.000733   0.000225   0.000067
    28  C    0.005216  -0.014319   0.012644   0.001585  -0.000368   0.000179
    29  C   -0.007331   0.023506  -0.019859  -0.001936   0.000408  -0.000109
    30  C    0.033745  -0.025769  -0.101016   0.003030  -0.001293  -0.000404
    31  N    0.000417  -0.000918   0.002193  -0.000148   0.000042  -0.000088
    32  S    0.002308  -0.010967   0.025509  -0.000071   0.000504   0.000433
    33  N   -0.000560  -0.011752   0.018994  -0.003156   0.001751  -0.000941
    34  C    0.122856  -0.061856  -0.316215  -0.008759  -0.000787  -0.010645
    35  H    0.113557   0.060071  -0.007764  -0.087872  -0.017550  -0.001901
    36  H   -0.003448   0.008421   0.009715  -0.011067  -0.018025  -0.025734
    37  H    0.003388   0.025181   0.074431  -0.194210  -0.146582   0.625610
    38  H    0.001198   0.000987  -0.002101   0.007905  -0.099962   0.027619
    39  H   -0.005711   0.000510  -0.005981  -0.006305  -0.048002   0.137570
    40  H    0.022677  -0.028811  -0.004518   0.000618   0.000081   0.000003
    41  H   -0.072189   0.059305   0.086435  -0.027136  -0.011167  -0.003142
    42  H   -0.000009  -0.000205  -0.000198   0.000004  -0.000005   0.000001
    43  H   -0.000024   0.000095  -0.000358  -0.000007   0.000003  -0.000003
             13         14         15         16         17         18
     1  Si  -0.015067   0.004266   0.000920  -0.061358  -0.145380   0.002301
     2  H    0.001115  -0.000395   0.000070   0.091531   0.017567   0.003854
     3  H    0.001107  -0.000330   0.000058   0.093639   0.015756   0.002283
     4  C    0.006785  -0.020901   0.057817  -0.294386  -0.113556   0.057857
     5  C   -0.103256   0.388184  -0.079366  -0.093933   0.065748  -0.038593
     6  C    0.380724  -0.780275   0.147034  -1.010047  -0.374985   0.196673
     7  C   -0.010490  -0.183821   0.065105  -1.107283  -1.131378   0.364960
     8  C   -0.181798   0.081577  -0.056665  -0.002497   0.939929   0.097745
     9  S   -0.164259   0.026657  -0.024172  -0.431766  -3.541033  -0.151223
    10  C    0.317592  -0.013413  -0.324399   0.620416   0.004136  -0.154177
    11  C    0.991415  -0.560224  -0.040429  -0.269038  -0.122482   0.039718
    12  C   -2.713415   1.202742   0.282436  -0.087484  -0.297456   0.009005
    13  C    8.630053  -1.045352  -0.038653   0.008662   0.037995  -0.001046
    14  C   -1.045352   6.295782  -0.040316  -0.036128  -0.022224   0.002122
    15  O   -0.038653  -0.040316   8.352649   0.000989   0.000808  -0.000132
    16  C    0.008662  -0.036128   0.000989  15.428662  -0.478639  -3.504674
    17  S    0.037995  -0.022224   0.000808  -0.478639  24.970311   1.055976
    18  C   -0.001046   0.002122  -0.000132  -3.504674   1.055976  15.517636
    19  C    0.001433  -0.001040   0.000268  -4.001930  -1.379803   1.818576
    20  Si   0.000129   0.000049   0.000001   0.216185  -0.710487  -0.595104
    21  H   -0.000005  -0.000000   0.000000  -0.024445   0.033709   0.016718
    22  H   -0.000004  -0.000001   0.000000  -0.025570   0.034543   0.007607
    23  C    0.000090  -0.000208   0.000001  -1.025828   0.470252   0.709839
    24  C    0.002130  -0.002943  -0.000016   4.411544   0.630201  -4.495962
    25  C   -0.006895   0.004554  -0.000288  -2.807940   0.163180  -2.214340
    26  C    0.001097  -0.000549   0.000029   0.495789   0.336504   1.564365
    27  N   -0.000004   0.000002  -0.000000  -0.019376   0.102468  -0.124381
    28  C    0.000019  -0.000004   0.000000   0.186331  -0.302300  -0.334281
    29  C   -0.000011   0.000007   0.000000  -0.228918   0.271482  -0.125100
    30  C   -0.000167   0.000023   0.000002  -0.081149  -2.723964  -3.430601
    31  N   -0.000014   0.000000  -0.000000   0.018373   0.041898   0.052390
    32  S    0.000283  -0.000042  -0.000003   0.032727   0.149710   0.045692
    33  N   -0.000224   0.000036  -0.000004   0.061865   0.033296   0.004466
    34  C   -0.002099   0.000045   0.000032  -0.170921  -1.681261  -0.147143
    35  H   -0.001867   0.000179   0.000148  -0.015940  -0.004534   0.002088
    36  H    0.006162   0.002015  -0.012974  -0.013792  -0.001415  -0.000364
    37  H   -0.242731   0.068619   0.032218  -0.003343  -0.001587   0.001044
    38  H    0.368064  -0.031306   0.021486   0.000350   0.000331  -0.000055
    39  H   -0.211040   0.504757  -0.083297  -0.000625  -0.000363   0.000011
    40  H    0.000002   0.000001   0.000000  -0.016136  -0.006766   0.046221
    41  H   -0.000127  -0.000348   0.000096  -0.476942   0.006022   0.143470
    42  H   -0.000000  -0.000000   0.000000   0.003701  -0.017536  -0.052269
    43  H   -0.000000  -0.000000   0.000000  -0.002769  -0.004330   0.006618
             19         20         21         22         23         24
     1  Si  -0.047266   0.045138  -0.001976  -0.002155   0.026608   0.103614
     2  H    0.007966  -0.005211   0.000228   0.000176  -0.045156  -0.003589
     3  H    0.003795  -0.003541   0.000119   0.000124  -0.040639   0.009951
     4  C    0.126884  -0.007634   0.000221   0.000210  -0.032843  -0.445460
     5  C   -0.180611   0.018206  -0.000529  -0.000536  -0.023066   0.321485
[...]
 ,0.00000501,0.00000905,-0.00000101,-0.00000428,-0.00000274,-0.00000334
 ,-0.00000439,-0.00000420,0.00000257,-0.00000034,-0.00000540,-0.0000006
 9,-0.00001016,0.00000540,-0.00000256,0.00000940,-0.00000291,-0.0000004
 9,-0.00000428,0.00000587,-0.00000006,0.00000342,-0.00000408,-0.0000079
 8,0.00001285,-0.00003107,0.00005540,0.00024615,0.00039631,0.00089830,-
 0.00094858,0.00015300,-0.00224021,-0.04310473,-0.02680456,0.02954924,-
 0.00008973,0.00001630,-0.00000531,0.00002590,-0.00001620,-0.00000429,0
 .00001580,-0.00000301,-0.00000443,0.00003311,-0.00000907,0.00000736,-0
 .00001577,-0.00000397,0.00000393,0.00001958,0.00002082,0.00000729,0.00
 004145,0.00003116,0.00002900,-0.00000990,-0.00010061,-0.00011758,-0.00
 000248,0.00001500,-0.00001822,-0.00000423,-0.00000723,0.00000945,0.000
 00245,-0.00001237,-0.00000229,-0.00000277,-0.00000290,0.00000301,0.000
 00816,0.00000314,0.00000153,0.00000099,0.00001557,0.00000166,0.0000042
 1,0.00000686,0.00000302,-0.00019125,-0.00001261,-0.00019774,-0.0002103
 8,0.00053889,0.00037597,0.00062079,0.00028114,-0.00039865,-0.00231283,
 -0.00046896,-0.00058818,-0.00306909,0.00617979,-0.00300868,-0.00028687
 ,-0.00053591,0.00036709,-0.00044074,-0.00058688,-0.00019101,-0.2722998
 5,0.07873019,-0.11109161,-0.00026677,-0.00360145,-0.00102596,0.0021167
 2,-0.00033308,-0.00326588,0.00013468,-0.00007792,0.00007198,-0.0003073
 0,-0.00010469,-0.00007924,0.00001230,0.00018168,-0.00003310,-0.0000447
 1,-0.00005340,-0.00000683,-0.00001698,-0.00001599,0.00000067,-0.000029
 71,-0.00004394,0.00000122,-0.00002805,0.00005085,-0.00002210,0.0000176
 4,-0.00000325,0.00000080,-0.00002854,0.00000866,-0.00001047,0.00000184
 ,0.00000345,-0.00000288,0.00000136,0.00000416,-0.00000639,0.00000111,-
 0.00000233,-0.00000448,-0.00000086,0.00000167,-0.00000095,-0.00000070,
 0.00000115,-0.00000169,0.27665366,0.00015354,-0.00006707,0.00003995,-0
 .00004347,0.00002769,-0.00002403,-0.00003033,0.00001841,-0.00001659,-0
 .00004501,0.00002881,-0.00000945,0.00002536,-0.00000371,-0.00001870,-0
 .00001715,-0.00003675,-0.00002251,-0.00004051,0.00001685,-0.00003236,0
 .00002860,0.00019733,0.00004636,-0.00001291,-0.00002233,-0.00000148,-0
 .00001097,-0.00002378,0.00001017,-0.00000178,0.00000721,0.00000266,0.0
 0000191,0.00000269,0.00000156,-0.00000491,-0.00000236,-0.00000069,0.00
 000221,-0.00000975,-0.00000125,-0.00000306,-0.00000029,-0.00000052,0.0
 0103735,0.00063830,0.00036857,0.00035684,0.00016575,-0.00017384,0.0005
 2250,0.00062024,0.00029383,-0.00382554,-0.00091074,-0.00127474,-0.0068
 8872,0.00505100,-0.00369359,-0.00012091,-0.00046875,0.00036961,0.00015
 348,-0.00066086,-0.00021398,0.06222297,-0.06943673,0.03234923,0.028871
 22,-0.00545606,0.01342958,-0.00111243,-0.00521761,0.00271144,0.0000314
 1,-0.00024075,0.00004248,-0.00033806,-0.00002704,-0.00009760,0.0000041
 7,0.00014829,-0.00002771,-0.00003485,-0.00002573,-0.00000664,0.0000033
 7,-0.00002356,0.00000463,-0.00000679,0.00000990,-0.00000509,-0.0000344
 5,0.00002359,-0.00001312,0.00004499,0.00002142,0.00001341,0.00001982,-
 0.00001779,0.00001115,-0.00000050,-0.00000355,0.00000341,0.00000023,-0
 .00000193,0.00000939,-0.00000162,0.00000032,0.00000106,-0.00000005,-0.
 00000079,0.00000040,0.00000070,-0.00000096,0.00000031,-0.08105764,0.07
 425481,-0.00020498,0.00026720,0.00004083,0.00005349,-0.00005119,-0.000
 00104,0.00003339,-0.00005278,-0.00000002,0.00005749,-0.00004492,-0.000
 02870,-0.00004823,-0.00000738,0.00002499,-0.00002584,0.00001134,-0.000
 00721,0.00002511,-0.00006105,-0.00008190,-0.00006758,0.00010739,0.0002
 5953,0.00004685,-0.00005734,-0.00002874,0.00005335,0.00004924,-0.00001
 315,-0.00001149,-0.00000747,-0.00000386,-0.00000296,-0.00000959,0.0000
 0120,0.00001251,0.00000628,-0.00000744,-0.00000942,0.00002646,0.000007
 71,0.00000406,-0.00001489,-0.00000628,-0.00055107,-0.00007581,0.000131
 79,0.00036371,-0.00007936,-0.00115660,-0.00035213,0.00027836,0.0011688
 6,0.00016350,-0.00011791,-0.00029492,-0.00017090,0.00158438,0.00054793
 ,-0.00040632,-0.00011038,-0.00033200,0.00027380,-0.00023477,-0.0001301
 8,-0.10808279,0.03870233,-0.08074105,-0.00742896,0.00087856,0.00106569
 ,-0.00298865,0.00290817,0.00891165,0.00005885,0.00001008,-0.00005867,-
 0.00005683,-0.00003901,-0.00001153,0.00000812,0.00004574,0.00000325,-0
 .00001750,-0.00001204,0.00000380,-0.00000403,-0.00000458,-0.00001141,-
 0.00000344,-0.00001633,-0.00000473,-0.00001871,0.00001902,0.00000141,0
 .00000520,-0.00000715,0.00001287,-0.00001804,0.00000716,0.00000177,0.0
 0000143,0.00000604,-0.00000242,0.00000351,-0.00000167,-0.00000310,0.00
 000140,-0.00000044,0.00000116,0.,0.00000066,0.00000082,-0.00000040,0.0
 0000003,0.00000175,0.11656356,-0.04242152,0.07652144,0.00025452,-0.000
 27416,-0.00016656,-0.00034634,-0.00035265,0.00051592,-0.00003317,0.000
 06268,0.00004398,-0.00005977,-0.00001072,0.00012476,-0.00003934,-0.000
 02405,0.00000045,0.00020044,0.00027521,0.00014763,0.00012586,-0.000149
 14,0.00013790,-0.00037247,0.00003192,0.00008115,-0.00001693,0.00007282
 ,0.00003491,0.00007637,0.00000116,-0.00003796,0.00000154,0.00004412,-0
 .00004545,0.00000807,-0.00001443,0.00000651,-0.00000183,-0.00000179,-0
 .00000329,-0.00000273,-0.00001294,0.00000235,0.00000547,0.00000407,-0.
 00000780,0.00083022,-0.00080179,0.00060970,-0.00056668,0.00008407,-0.0
 0014934,-0.00047361,-0.00114797,-0.00003576,-0.00289763,0.00186591,-0.
 00230887,0.00029809,0.00076817,-0.00327608,0.00083876,0.00027922,0.000
 36650,-0.00024643,-0.00030152,0.00019183,0.00925556,0.00541561,-0.0021
 0415,-0.18933674,-0.13810688,-0.03296889,-0.01225413,-0.01951260,-0.00
 215919,-0.00016456,0.00040209,0.00000922,0.00001778,-0.00010427,0.0000
 5830,-0.00002687,0.00004883,0.00000642,-0.00000616,-0.00003389,-0.0000
 0084,-0.00003763,0.00004448,-0.00001981,-0.00004394,-0.00005930,-0.000
 00490,0.00000398,0.00002181,-0.00000471,-0.00000080,-0.00002361,0.0000
 1345,-0.00009644,-0.00011920,-0.00001585,-0.00000786,-0.00004917,0.000
 00629,-0.00001262,-0.00000576,-0.00001982,-0.00000479,0.00000120,0.000
 00100,-0.00000095,-0.00000203,-0.00000204,0.00000031,-0.00000107,0.000
 00163,-0.00004362,0.00015998,0.00274324,0.19518521,-0.00078198,0.00030
 520,0.00057379,-0.00003984,-0.00053046,0.00049515,0.00012014,-0.000083
 03,0.00004669,0.00023248,-0.00013866,0.00006609,-0.00015374,-0.0001011
 3,0.00004057,0.00002426,-0.00011474,0.00006108,-0.00015642,-0.00034605
 ,0.00015297,0.00029532,0.00008865,0.00002913,0.00002889,0.00002550,-0.
 00008164,-0.00004141,0.00002923,0.00001273,-0.00000076,-0.00002344,0.0
 0002378,-0.00000178,-0.00000295,-0.00000672,0.00001445,0.00000368,0.00
 000029,-0.00000624,0.00003642,0.00000514,0.00001124,-0.00001160,-0.000
 00166,-0.00059221,0.00011897,-0.00023184,0.00003691,0.00005848,-0.0000
 2055,0.00033645,0.00051151,0.00000760,0.00205341,-0.00035840,0.0009843
 1,0.00138239,-0.00239425,0.00276068,-0.00098991,-0.00038630,-0.0002783
 2,-0.00033995,-0.00006649,-0.00029665,-0.02123779,-0.01776902,-0.00222
 092,-0.13901532,-0.19774267,-0.02582139,0.00628620,0.00866173,0.001507
 39,0.00012977,-0.00023435,0.00005368,-0.00016206,0.00006823,-0.0001032
 5,0.00003227,0.00006032,0.00000138,-0.00001960,0.00000026,-0.00001025,
 0.00000300,-0.00003222,0.00001660,0.00000180,-0.00000159,-0.00000081,-
 0.00002415,0.00001915,-0.00001055,0.00000318,0.00000243,-0.00000419,0.
 00004075,0.00007654,0.00000074,-0.00000542,-0.00001347,-0.00000740,0.0
 0000142,-0.00000211,-0.00004883,0.00000237,-0.00000175,-0.00000378,-0.
 00000019,0.00000197,-0.00000010,-0.00000182,0.00000082,-0.00000144,0.0
 0098365,0.00143895,-0.00147556,0.15154059,0.20884555,-0.00027181,0.001
 61921,-0.00120584,0.00022307,-0.00014388,0.00002464,0.00012044,-0.0002
 2913,0.00017789,0.00023625,-0.00017972,0.00009279,-0.00021069,-0.00011
 413,0.00007885,0.00024322,0.00025362,0.00012646,0.00000029,-0.00019493
 ,0.00012918,-0.00047386,0.00003123,0.00000838,0.00016477,-0.00012331,-
 0.00003954,0.00006204,-0.00006834,-0.00009217,0.00000582,0.00004900,-0
 .00002027,0.00001860,-0.00002144,-0.00000354,-0.00000477,-0.00000780,-
 0.00001216,-0.00000689,-0.00002240,-0.00000069,0.00001795,0.00000094,-
 0.00001726,0.00069910,-0.00031349,-0.00039958,-0.00026874,0.00005400,-
 0.00006604,-0.00032129,-0.00053838,0.00036819,-0.00232118,0.00129772,0
 .00090565,-0.00331032,0.00245140,0.00661137,-0.00092606,-0.00082550,-0
 .00065696,0.00174666,0.00074547,0.00010710,0.00282808,0.00807382,0.011
 45480,-0.03228450,-0.02477963,-0.04877785,-0.00679792,-0.00903445,0.00
 167931,0.00000781,0.00012645,-0.00036935,0.00004662,-0.00006132,-0.000
 06266,-0.00000300,0.00000795,-0.00003409,-0.00000238,-0.00001335,-0.00
 000413,-0.00002251,0.00002471,0.00001501,-0.00002178,-0.00002197,-0.00
 000292,0.00000228,0.00000310,0.00000047,0.00000331,-0.00001072,-0.0000
 0833,-0.00004146,-0.00007243,-0.00001852,-0.00001443,-0.00006144,0.000
 00620,0.00000619,-0.00001677,-0.00004920,0.00000064,0.00000118,0.00000
 784,0.00000073,-0.00000532,0.00000275,0.00000214,-0.00000094,0.0000059
 6,0.00264128,-0.00165453,-0.00578810,0.03823848,0.02377919,0.03580717,
 -0.00000075,-0.00001787,0.00000527,-0.00000024,0.00000469,-0.00000241,
 -0.00000058,0.00000462,0.00000001,-0.00000537,0.00000283,0.00000676,-0
 .00000197,-0.00000109,-0.00000696,0.00000137,-0.00000373,0.00000821,-0
 .00000327,0.00000071,-0.00000260,-0.00003279,0.00001441,-0.00001763,0.
 00000507,0.00000932,0.00000719,-0.00000109,-0.00000774,-0.00000435,-0.
 00000099,0.00000226,0.00000400,0.00000327,-0.00000175,-0.00000048,0.00
 000306,0.00000013,-0.00000386,-0.00000164,0.00000592,0.00000335,-0.000
 00067,-0.00000076,-0.00000133,0.00001599,-0.00010238,0.00002736,-0.000
 20526,-0.00005437,-0.00004395,0.00059371,-0.00041559,0.00017259,-0.000
 05967,0.00006614,-0.00003983,-0.00003203,-0.00047913,0.00002122,0.0000
 4711,0.00009669,0.00000462,0.00004196,0.00012215,0.00002544,-0.0000708
 2,0.00007799,-0.00002085,0.00008317,0.00001580,0.00001570,-0.00003148,
 0.00001074,-0.00001410,-0.00122523,-0.00496225,-0.00151929,0.00422112,
 -0.02920703,0.00677412,-0.08075773,0.08096704,-0.02601748,-0.00323494,
 0.02726094,-0.00787779,-0.00430168,-0.00072038,-0.00379287,0.00006685,
 0.00138416,-0.00051325,-0.00042026,0.00042735,0.00023096,0.00039036,0.
 00004391,0.00020832,-0.00077892,-0.00046321,-0.00010121,0.00000159,0.0
 0000114,-0.00000107,-0.00000032,0.00000085,-0.00000072,0.00000048,-0.0
 0000134,-0.00000090,-0.00000104,0.00000169,0.00000024,-0.00000111,-0.0
 0000237,0.00000039,0.00000798,0.00000710,0.00000192,-0.00000710,0.0000
 1611,-0.00000836,0.08535675,0.00008206,-0.00002037,-0.00004548,-0.0000
 1895,0.00000743,0.00000976,-0.00001156,0.00000468,0.00001119,-0.000015
 20,0.00001157,-0.00000447,0.00003226,0.00000122,0.00000814,-0.00001148
 ,-0.00003317,-0.00002566,-0.00000828,-0.00001212,-0.00000737,-0.000046
 97,0.00004405,0.00003718,-0.00001763,0.00000113,-0.00000317,-0.0000267
 1,0.00000383,0.00001339,0.00000069,0.00000524,-0.00000209,-0.00000649,
 0.00000551,0.00000103,-0.00001416,-0.00000709,0.00001080,0.00000509,-0
 .00003684,-0.00001181,0.00000282,0.00000553,0.00000303,-0.00006949,-0.
 00004052,-0.00001968,-0.00016068,0.00003443,-0.00008790,0.00021298,-0.
 00048625,0.00018658,-0.00003038,0.00004813,-0.00000965,0.00023849,-0.0
 0041630,0.00019340,-0.00002707,0.00009407,-0.00005979,-0.00003913,0.00
 008940,-0.00002209,-0.00006684,0.00010872,-0.00006604,0.00002185,-0.00
 003066,0.00004222,0.00001211,-0.00012217,0.00002808,-0.00216261,-0.000
 03740,0.00052152,-0.00389820,-0.02630595,0.00328361,0.07961778,-0.2901
 1376,0.06808783,-0.00005672,-0.00131746,0.00143732,-0.00007107,0.00164
 340,0.00115941,0.00004178,-0.00014282,0.00021035,0.00028188,0.00006187
 ,-0.00017110,0.00008014,-0.00002349,-0.00002002,-0.00038874,0.00020202
 ,-0.00019893,-0.00000659,-0.00000588,0.00000346,-0.00000310,-0.0000065
 5,0.00000463,-0.00000114,0.00000626,0.00000202,0.00000205,-0.00000514,
 -0.00000090,0.00000260,0.00000488,-0.00000083,-0.00002211,-0.00001443,
 -0.00000673,-0.00001363,-0.00000063,-0.00000584,-0.07393359,0.31645532
 ,-0.00001745,0.00001147,0.00002550,0.00000394,-0.00000300,-0.00000569,
 0.00000207,-0.00000335,-0.00000703,0.00000402,-0.00000427,-0.00000323,
 -0.00001125,-0.00000346,-0.00000170,0.00000035,0.00001353,0.00001255,-
 0.00000830,-0.00000269,-0.00000040,0.00002216,0.00001244,-0.00002579,0
 .00000812,-0.00000500,0.00000089,0.00000923,-0.00000653,-0.00001051,-0
 .00000306,0.00000432,0.00000355,0.00000309,-0.00000311,-0.00000098,0.0
 0000437,0.00000194,-0.00000428,-0.00000279,0.00000974,0.00000290,0.000
 00061,-0.00000286,-0.00000168,0.00001522,-0.00004254,-0.00000327,-0.00
 002043,-0.00002817,-0.00003684,0.00006037,0.00000771,0.00028319,-0.000
 01576,0.00000618,-0.00002142,-0.00010582,-0.00005381,0.00014567,0.0000
 4460,0.00003829,-0.00006061,0.00004126,-0.00002063,-0.00004503,0.00000
 522,0.00000177,-0.00004347,0.00002530,0.00000767,-0.00001196,-0.000027
 90,0.00004741,0.00004229,-0.00201442,-0.00035308,0.00602673,0.00228335
 ,-0.00444852,0.00052584,-0.02581965,0.06850661,-0.06241533,-0.00302702
 ,0.00975694,0.00409200,-0.00393100,0.00101120,0.00718824,-0.00027377,0
 .00061744,0.00073690,0.00027225,-0.00014514,-0.00131805,0.00019318,-0.
 00003170,-0.00026371,-0.00008893,-0.00022433,-0.00018833,0.00000223,0.
 00000167,-0.00000064,0.00000112,0.00000169,-0.00000041,0.00000033,-0.0
 0000157,0.00000038,-0.00000064,0.00000109,0.00000075,-0.00000050,-0.00
 000163,0.00000084,0.00000540,0.00000379,0.00000273,-0.00000363,0.00000
 819,0.00000762,0.03106308,-0.07383385,0.04899459,0.00001984,-0.0000008
 4,-0.00002079,-0.00000426,0.00000070,0.00000394,-0.00000342,0.00000182
 ,0.00000531,-0.00000630,0.00000261,0.00000855,0.00000477,-0.00000108,-
 0.00000620,0.00000627,-0.00001263,0.00000117,-0.00000607,0.00000713,0.
 00000679,0.00000480,-0.00000647,-0.00003649,-0.00000463,0.00000109,0.0
 0000231,-0.00000892,-0.00000449,-0.00000094,0.00000224,0.00000448,0.00
 000340,0.00000357,0.00000289,-0.00000056,-0.00000416,-0.00000258,-0.00
 000009,0.00000035,-0.00000726,-0.00000019,0.00000015,-0.00000061,-0.00
 000037,0.00001871,-0.00004414,0.00002989,-0.00007543,-0.00003510,0.000
 04690,-0.00010166,-0.00011727,0.00043496,-0.00007453,-0.00005369,-0.00
 010265,0.00036170,0.00000548,0.00011821,-0.00002692,0.00000266,-0.0000
 2367,-0.00006699,0.00000823,-0.00001680,-0.00003428,0.00001635,0.00000
 220,-0.00001095,-0.00000382,-0.00001460,0.00002745,0.00002169,0.000062
 81,-0.00017715,0.00158686,-0.00031773,-0.00379925,0.00135269,-0.004016
 18,-0.01189930,-0.02325203,0.00009860,-0.19108903,-0.14586775,-0.02299
 720,0.00922092,0.00717116,0.00079080,0.00056490,-0.00090889,0.00101874
 ,0.00043576,-0.00008047,0.00033000,0.00021037,0.00105434,-0.00035714,-
 0.00002967,0.00144237,-0.00178899,-0.00000101,-0.00000199,-0.00000032,
 -0.00000045,-0.00000051,-0.00000084,-0.00000116,0.00000044,0.00000017,
 -0.00000015,-0.00000017,-0.00000006,-0.00000043,-0.00000109,-0.0000001
 3,-0.00001657,-0.00001607,-0.00000419,-0.00000104,-0.00000646,-0.00000
 383,0.00033710,0.00049396,0.00130147,0.19622484,-0.00001228,0.00000246
 ,0.00001095,0.00000251,-0.00000093,-0.00000260,0.00000127,-0.00000138,
 -0.00000257,0.00000106,-0.00000161,0.00000035,-0.00000622,0.00000027,0
 .00000088,-0.00000316,0.00001401,0.00001304,-0.00000699,-0.00000926,-0
 .00000596,-0.00000569,0.00000699,-0.00000058,0.00000670,0.00000592,0.0
 0000856,0.00001494,0.00000343,-0.00000910,-0.00000232,0.00000058,0.000
 00055,0.00000024,-0.00000398,-0.00000141,0.00000466,0.00000253,-0.0000
 0314,-0.00000313,0.00000707,0.00000198,-0.00000215,-0.00000230,-0.0000
 0066,0.00008987,-0.00000754,0.00002138,0.00006903,-0.00000398,-0.00001
 496,0.00014896,0.00017434,-0.00023061,-0.00011394,-0.00002409,0.000010
 94,-0.00006265,0.00002707,-0.00002263,-0.00000795,-0.00000582,0.000002
 39,0.00001531,-0.00000821,0.00000535,0.00000200,-0.00000477,-0.0000064
 6,-0.00000555,0.00001288,-0.00000346,-0.00003023,0.00010003,-0.0000527
 0,0.00080922,-0.00105045,0.00041926,0.00173706,0.00173540,0.00172459,0
 .00604768,0.00906304,0.00045693,-0.14594105,-0.21179284,-0.01307251,-0
 .02167742,-0.01590954,-0.00339302,-0.00033603,0.00272081,-0.00097204,-
 0.00026561,-0.00064067,-0.00007292,-0.00055750,-0.00154567,0.00023326,
 0.00300862,-0.00184171,0.00212806,0.00000097,0.00000105,-0.00000045,0.
 00000006,-0.00000041,-0.00000057,0.00000214,-0.00000022,0.00000063,-0.
 00000018,0.00000125,0.00000056,-0.00000056,-0.00000089,0.00000093,0.00
 000137,0.00000171,0.00000144,-0.00000136,0.00000175,0.00000215,-0.0001
 7012,0.00034031,-0.00085186,0.15724842,0.21863339,0.00000179,0.0000142
 2,0.00001230,0.00000001,-0.00000313,-0.00000214,-0.00000136,-0.0000036
 1,-0.00000290,0.00000126,-0.00000206,-0.00000339,-0.00000552,-0.000004
 07,0.00000049,-0.00001102,0.00001149,-0.00000534,0.00000222,-0.0000372
 0,-0.00000537,-0.00004507,0.00005054,0.00011837,0.00000441,0.00000945,
 0.00000436,0.00000869,-0.00000221,-0.00000384,-0.00000264,0.00000178,0
 .00000449,-0.00000114,-0.00000308,-0.00000264,0.00000162,-0.00000065,-
 0.00000150,-0.00000267,-0.00000010,-0.00000016,0.00000257,-0.00000051,
 -0.00000204,-0.00000986,-0.00004453,-0.00004750,0.00004146,-0.00003739
 ,-0.00019767,0.00035900,-0.00032654,-0.00125480,-0.00009744,0.00001909
 ,0.00023253,0.00011752,0.00000589,0.00007108,-0.00007601,0.00000841,-0
 .00002721,0.00003745,0.00000123,0.00002377,0.00000576,-0.00000919,-0.0
 0004646,-0.00001192,0.00000469,0.00001900,0.00008917,-0.00004522,-0.00
 015871,-0.00016611,0.00069496,-0.00022778,-0.00407380,0.00158684,0.006
 97862,-0.00500564,-0.00854047,0.00107262,-0.02302116,-0.01302386,-0.03
 693884,0.00588424,0.00544941,0.00334670,0.00091568,-0.00114894,-0.0017
 4450,0.00035513,-0.00001802,-0.00047832,-0.00006434,0.00073095,0.00060
 756,-0.00207428,0.00164356,0.00404888,0.00000045,-0.00000022,0.0000005
 0,-0.00000061,-0.00000182,0.00000121,0.00000131,0.00000058,0.00000090,
 -0.00000036,0.,0.00000063,-0.00000017,-0.00000042,0.00000092,-0.000006
 25,-0.00000304,0.00000186,-0.00000668,-0.00000130,0.00001155,0.0014105
 4,-0.00065157,-0.00362278,0.02544375,0.01367604,0.02821555\\-0.0000002
 1,-0.00000021,0.00000276,0.00000038,0.00000104,-0.00000209,-0.00000106
 ,0.00000202,-0.00000059,-0.00000502,0.00000562,-0.00000144,-0.00000003
 ,0.00000356,-0.00000097,-0.00000003,-0.00000438,0.00000181,0.00000220,
 0.00000042,0.00000089,-0.00000853,0.00000040,0.00000209,0.00000318,-0.
 00000507,-0.00000329,-0.00000412,0.00000578,0.00000186,0.00000075,-0.0
 0000015,-0.00000212,-0.00000158,0.00000049,0.00000328,-0.00000320,-0.0
 0000134,0.00000354,-0.00000096,-0.00000319,-0.00000198,-0.00000091,0.0
 0000283,0.00000567,0.00000496,0.00000982,0.00000793,0.00000056,0.00000
 222,-0.00000481,-0.00000531,-0.00000786,0.00000115,0.00000539,0.000003
 25,-0.00000315,-0.00000164,-0.00000061,-0.00000592,0.00000401,-0.00000
 099,0.00000032,-0.00000011,0.00000054,-0.00000124,0.00000478,-0.000002
 02,-0.00000381,-0.00000020,0.00000388,0.00000214,-0.00000154,-0.000012
 96,-0.00000581,0.00000015,0.00000256,0.00000361,0.00000230,-0.00000438
 ,-0.00000328,0.00000569,0.00000218,-0.00000008,0.00000003,0.00000016,-
 0.00000138,0.00000212,-0.00000500,0.00000049,0.00000475,-0.00000047,0.
 00000069,-0.00000840,0.00000711,-0.00000356,-0.00000011,-0.00000654,0.
 00000005,0.00000526,-0.00000173,0.00000122,0.00000034,0.00000022,0.000
 00155,-0.00000151,0.00000144,0.00000134,-0.00000180,-0.00000083,0.0000
 0187,-0.00000227,-0.00000082,0.00000292,-0.00000241,0.00000072,0.00000
 209,-0.00000008,0.00000210,0.00000299,0.00000022,0.00000238,-0.0000031
 9,0.00000243,-0.00000104,-0.00000212,0.00000153,-0.00000115,-0.0000014
 2\\\@


 IT IS IMPOSSIBLE TO MEDITATE ON TIME AND THE MYSTERY 
 OF NATURE WITHOUT AN OVERWHELMING EMOTION AT THE
 LIMITATIONS OF HUMAN INTELLIGENCE.

                                         -- ALFRED NORTH WHITEHEAD
 Job cpu time:  1 days  0 hours 46 minutes 53.8 seconds.
 File lengths (MBytes):  RWF=   2068 Int=      0 D2E=      0 Chk=     33 Scr=      1
 Normal termination of Gaussian 09 at Mon Dec 30 11:13:28 2013.
