 Entering Gaussian System, Link 0=g09
 Initial command:
 /opt/gaussian/g09/l1.exe /panfs/panfs.cluster/home/shuo/Gau-30507.inp -scrdir=/panfs/panfs.cluster/home/shuo/
 Default is to use a total of  12 processors:
                               12 via shared-memory
                                1 via Linda
 Entering Link 1 = /opt/gaussian/g09/l1.exe PID=     30508.
  
 Copyright (c) 1988,1990,1992,1993,1995,1998,2003,2009,2011,
            Gaussian, Inc.  All Rights Reserved.
  
 This is part of the Gaussian(R) 09 program.  It is based on
 the Gaussian(R) 03 system (copyright 2003, Gaussian, Inc.),
 the Gaussian(R) 98 system (copyright 1998, Gaussian, Inc.),
 the Gaussian(R) 94 system (copyright 1995, Gaussian, Inc.),
 the Gaussian 92(TM) system (copyright 1992, Gaussian, Inc.),
 the Gaussian 90(TM) system (copyright 1990, Gaussian, Inc.),
 the Gaussian 88(TM) system (copyright 1988, Gaussian, Inc.),
 the Gaussian 86(TM) system (copyright 1986, Carnegie Mellon
 University), and the Gaussian 82(TM) system (copyright 1983,
 Carnegie Mellon University). Gaussian is a federally registered
 trademark of Gaussian, Inc.
  
 This software contains proprietary and confidential information,
 including trade secrets, belonging to Gaussian, Inc.
  
 This software is provided under written license and may be
 used, copied, transmitted, or stored only in accord with that
 written license.
  
 The following legend is applicable only to US Government
 contracts under FAR:
  
                    RESTRICTED RIGHTS LEGEND
  
 Use, reproduction and disclosure by the US Government is
 subject to restrictions as set forth in subparagraphs (a)
 and (c) of the Commercial Computer Software - Restricted
 Rights clause in FAR 52.227-19.
  
 Gaussian, Inc.
 340 Quinnipiac St., Bldg. 40, Wallingford CT 06492
  
  
 ---------------------------------------------------------------
 Warning -- This program may not be used in any manner that
 competes with the business of Gaussian, Inc. or will provide
 assistance to any competitor of Gaussian, Inc.  The licensee
 of this program is prohibited from giving any competitor of
 Gaussian, Inc. access to this program.  By using this program,
 the user acknowledges that Gaussian, Inc. is engaged in the
 business of creating and licensing software in the field of
 computational chemistry and represents and warrants to the
 licensee that it is not a competitor of Gaussian, Inc. and that
 it will not use this program in any manner prohibited above.
 ---------------------------------------------------------------
  

 Cite this work as:
 Gaussian 09, Revision C.01,
 M. J. Frisch, G. W. Trucks, H. B. Schlegel, G. E. Scuseria, 
 M. A. Robb, J. R. Cheeseman, G. Scalmani, V. Barone, B. Mennucci, 
 G. A. Petersson, H. Nakatsuji, M. Caricato, X. Li, H. P. Hratchian, 
 A. F. Izmaylov, J. Bloino, G. Zheng, J. L. Sonnenberg, M. Hada, 
 M. Ehara, K. Toyota, R. Fukuda, J. Hasegawa, M. Ishida, T. Nakajima, 
 Y. Honda, O. Kitao, H. Nakai, T. Vreven, J. A. Montgomery, Jr., 
 J. E. Peralta, F. Ogliaro, M. Bearpark, J. J. Heyd, E. Brothers, 
 K. N. Kudin, V. N. Staroverov, T. Keith, R. Kobayashi, J. Normand, 
 K. Raghavachari, A. Rendell, J. C. Burant, S. S. Iyengar, J. Tomasi, 
 M. Cossi, N. Rega, J. M. Millam, M. Klene, J. E. Knox, J. B. Cross, 
 V. Bakken, C. Adamo, J. Jaramillo, R. Gomperts, R. E. Stratmann, 
 O. Yazyev, A. J. Austin, R. Cammi, C. Pomelli, J. W. Ochterski, 
 R. L. Martin, K. Morokuma, V. G. Zakrzewski, G. A. Voth, 
 P. Salvador, J. J. Dannenberg, S. Dapprich, A. D. Daniels, 
 O. Farkas, J. B. Foresman, J. V. Ortiz, J. Cioslowski, 
 and D. J. Fox, Gaussian, Inc., Wallingford CT, 2010.
 
 ******************************************
 Gaussian 09:  EM64L-G09RevC.01 23-Sep-2011
                29-Dec-2013 
 ******************************************
 %chk=74_C22H11N5SSe.chk
 %NProcShared=12
 Will use up to   12 processors via shared memory.
 %Mem=8000MB
 Default route:  MaxDisk=100GB
 --------------------------------------------
 #B3LYP/6-31++G(d,p) opt scf=direct freq test
 --------------------------------------------
 1/14=-1,18=20,19=15,26=3,38=1/1,3;
 2/9=110,12=2,17=6,18=5,40=1/2;
 3/5=1,6=6,7=1111,11=2,16=1,25=1,30=1,71=1,74=-5/1,2,3;
 4//1;
 5/5=2,38=5/2;
 6/7=2,8=2,9=2,10=2,28=1/1;
 7//1,2,3,16;
 1/14=-1,18=20,19=15/3(2);
 2/9=110/2;
 99//99;
 2/9=110/2;
 3/5=1,6=6,7=1111,11=2,16=1,25=1,30=1,71=1,74=-5/1,2,3;
 4/5=5,16=3/1;
 5/5=2,38=5/2;
 7//1,2,3,16;
 1/14=-1,18=20,19=15/3(-5);
 2/9=110/2;
 6/7=2,8=2,9=2,10=2,19=2,28=1/1;
 99/9=1/99;
 ----------------------------------------------------------------------
 Geom opt of No.74 candidate from the CEPDB database with SMILE code of
  [SiH2]1ccc2c1csc2-c1cnc(-c2ccc(s2)-c2cccc3cocc23)c2nsnc12, HPC, 20131
 227, Shuo Dai, Gaussian09
 ----------------------------------------------------------------------
 Charge =  0 Multiplicity = 1
 Symbolic Z-Matrix:
 Si                   -1.63789   1.63236   0.00488 
 H                    -1.7238    2.37698  -1.26998 
 H                    -1.71845   2.35872   1.2903 
 C                    -2.33712  -0.10126   0.00166 
 C                    -1.36406  -1.0167    0.00154 
 C                    -0.01905  -0.47491  -0.00202 
 C                     0.04709   0.94069  -0.0008 
 C                     1.28073   1.50377  -0.0021 
 S                     2.42846   0.28282  -0.01241 
 C                     1.25014  -0.99828  -0.00581 
 C                     1.72431  -2.36144  -0.00506 
 C                     0.85563  -3.44669  -0.01935 
 N                     1.21524  -4.73173  -0.00731 
 C                     2.52494  -5.06268   0.01817 
 C                     2.85079  -6.43308   0.03144 
 C                     4.07115  -7.04559   0.04168 
 C                     3.928    -8.43004  -0.0288 
 C                     2.6087   -8.81494  -0.01415 
 S                     1.56167  -7.49774   0.03681 
 C                     1.98735  -10.09742  -0.03733 
 C                     0.58399  -10.31541  -0.17094 
 C                    -0.01949  -11.59591  -0.17943 
 C                     0.71805  -12.79028  -0.06679 
 C                     2.0842   -12.55106   0.05888 
 C                     3.08658  -13.46507   0.20762 
 O                     4.28906  -12.83215   0.32846 
 C                     4.03923  -11.49497   0.2909 
 C                     2.69793  -11.27929   0.08259 
 C                     3.52305  -4.09651   0.01969 
 N                     4.85583  -4.27865   0.02844 
 S                     5.55449  -2.80207   0.03547 
 N                     4.19416  -1.89367   0.02555 
 C                     3.11358  -2.69721   0.01196 
 H                    -3.40668  -0.27877   0.00421 
 H                    -1.62667  -2.07197   0.00533 
 H                     1.59867   2.52987   0.00062 
 H                    -0.22029  -3.36015  -0.04186 
 H                     5.03296  -6.55485   0.0613 
 H                     4.79765  -9.05481  -0.08534 
 H                    -0.10136  -9.46894  -0.26826 
 H                    -1.10435  -11.62667  -0.27665 
 H                     0.25119  -13.75916  -0.06705 
 H                     3.1336   -14.53732   0.26828 
 H                     4.91772  -10.88894   0.44621 
 

 GradGradGradGradGradGradGradGradGradGradGradGradGradGradGradGradGradGrad
 Berny optimization.
 Initialization pass.
                           ----------------------------
                           !    Initial Parameters    !
                           ! (Angstroms and Degrees)  !
 --------------------------                            --------------------------
 ! Name  Definition              Value          Derivative Info.                !
 --------------------------------------------------------------------------------
 ! R1    R(1,2)                  1.4789         estimate D2E/DX2                !
 ! R2    R(1,3)                  1.4786         estimate D2E/DX2                !
 ! R3    R(1,4)                  1.8693         estimate D2E/DX2                !
 ! R4    R(1,7)                  1.8214         estimate D2E/DX2                !
 ! R5    R(4,5)                  1.336          estimate D2E/DX2                !
 ! R6    R(4,34)                 1.0842         estimate D2E/DX2                !
 ! R7    R(5,6)                  1.45           estimate D2E/DX2                !
 ! R8    R(5,35)                 1.0875         estimate D2E/DX2                !
 ! R9    R(6,7)                  1.4171         estimate D2E/DX2                !
 ! R10   R(6,10)                 1.3729         estimate D2E/DX2                !
 ! R11   R(7,8)                  1.3561         estimate D2E/DX2                !
 ! R12   R(8,9)                  1.6757         estimate D2E/DX2                !
 ! R13   R(8,36)                 1.0742         estimate D2E/DX2                !
 ! R14   R(9,10)                 1.7406         estimate D2E/DX2                !
 ! R15   R(10,11)                1.4433         estimate D2E/DX2                !
 ! R16   R(11,12)                1.3902         estimate D2E/DX2                !
 ! R17   R(11,33)                1.4294         estimate D2E/DX2                !
 ! R18   R(12,13)                1.3345         estimate D2E/DX2                !
 ! R19   R(12,37)                1.0796         estimate D2E/DX2                !
 ! R20   R(13,14)                1.3511         estimate D2E/DX2                !
 ! R21   R(14,15)                1.4087         estimate D2E/DX2                !
 ! R22   R(14,29)                1.3891         estimate D2E/DX2                !
 ! R23   R(15,16)                1.3655         estimate D2E/DX2                !
 ! R24   R(15,19)                1.6719         estimate D2E/DX2                !
 ! R25   R(16,17)                1.3936         estimate D2E/DX2                !
 ! R26   R(16,38)                1.0799         estimate D2E/DX2                !
 ! R27   R(17,18)                1.3744         estimate D2E/DX2                !
 ! R28   R(17,39)                1.0723         estimate D2E/DX2                !
 ! R29   R(18,19)                1.6834         estimate D2E/DX2                !
 ! R30   R(18,20)                1.4253         estimate D2E/DX2                !
 ! R31   R(20,21)                1.4265         estimate D2E/DX2                !
 ! R32   R(20,28)                1.3842         estimate D2E/DX2                !
 ! R33   R(21,22)                1.4156         estimate D2E/DX2                !
 ! R34   R(21,40)                1.0935         estimate D2E/DX2                !
 ! R35   R(22,23)                1.4083         estimate D2E/DX2                !
 ! R36   R(22,41)                1.0896         estimate D2E/DX2                !
 ! R37   R(23,24)                1.3926         estimate D2E/DX2                !
 ! R38   R(23,42)                1.0755         estimate D2E/DX2                !
 ! R39   R(24,25)                1.3647         estimate D2E/DX2                !
 ! R40   R(24,28)                1.4123         estimate D2E/DX2                !
 ! R41   R(25,26)                1.3642         estimate D2E/DX2                !
 ! R42   R(25,43)                1.075          estimate D2E/DX2                !
 ! R43   R(26,27)                1.3608         estimate D2E/DX2                !
 ! R44   R(27,28)                1.3744         estimate D2E/DX2                !
 ! R45   R(27,44)                1.0785         estimate D2E/DX2                !
 ! R46   R(29,30)                1.3452         estimate D2E/DX2                !
 ! R47   R(29,33)                1.458          estimate D2E/DX2                !
 ! R48   R(30,31)                1.6335         estimate D2E/DX2                !
 ! R49   R(31,32)                1.6358         estimate D2E/DX2                !
 ! R50   R(32,33)                1.3467         estimate D2E/DX2                !
 ! A1    A(2,1,3)              119.9266         estimate D2E/DX2                !
 ! A2    A(2,1,4)              116.3424         estimate D2E/DX2                !
 ! A3    A(2,1,7)              104.0194         estimate D2E/DX2                !
 ! A4    A(3,1,4)              115.8929         estimate D2E/DX2                !
 ! A5    A(3,1,7)              103.8661         estimate D2E/DX2                !
 ! A6    A(4,1,7)               89.6479         estimate D2E/DX2                !
 ! A7    A(1,4,5)              111.2864         estimate D2E/DX2                !
 ! A8    A(1,4,34)             121.3888         estimate D2E/DX2                !
 ! A9    A(5,4,34)             127.3243         estimate D2E/DX2                !
 ! A10   A(4,5,6)              114.8072         estimate D2E/DX2                !
 ! A11   A(4,5,35)             119.2777         estimate D2E/DX2                !
 ! A12   A(6,5,35)             125.9151         estimate D2E/DX2                !
 ! A13   A(5,6,7)              114.6151         estimate D2E/DX2                !
 ! A14   A(5,6,10)             135.6503         estimate D2E/DX2                !
 ! A15   A(7,6,10)             109.7346         estimate D2E/DX2                !
 ! A16   A(1,7,6)              109.6427         estimate D2E/DX2                !
 ! A17   A(1,7,8)              133.1485         estimate D2E/DX2                !
 ! A18   A(6,7,8)              117.2087         estimate D2E/DX2                !
 ! A19   A(7,8,9)              108.6957         estimate D2E/DX2                !
 ! A20   A(7,8,36)             131.7491         estimate D2E/DX2                !
 ! A21   A(9,8,36)             119.5551         estimate D2E/DX2                !
 ! A22   A(8,9,10)              94.1621         estimate D2E/DX2                !
 ! A23   A(6,10,9)             110.1978         estimate D2E/DX2                !
 ! A24   A(6,10,11)            131.5893         estimate D2E/DX2                !
 ! A25   A(9,10,11)            118.2129         estimate D2E/DX2                !
 ! A26   A(10,11,12)           122.1424         estimate D2E/DX2                !
 ! A27   A(10,11,33)           122.765          estimate D2E/DX2                !
 ! A28   A(12,11,33)           115.0925         estimate D2E/DX2                !
 ! A29   A(11,12,13)           125.6804         estimate D2E/DX2                !
 ! A30   A(11,12,37)           124.081          estimate D2E/DX2                !
 ! A31   A(13,12,37)           110.2386         estimate D2E/DX2                !
 ! A32   A(12,13,14)           119.8193         estimate D2E/DX2                !
 ! A33   A(13,14,15)           117.5614         estimate D2E/DX2                !
 ! A34   A(13,14,29)           121.7453         estimate D2E/DX2                !
 ! A35   A(15,14,29)           120.691          estimate D2E/DX2                !
 ! A36   A(14,15,16)           130.0296         estimate D2E/DX2                !
 ! A37   A(14,15,19)           116.1779         estimate D2E/DX2                !
 ! A38   A(16,15,19)           113.7925         estimate D2E/DX2                !
 ! A39   A(15,16,17)           110.6976         estimate D2E/DX2                !
 ! A40   A(15,16,38)           126.3172         estimate D2E/DX2                !
 ! A41   A(17,16,38)           122.9443         estimate D2E/DX2                !
 ! A42   A(16,17,18)           112.1032         estimate D2E/DX2                !
 ! A43   A(16,17,39)           119.8793         estimate D2E/DX2                !
 ! A44   A(18,17,39)           128.0176         estimate D2E/DX2                !
 ! A45   A(17,18,19)           112.2244         estimate D2E/DX2                !
 ! A46   A(17,18,20)           132.091          estimate D2E/DX2                !
 ! A47   A(19,18,20)           115.6844         estimate D2E/DX2                !
 ! A48   A(15,19,18)            91.0657         estimate D2E/DX2                !
 ! A49   A(18,20,21)           124.6059         estimate D2E/DX2                !
 ! A50   A(18,20,28)           122.8929         estimate D2E/DX2                !
 ! A51   A(21,20,28)           112.4985         estimate D2E/DX2                !
 ! A52   A(20,21,22)           123.9312         estimate D2E/DX2                !
 ! A53   A(20,21,40)           120.441          estimate D2E/DX2                !
 ! A54   A(22,21,40)           115.6265         estimate D2E/DX2                !
 ! A55   A(21,22,23)           122.9174         estimate D2E/DX2                !
 ! A56   A(21,22,41)           116.7761         estimate D2E/DX2                !
 ! A57   A(23,22,41)           120.3064         estimate D2E/DX2                !
 ! A58   A(22,23,24)           112.0431         estimate D2E/DX2                !
 ! A59   A(22,23,42)           122.4582         estimate D2E/DX2                !
 ! A60   A(24,23,42)           125.4934         estimate D2E/DX2                !
 ! A61   A(23,24,25)           127.9774         estimate D2E/DX2                !
 ! A62   A(23,24,28)           125.6263         estimate D2E/DX2                !
 ! A63   A(25,24,28)           106.3854         estimate D2E/DX2                !
 ! A64   A(24,25,26)           110.2646         estimate D2E/DX2                !
 ! A65   A(24,25,43)           134.9378         estimate D2E/DX2                !
 ! A66   A(26,25,43)           114.7841         estimate D2E/DX2                !
 ! A67   A(25,26,27)           106.9543         estimate D2E/DX2                !
 ! A68   A(26,27,28)           109.7273         estimate D2E/DX2                !
 ! A69   A(26,27,44)           113.4933         estimate D2E/DX2                !
 ! A70   A(28,27,44)           136.7675         estimate D2E/DX2                !
 ! A71   A(20,28,24)           122.9777         estimate D2E/DX2                !
 ! A72   A(20,28,27)           130.3973         estimate D2E/DX2                !
 ! A73   A(24,28,27)           106.5782         estimate D2E/DX2                !
 ! A74   A(14,29,30)           128.1492         estimate D2E/DX2                !
 ! A75   A(14,29,33)           117.7568         estimate D2E/DX2                !
 ! A76   A(30,29,33)           114.094          estimate D2E/DX2                !
 ! A77   A(29,30,31)           107.5409         estimate D2E/DX2                !
 ! A78   A(30,31,32)            98.4107         estimate D2E/DX2                !
 ! A79   A(31,32,33)           109.6329         estimate D2E/DX2                !
 ! A80   A(11,33,29)           119.8993         estimate D2E/DX2                !
 ! A81   A(11,33,32)           129.7808         estimate D2E/DX2                !
 ! A82   A(29,33,32)           110.3198         estimate D2E/DX2                !
 ! D1    D(2,1,4,5)            105.7137         estimate D2E/DX2                !
 ! D2    D(2,1,4,34)           -74.5373         estimate D2E/DX2                !
 ! D3    D(3,1,4,5)           -105.062          estimate D2E/DX2                !
 ! D4    D(3,1,4,34)            74.687          estimate D2E/DX2                !
 ! D5    D(7,1,4,5)              0.211          estimate D2E/DX2                !
 ! D6    D(7,1,4,34)           179.96           estimate D2E/DX2                !
 ! D7    D(2,1,7,6)           -117.2275         estimate D2E/DX2                !
 ! D8    D(2,1,7,8)             62.8761         estimate D2E/DX2                !
 ! D9    D(3,1,7,6)            116.525          estimate D2E/DX2                !
 ! D10   D(3,1,7,8)            -63.3714         estimate D2E/DX2                !
 ! D11   D(4,1,7,6)             -0.109          estimate D2E/DX2                !
 ! D12   D(4,1,7,8)            179.9946         estimate D2E/DX2                !
 ! D13   D(1,4,5,6)             -0.2565         estimate D2E/DX2                !
 ! D14   D(1,4,5,35)           179.6643         estimate D2E/DX2                !
 ! D15   D(34,4,5,6)          -179.9871         estimate D2E/DX2                !
 ! D16   D(34,4,5,35)           -0.0663         estimate D2E/DX2                !
 ! D17   D(4,5,6,7)              0.1781         estimate D2E/DX2                !
 ! D18   D(4,5,6,10)          -179.8583         estimate D2E/DX2                !
 ! D19   D(35,5,6,7)          -179.7366         estimate D2E/DX2                !
 ! D20   D(35,5,6,10)            0.2271         estimate D2E/DX2                !
 ! D21   D(5,6,7,1)             -0.0052         estimate D2E/DX2                !
 ! D22   D(5,6,7,8)            179.9098         estimate D2E/DX2                !
 ! D23   D(10,6,7,1)          -179.9782         estimate D2E/DX2                !
 ! D24   D(10,6,7,8)            -0.0632         estimate D2E/DX2                !
 ! D25   D(5,6,10,9)           179.8661         estimate D2E/DX2                !
 ! D26   D(5,6,10,11)           -0.1408         estimate D2E/DX2                !
 ! D27   D(7,6,10,9)            -0.169          estimate D2E/DX2                !
 ! D28   D(7,6,10,11)          179.8241         estimate D2E/DX2                !
 ! D29   D(1,7,8,9)           -179.8398         estimate D2E/DX2                !
 ! D30   D(1,7,8,36)             0.0501         estimate D2E/DX2                !
 ! D31   D(6,7,8,9)              0.2699         estimate D2E/DX2                !
 ! D32   D(6,7,8,36)          -179.8402         estimate D2E/DX2                !
 ! D33   D(7,8,9,10)            -0.3048         estimate D2E/DX2                !
 ! D34   D(36,8,9,10)          179.7896         estimate D2E/DX2                !
 ! D35   D(8,9,10,6)             0.2806         estimate D2E/DX2                !
 ! D36   D(8,9,10,11)         -179.7135         estimate D2E/DX2                !
 ! D37   D(6,10,11,12)           0.9522         estimate D2E/DX2                !
 ! D38   D(6,10,11,33)        -178.9699         estimate D2E/DX2                !
 ! D39   D(9,10,11,12)        -179.0551         estimate D2E/DX2                !
 ! D40   D(9,10,11,33)           1.0228         estimate D2E/DX2                !
 ! D41   D(10,11,12,13)       -179.3458         estimate D2E/DX2                !
 ! D42   D(10,11,12,37)          0.6387         estimate D2E/DX2                !
 ! D43   D(33,11,12,13)          0.5819         estimate D2E/DX2                !
 ! D44   D(33,11,12,37)       -179.4336         estimate D2E/DX2                !
 ! D45   D(10,11,33,29)        179.6382         estimate D2E/DX2                !
 ! D46   D(10,11,33,32)         -0.2193         estimate D2E/DX2                !
 ! D47   D(12,11,33,29)         -0.289          estimate D2E/DX2                !
 ! D48   D(12,11,33,32)        179.8535         estimate D2E/DX2                !
 ! D49   D(11,12,13,14)         -0.1472         estimate D2E/DX2                !
 ! D50   D(37,12,13,14)        179.8665         estimate D2E/DX2                !
 ! D51   D(12,13,14,15)        179.9316         estimate D2E/DX2                !
 ! D52   D(12,13,14,29)         -0.6184         estimate D2E/DX2                !
 ! D53   D(13,14,15,16)        179.1706         estimate D2E/DX2                !
 ! D54   D(13,14,15,19)         -0.8769         estimate D2E/DX2                !
 ! D55   D(29,14,15,16)         -0.2855         estimate D2E/DX2                !
 ! D56   D(29,14,15,19)        179.667          estimate D2E/DX2                !
 ! D57   D(13,14,29,30)       -179.1928         estimate D2E/DX2                !
 ! D58   D(13,14,29,33)          0.8556         estimate D2E/DX2                !
 ! D59   D(15,14,29,30)          0.2402         estimate D2E/DX2                !
 ! D60   D(15,14,29,33)       -179.7114         estimate D2E/DX2                !
 ! D61   D(14,15,16,17)       -176.3943         estimate D2E/DX2                !
 ! D62   D(14,15,16,38)          1.3201         estimate D2E/DX2                !
 ! D63   D(19,15,16,17)          3.6523         estimate D2E/DX2                !
 ! D64   D(19,15,16,38)       -178.6333         estimate D2E/DX2                !
 ! D65   D(14,15,19,18)        177.7506         estimate D2E/DX2                !
 ! D66   D(16,15,19,18)         -2.2892         estimate D2E/DX2                !
 ! D67   D(15,16,17,18)         -3.3949         estimate D2E/DX2                !
 ! D68   D(15,16,17,39)        176.6217         estimate D2E/DX2                !
 ! D69   D(38,16,17,18)        178.7996         estimate D2E/DX2                !
 ! D70   D(38,16,17,39)         -1.1838         estimate D2E/DX2                !
 ! D71   D(16,17,18,19)          1.7533         estimate D2E/DX2                !
 ! D72   D(16,17,18,20)       -178.4301         estimate D2E/DX2                !
 ! D73   D(39,17,18,19)       -178.265          estimate D2E/DX2                !
 ! D74   D(39,17,18,20)          1.5516         estimate D2E/DX2                !
 ! D75   D(17,18,19,15)          0.2654         estimate D2E/DX2                !
 ! D76   D(20,18,19,15)       -179.5836         estimate D2E/DX2                !
 ! D77   D(17,18,20,21)       -172.4465         estimate D2E/DX2                !
 ! D78   D(17,18,20,28)          8.1942         estimate D2E/DX2                !
 ! D79   D(19,18,20,21)          7.3652         estimate D2E/DX2                !
 ! D80   D(19,18,20,28)       -171.9942         estimate D2E/DX2                !
 ! D81   D(18,20,21,22)       -179.371          estimate D2E/DX2                !
 ! D82   D(18,20,21,40)          0.1911         estimate D2E/DX2                !
 ! D83   D(28,20,21,22)          0.0468         estimate D2E/DX2                !
 ! D84   D(28,20,21,40)        179.6089         estimate D2E/DX2                !
 ! D85   D(18,20,28,24)       -179.9524         estimate D2E/DX2                !
 ! D86   D(18,20,28,27)          2.8844         estimate D2E/DX2                !
 ! D87   D(21,20,28,24)          0.6183         estimate D2E/DX2                !
 ! D88   D(21,20,28,27)       -176.5448         estimate D2E/DX2                !
 ! D89   D(20,21,22,23)         -0.5582         estimate D2E/DX2                !
 ! D90   D(20,21,22,41)        179.312          estimate D2E/DX2                !
 ! D91   D(40,21,22,23)        179.8605         estimate D2E/DX2                !
 ! D92   D(40,21,22,41)         -0.2692         estimate D2E/DX2                !
 ! D93   D(21,22,23,24)          0.3482         estimate D2E/DX2                !
 ! D94   D(21,22,23,42)        179.5531         estimate D2E/DX2                !
 ! D95   D(41,22,23,24)       -179.5176         estimate D2E/DX2                !
 ! D96   D(41,22,23,42)         -0.3127         estimate D2E/DX2                !
 ! D97   D(22,23,24,25)        178.9585         estimate D2E/DX2                !
 ! D98   D(22,23,24,28)          0.3306         estimate D2E/DX2                !
 ! D99   D(42,23,24,25)         -0.2175         estimate D2E/DX2                !
 ! D100  D(42,23,24,28)       -178.8453         estimate D2E/DX2                !
 ! D101  D(23,24,25,26)       -178.5701         estimate D2E/DX2                !
 ! D102  D(23,24,25,43)         -0.0203         estimate D2E/DX2                !
 ! D103  D(28,24,25,26)          0.2674         estimate D2E/DX2                !
 ! D104  D(28,24,25,43)        178.8172         estimate D2E/DX2                !
 ! D105  D(23,24,28,20)         -0.8746         estimate D2E/DX2                !
 ! D106  D(23,24,28,27)        176.8716         estimate D2E/DX2                !
 ! D107  D(25,24,28,20)       -179.7473         estimate D2E/DX2                !
 ! D108  D(25,24,28,27)         -2.0011         estimate D2E/DX2                !
 ! D109  D(24,25,26,27)          1.5929         estimate D2E/DX2                !
 ! D110  D(43,25,26,27)       -177.2764         estimate D2E/DX2                !
 ! D111  D(25,26,27,28)         -2.8951         estimate D2E/DX2                !
 ! D112  D(25,26,27,44)        176.0653         estimate D2E/DX2                !
 ! D113  D(26,27,28,20)       -179.4316         estimate D2E/DX2                !
 ! D114  D(26,27,28,24)          3.0512         estimate D2E/DX2                !
 ! D115  D(44,27,28,20)          1.9605         estimate D2E/DX2                !
 ! D116  D(44,27,28,24)       -175.5567         estimate D2E/DX2                !
 ! D117  D(14,29,30,31)       -179.6462         estimate D2E/DX2                !
 ! D118  D(33,29,30,31)          0.3069         estimate D2E/DX2                !
 ! D119  D(14,29,33,11)         -0.3816         estimate D2E/DX2                !
 ! D120  D(14,29,33,32)        179.5016         estimate D2E/DX2                !
 ! D121  D(30,29,33,11)        179.6601         estimate D2E/DX2                !
 ! D122  D(30,29,33,32)         -0.4567         estimate D2E/DX2                !
 ! D123  D(29,30,31,32)         -0.0748         estimate D2E/DX2                !
 ! D124  D(30,31,32,33)         -0.1893         estimate D2E/DX2                !
 ! D125  D(31,32,33,11)       -179.7563         estimate D2E/DX2                !
 ! D126  D(31,32,33,29)          0.3754         estimate D2E/DX2                !
 --------------------------------------------------------------------------------
 Trust Radius=3.00D-01 FncErr=1.00D-07 GrdErr=1.00D-06
 Number of steps in this run=    264 maximum allowed number of steps=    264.
 GradGradGradGradGradGradGradGradGradGradGradGradGradGradGradGradGradGrad

                          Input orientation:                          
 ---------------------------------------------------------------------
 Center     Atomic      Atomic             Coordinates (Angstroms)
 Number     Number       Type             X           Y           Z
 ---------------------------------------------------------------------
      1         14           0       -1.637890    1.632360    0.004880
      2          1           0       -1.723800    2.376980   -1.269980
      3          1           0       -1.718450    2.358720    1.290300
      4          6           0       -2.337120   -0.101260    0.001660
      5          6           0       -1.364060   -1.016700    0.001540
      6          6           0       -0.019050   -0.474910   -0.002020
      7          6           0        0.047090    0.940690   -0.000800
      8          6           0        1.280730    1.503770   -0.002100
      9         16           0        2.428460    0.282820   -0.012410
     10          6           0        1.250140   -0.998280   -0.005810
     11          6           0        1.724310   -2.361440   -0.005060
     12          6           0        0.855630   -3.446690   -0.019350
     13          7           0        1.215240   -4.731730   -0.007310
     14          6           0        2.524940   -5.062680    0.018170
     15          6           0        2.850790   -6.433080    0.031440
     16          6           0        4.071150   -7.045590    0.041680
     17          6           0        3.928000   -8.430040   -0.028800
     18          6           0        2.608700   -8.814940   -0.014150
     19         16           0        1.561670   -7.497740    0.036810
     20          6           0        1.987350  -10.097420   -0.037330
     21          6           0        0.583990  -10.315410   -0.170940
     22          6           0       -0.019490  -11.595910   -0.179430
     23          6           0        0.718050  -12.790280   -0.066790
     24          6           0        2.084200  -12.551060    0.058880
     25          6           0        3.086580  -13.465070    0.207620
     26          8           0        4.289060  -12.832150    0.328460
     27          6           0        4.039230  -11.494970    0.290900
     28          6           0        2.697930  -11.279290    0.082590
     29          6           0        3.523050   -4.096510    0.019690
     30          7           0        4.855830   -4.278650    0.028440
     31         16           0        5.554490   -2.802070    0.035470
     32          7           0        4.194160   -1.893670    0.025550
     33          6           0        3.113580   -2.697210    0.011960
     34          1           0       -3.406680   -0.278770    0.004210
     35          1           0       -1.626670   -2.071970    0.005330
     36          1           0        1.598670    2.529870    0.000620
     37          1           0       -0.220290   -3.360150   -0.041860
     38          1           0        5.032960   -6.554850    0.061300
     39          1           0        4.797650   -9.054810   -0.085340
     40          1           0       -0.101360   -9.468940   -0.268260
     41          1           0       -1.104350  -11.626670   -0.276650
     42          1           0        0.251190  -13.759160   -0.067050
     43          1           0        3.133600  -14.537320    0.268280
     44          1           0        4.917720  -10.888940    0.446210
 ---------------------------------------------------------------------
                    Distance matrix (angstroms):
                    1          2          3          4          5
     1  Si   0.000000
     2  H    1.478887   0.000000
     3  H    1.478646   2.560351   0.000000
     4  C    1.869324   2.852175   2.845144   0.000000
     5  C    2.663177   3.641873   3.630421   1.335993   0.000000
     6  C    2.657306   3.556286   3.547888   2.347994   1.450035
     7  C    1.821427   2.609559   2.606699   2.601946   2.413032
     8  C    2.921460   3.375976   3.375843   3.957900   3.653450
     9  S    4.284479   4.817494   4.816978   4.781053   4.009009
    10  C    3.906546   4.672775   4.664963   3.697720   2.614275
    11  C    5.220625   5.995174   5.984185   4.647975   3.368442
    12  C    5.658178   6.490968   6.484123   4.624500   3.291248
    13  N    6.974392   7.795258   7.782340   5.836146   4.522645
    14  C    7.883710   8.663698   8.643023   6.946624   5.612001
    15  C    9.230400  10.011879   9.987914   8.185795   6.863164
    16  C   10.387555  11.139422  11.113936   9.449404   8.117305
    17  C   11.499224  12.258673  12.248256  10.422151   9.108481
    18  C   11.277410  12.066762  12.053070  10.019461   8.751892
    19  S    9.674551  10.488666  10.463280   8.361203   7.110908
    20  C   12.277291  13.072977  13.063345  10.891546   9.679511
    21  C   12.153883  12.947222  12.964182  10.625043   9.502140
    22  C   13.328178  14.118627  14.134294  11.727369  10.665847
    23  C   14.613971  15.409610  15.403585  13.051819  11.956464
    24  C   14.663774  15.463283  15.436259  13.211694  12.038905
    25  C   15.820686  16.622082  16.572653  14.423951  13.221671
    26  O   15.635072  16.432502  16.363919  14.355787  13.102271
    27  C   14.305184  15.102313  15.035771  13.059790  11.792939
    28  C   13.620429  14.417866  14.386045  12.259961  11.037531
    29  C    7.710737   8.432008   8.411764   7.092527   5.776626
    30  N    8.781173   9.448536   9.426989   8.318043   7.023395
    31  S    8.449582   9.027750   9.005776   8.341045   7.145280
    32  N    6.815139   7.412091   7.391980   6.772808   5.627030
    33  C    6.428195   7.126782   7.109507   6.037317   4.782623
    34  H    2.604042   3.392441   3.385336   1.084193   2.171830
    35  H    3.704347   4.629147   4.614172   2.094863   1.087462
    36  H    3.358700   3.560422   3.563124   4.734268   4.621248
    37  H    5.190080   6.056689   6.060083   3.886287   2.608036
    38  H   10.560958  11.278462  11.249165   9.796451   8.461474
    39  H   12.475573  13.214330  13.214409  11.448955  10.128447
    40  H   11.210459  11.998399  12.039005   9.634568   8.550296
    41  H   13.272747  14.052496  14.086291  11.594492  10.616793
    42  H   15.507182  16.301001  16.294414  13.901162  12.844611
    43  H   16.861051  17.665054  17.608608  15.440197  14.251570
    44  H   14.140500  14.934515  14.840881  13.007858  11.709808
                    6          7          8          9         10
     6  C    0.000000
     7  C    1.417145   0.000000
     8  C    2.367404   1.356071   0.000000
     9  S    2.562141   2.470597   1.675741   0.000000
    10  C    1.372871   2.281876   2.502240   1.740603   0.000000
    11  C    2.568717   3.703667   3.890581   2.736420   1.443275
    12  C    3.097877   4.461298   4.968708   4.047603   2.480027
    13  N    4.432157   5.791456   6.235846   5.159229   3.733613
    14  C    5.245944   6.494656   6.683318   5.346458   4.259699
    15  C    6.613387   7.888869   8.090723   6.729309   5.665732
    16  C    7.739863   8.942904   8.993326   7.510456   6.673104
    17  C    8.880541  10.142624  10.280532   8.840974   7.899527
    18  C    8.744216  10.086344  10.403818   9.099545   7.933847
    19  S    7.198634   8.573358   9.005977   7.828848   6.507061
    20  C    9.829526  11.207400  11.622743  10.389638   9.129010
    21  C    9.860407  11.270182  11.840902  10.758703   9.342373
    22  C   11.122415  12.538049  13.165243  12.129492  10.674824
    23  C   12.337579  13.747512  14.305267  13.184628  11.804156
    24  C   12.258090  13.644805  14.077909  12.838694  11.583029
    25  C   13.357887  14.724397  15.078834  13.765392  12.603131
    26  O   13.090852  14.415056  14.651891  13.250678  12.222408
    27  C   11.747219  13.063993  13.291441  11.891296  10.864969
    28  C   11.141085  12.504472  12.861658  11.565640  10.382826
    29  C    5.065859   6.120139   6.032546   4.514165   3.842629
    30  N    6.183350   7.096925   6.798430   5.167282   4.874731
    31  S    6.039986   6.658906   6.066852   4.392141   4.667204
    32  N    4.445760   5.023194   4.475649   2.802900   3.077330
    33  C    3.840857   4.757924   4.583423   3.057869   2.521723
    34  H    3.393309   3.662736   5.014908   5.862126   4.712087
    35  H    2.266075   3.446394   4.608573   4.689289   3.070663
    36  H    3.412584   2.221012   1.074232   2.395403   3.545329
    37  H    2.892524   4.309339   5.090418   4.504217   2.782426
    38  H    7.905219   9.002548   8.889578   7.317280   6.722329
    39  H    9.839829  11.067294  11.129208   9.633780   8.803342
    40  H    8.998346  10.414124  11.062612  10.077811   8.581813
    41  H   11.207812  12.623013  13.348125  12.425237  10.889428
    42  H   13.287158  14.701416  15.297752  14.209880  12.800067
    43  H   14.414008  15.785048  16.150009  14.839561  13.672167
    44  H   11.533630  12.800898  12.923155  11.454910  10.558438
                   11         12         13         14         15
    11  C    0.000000
    12  C    1.390171   0.000000
    13  N    2.424342   1.334463   0.000000
    14  C    2.817489   2.323667   1.351107   0.000000
    15  C    4.224753   3.591903   2.360321   1.408670   0.000000
    16  C    5.239380   4.826528   3.675945   2.514607   1.365486
    17  C    6.456370   5.854342   4.586614   3.648273   2.269771
    18  C    6.513823   5.647246   4.314439   3.753334   2.394565
    19  S    5.139045   4.112500   2.787969   2.618731   1.671933
    20  C    7.740518   6.746356   5.421041   5.063664   3.765321
    21  C    8.037007   6.875760   5.621631   5.603055   4.500203
    22  C    9.399291   8.197637   6.976471   7.014005   5.910819
    23  C   10.477455   9.344723   8.074092   7.936490   6.706133
    24  C   10.196174   9.187223   7.867744   7.501449   6.165881
    25  C   11.188906  10.266284   8.934167   8.423271   7.038147
    26  O   10.785404   9.999814   8.670520   7.973272   6.565435
    27  C    9.426973   8.660622   7.335207   6.613759   5.206000
    28  C    8.971269   8.046992   6.713940   6.219350   4.848890
    29  C    2.499309   2.745709   2.393788   1.389140   2.431385
    30  N    3.671952   4.086079   3.668849   2.459239   2.943087
    31  S    3.855655   4.743187   4.749159   3.780057   4.527057
    32  N    2.513942   3.682346   4.114563   3.581756   4.734017
    33  C    1.429371   2.379294   2.782685   2.437618   3.745152
    34  H    5.537568   5.310702   6.418032   7.620374   8.776799
    35  H    3.363476   2.837654   3.892420   5.116676   6.250409
    36  H    4.892927   6.022605   7.271720   7.648863   9.050040
    37  H    2.186377   1.079629   1.985742   3.230867   4.345090
    38  H    5.341934   5.207422   4.231248   2.918663   2.185769
    39  H    7.365668   6.855282   5.615049   4.594891   3.267624
    40  H    7.342949   6.102891   4.923687   5.137570   4.245169
    41  H    9.691211   8.415450   7.279646   7.506306   6.535398
    42  H   11.492691  10.330279   9.078957   8.989214   7.774257
    43  H   12.260215  11.325809   9.995281   9.497464   8.112631
    44  H    9.117004   8.491431   7.198977   6.312996   4.929394
                   16         17         18         19         20
    16  C    0.000000
    17  C    1.393614   0.000000
    18  C    2.296187   1.374378   0.000000
    19  S    2.549893   2.544210   1.683415   0.000000
    20  C    3.696232   2.558584   1.425261   2.635344   0.000000
    21  C    4.785103   3.841514   2.524964   2.989696   1.426461
    22  C    6.122715   5.062420   3.829947   4.397934   2.508600
    23  C    6.652557   5.414510   4.402347   5.360355   2.977161
    24  C    5.853073   4.515539   3.773463   5.080312   2.457435
    25  C    6.496664   5.110324   4.679878   6.161457   3.550968
    26  O    5.797759   4.431317   4.367948   5.998304   3.593107
    27  C    4.456469   3.083565   3.053200   4.709640   2.504215
    28  C    4.451025   3.105432   2.467862   3.948836   1.384240
    29  C    2.999662   4.352679   4.806325   3.926279   6.194558
    30  N    2.876083   4.254196   5.062542   4.605877   6.487726
    31  S    4.495308   5.858639   6.695875   6.163759   8.121079
    32  N    5.153414   6.542013   7.100651   6.191585   8.495615
    33  C    4.452666   5.790534   6.138583   5.045209   7.485582
    34  H   10.085098  10.965483  10.442765   8.763509  11.202820
    35  H    7.563291   8.442783   7.962813   6.293289   8.801750
    36  H    9.889605  11.204743  11.389692  10.027744  12.633328
    37  H    5.657376   6.550745   6.144810   4.505688   7.089746
    38  H    1.079949   2.178392   3.315228   3.597151   4.672823
    39  H    2.140304   1.072299   2.203204   3.593182   2.997854
    40  H    4.835135   4.168021   2.799413   2.596992   2.193405
    41  H    6.919063   5.966944   4.664919   4.924833   3.457526
    42  H    7.725020   6.474559   5.477770   6.397931   4.052589
    43  H    7.553566   6.165890   5.753340   7.216663   4.595650
    44  H    3.956218   2.692837   3.137671   4.788624   3.073660
                   21         22         23         24         25
    21  C    0.000000
    22  C    1.415606   0.000000
    23  C    2.480686   1.408252   0.000000
    24  C    2.702143   2.322631   1.392618   0.000000
    25  C    4.040622   3.645715   2.478019   1.364662   0.000000
    26  O    4.506764   4.511080   3.593061   2.238994   1.364239
    27  C    3.680128   4.087127   3.582737   2.234122   2.189925
    28  C    2.337110   2.748322   2.495061   1.412312   2.223582
    29  C    6.881070   8.296399   9.135488   8.576202   9.380604
    30  N    7.398030   8.795126   9.464573   8.724427   9.356958
    31  S    9.011035  10.413792  11.098015  10.348249  10.946222
    32  N    9.165023  10.579713  11.438006  10.864300  11.625712
    33  C    8.029275   9.436081  10.373757   9.907582  10.769671
    34  H   10.802327  11.814586  13.174078  13.444771  14.699738
    35  H    8.536533   9.660362  10.972014  11.116868  12.331195
    36  H   12.886436  14.219301  15.345587  15.088856  16.065330
    37  H    7.002797   8.239356   9.476732   9.475951  10.635179
    38  H    5.830016   7.141253   7.583894   6.682045   7.180595
    39  H    4.399019   5.447098   5.531475   4.428021   4.739618
    40  H    1.093475   2.130398   3.426853   3.792513   5.134051
    41  H    2.140343   1.089642   2.172365   3.336754   4.601970
    42  H    3.461353   2.183013   1.075494   2.198929   2.863803
    43  H    4.951560   4.335241   2.999884   2.256173   1.074993
    44  H    4.414864   5.026656   4.638479   3.307794   3.169613
                   26         27         28         29         30
    26  O    0.000000
    27  C    1.360837   0.000000
    28  C    2.236855   1.374408   0.000000
    29  C    8.774595   7.421402   7.230291   0.000000
    30  N    8.577506   7.267117   7.325874   1.345197   0.000000
    31  S   10.113835   8.827671   8.945692   2.408853   1.633543
    32  N   10.943085   9.606215   9.504305   2.302809   2.475065
    33  C   10.207788   8.850718   8.592430   1.458001   2.353011
    34  H   14.728099  13.465768  12.581091   7.911797   9.179798
    35  H   12.283393  10.998950  10.172653   5.533406   6.847830
    36  H   15.599274  14.238565  13.853086   6.900182   7.547570
    37  H   10.497150   9.188555   8.440632   3.815575   5.159029
    38  H    6.326868   5.044304   5.270024   2.885307   2.283318
    39  H    3.833822   2.582855   3.063550   5.120583   4.777869
    40  H    5.562647   4.643484   3.352087   6.487085   7.183375
    41  H    5.559515   5.176473   3.834978   8.843300   9.466268
    42  H    4.161751   4.427633   3.486930  10.201931  10.540014
    43  H    2.060659   3.174361   3.292271  10.451028  10.404994
    44  H    2.045762   1.078489   2.282994   6.947239   6.623768
                   31         32         33         34         35
    31  S    0.000000
    32  N    1.635783   0.000000
    33  C    2.443274   1.346668   0.000000
    34  H    9.309704   7.770529   6.954330   0.000000
    35  H    7.218242   5.823595   4.781311   2.526658   0.000000
    36  H    6.639225   5.128830   5.442191   5.739512   5.619588
    37  H    5.802199   4.652148   3.399570   4.432844   1.907758
    38  H    3.788934   4.736186   4.309042  10.517603   8.028077
    39  H    6.299536   7.187379   6.577586  12.014072   9.488950
    40  H    8.748031   8.713354   7.501379   9.770292   7.557552
    41  H   11.059436  11.085884   9.879751  11.582506   9.573120
    42  H   12.173468  12.503817  11.426559  13.968035  11.837314
    43  H   11.984615  12.690374  11.842901  15.689208  13.345946
    44  H    8.122293   9.034123   8.399282  13.493210  10.989194
                   36         37         38         39         40
    36  H    0.000000
    37  H    6.164638   0.000000
    38  H    9.712372   6.149259   0.000000
    39  H   12.018555   7.590176   2.515288   0.000000
    40  H   12.121627   6.114141   5.912848   4.919884   0.000000
    41  H   14.414951   8.316973   7.968949   6.440859   2.379466
    42  H   16.344809  10.409723   8.647767   6.542289   4.309381
    43  H   17.138163  11.673641   8.207937   5.740385   6.036664
    44  H   13.830369   9.127981   4.352674   1.913373   5.264792
                   41         42         43         44
    41  H    0.000000
    42  H    2.535534   0.000000
    43  H    5.170015   3.004375   0.000000
    44  H    6.110000   5.502554   4.065147   0.000000
 Stoichiometry    C23H13N3OS3Si
 Framework group  C1[X(C23H13N3OS3Si)]
 Deg. of freedom   126
 Full point group                 C1      NOp   1
 Largest Abelian subgroup         C1      NOp   1
 Largest concise Abelian subgroup C1      NOp   1
                         Standard orientation:                         
 ---------------------------------------------------------------------
 Center     Atomic      Atomic             Coordinates (Angstroms)
 Number     Number       Type             X           Y           Z
 ---------------------------------------------------------------------
      1         14           0       -7.263537   -2.495855    0.070523
      2          1           0       -8.019994   -2.484116   -1.200202
      3          1           0       -7.985657   -2.436318    1.359472
      4          6           0       -5.664117   -3.463435    0.074820
      5          6           0       -4.604851   -2.649561    0.053857
      6          6           0       -4.924561   -1.235464    0.027125
      7          6           0       -6.311326   -0.943640    0.031539
      8          6           0       -6.669851    0.363988    0.009192
      9         16           0       -5.281138    1.301184   -0.026141
     10          6           0       -4.204970   -0.066649   -0.001758
     11          6           0       -2.783541    0.183215   -0.014026
     12          6           0       -1.851302   -0.848048   -0.015642
     13          7           0       -0.525240   -0.698549   -0.014261
     14          6           0        0.011067    0.541558   -0.014028
     15          6           0        1.415997    0.644100   -0.011059
     16          6           0        2.215853    1.750707   -0.025290
     17          6           0        3.559136    1.386633   -0.097431
     18          6           0        3.728157    0.023213   -0.059597
     19         16           0        2.260786   -0.798474    0.014818
     20          6           0        4.894587   -0.795666   -0.075288
     21          6           0        4.884511   -2.217972   -0.183614
     22          6           0        6.051934   -3.018636   -0.184942
     23          6           0        7.349547   -2.479843   -0.089681
     24          6           0        7.332668   -1.091005    0.011459
     25          6           0        8.396111   -0.245323    0.138793
     26          8           0        7.964401    1.044895    0.239358
     27          6           0        6.604275    1.011634    0.210595
     28          6           0        6.175594   -0.281351    0.027788
     29          6           0       -0.783003    1.681281   -0.027944
     30          7           0       -0.389998    2.967683   -0.044400
     31         16           0       -1.735758    3.893636   -0.045679
     32          7           0       -2.850075    2.696240   -0.027618
     33          6           0       -2.229801    1.500933   -0.023738
     34          1           0       -5.659943   -4.547402    0.096586
     35          1           0       -3.605163   -3.077543    0.059208
     36          1           0       -7.631856    0.842025    0.009235
     37          1           0       -2.108942   -1.896483   -0.017990
     38          1           0        1.885387    2.778846   -0.021921
     39          1           0        4.314600    2.143958   -0.171986
     40          1           0        3.938753   -2.760656   -0.265607
     41          1           0        5.908201   -4.095991   -0.262187
     42          1           0        8.231267   -3.095658   -0.084334
     43          1           0        9.462425   -0.369422    0.195228
     44          1           0        6.147498    1.978397    0.351529
 ---------------------------------------------------------------------
 Rotational constants (GHZ):      0.2868268      0.0452551      0.0391298
 Standard basis: 6-31++G(d,p) (6D, 7F)
 There are   683 symmetry adapted basis functions of A   symmetry.
 Integral buffers will be    131072 words long.
 Raffenetti 2 integral format.
 Two-electron integral symmetry is turned on.
   683 basis functions,  1192 primitive gaussians,   683 cartesian basis functions
   121 alpha electrons      121 beta electrons
       nuclear repulsion energy      3301.8295838363 Hartrees.
 NAtoms=   44 NActive=   44 NUniq=   44 SFac= 1.00D+00 NAtFMM=   60 NAOKFM=F Big=F
 One-electron integrals computed using PRISM.
 NBasis=   683 RedAO= T  NBF=   683
 NBsUse=   671 1.00D-06 NBFU=   671
 Harris functional with IExCor=  402 diagonalized for initial guess.
 ExpMin= 3.31D-02 ExpMax= 2.19D+04 ExpMxC= 3.30D+03 IAcc=3 IRadAn=         5 AccDes= 0.00D+00
 HarFok:  IExCor=  402 AccDes= 0.00D+00 IRadAn=         5 IDoV= 1
 ScaDFX=  1.000000  1.000000  1.000000  1.000000
 FoFCou: FMM=F IPFlag=           0 FMFlag=      100000 FMFlg1=           0
         NFxFlg=           0 DoJE=T BraDBF=F KetDBF=T FulRan=T
         Omega=  0.000000  0.000000  1.000000  0.000000  0.000000 ICntrl=     500 IOpCl=  0
         NMat0=    1 NMatS0=    1 NMatT0=    0 NMatD0=    1 NMtDS0=    0 NMtDT0=    0
         I1Cent=           4 NGrid=           0.
 Petite list used in FoFCou.
 Initial guess orbital symmetries:
       Occupied  (A) (A) (A) (A) (A) (A) (A) (A) (A) (A) (A) (A)
                 (A) (A) (A) (A) (A) (A) (A) (A) (A) (A) (A) (A)
                 (A) (A) (A) (A) (A) (A) (A) (A) (A) (A) (A) (A)
                 (A) (A) (A) (A) (A) (A) (A) (A) (A) (A) (A) (A)
                 (A) (A) (A) (A) (A) (A) (A) (A) (A) (A) (A) (A)
                 (A) (A) (A) (A) (A) (A) (A) (A) (A) (A) (A) (A)
                 (A) (A) (A) (A) (A) (A) (A) (A) (A) (A) (A) (A)
                 (A) (A) (A) (A) (A) (A) (A) (A) (A) (A) (A) (A)
                 (A) (A) (A) (A) (A) (A) (A) (A) (A) (A) (A) (A)
                 (A) (A) (A) (A) (A) (A) (A) (A) (A) (A) (A) (A)
                 (A)
       Virtual   (A) (A) (A) (A) (A) (A) (A) (A) (A) (A) (A) (A)
                 (A) (A) (A) (A) (A) (A) (A) (A) (A) (A) (A) (A)
                 (A) (A) (A) (A) (A) (A) (A) (A) (A) (A) (A) (A)
                 (A) (A) (A) (A) (A) (A) (A) (A) (A) (A) (A) (A)
                 (A) (A) (A) (A) (A) (A) (A) (A) (A) (A) (A) (A)
                 (A) (A) (A) (A) (A) (A) (A) (A) (A) (A) (A) (A)
                 (A) (A) (A) (A) (A) (A) (A) (A) (A) (A) (A) (A)
                 (A) (A) (A) (A) (A) (A) (A) (A) (A) (A) (A) (A)
                 (A) (A) (A) (A) (A) (A) (A) (A) (A) (A) (A) (A)
                 (A) (A) (A) (A) (A) (A) (A) (A) (A) (A) (A) (A)
                 (A) (A) (A) (A) (A) (A) (A) (A) (A) (A) (A) (A)
                 (A) (A) (A) (A) (A) (A) (A) (A) (A) (A) (A) (A)
                 (A) (A) (A) (A) (A) (A) (A) (A) (A) (A) (A) (A)
                 (A) (A) (A) (A) (A) (A) (A) (A) (A) (A) (A) (A)
                 (A) (A) (A) (A) (A) (A) (A) (A) (A) (A) (A) (A)
                 (A) (A) (A) (A) (A) (A) (A) (A) (A) (A) (A) (A)
                 (A) (A) (A) (A) (A) (A) (A) (A) (A) (A) (A) (A)
                 (A) (A) (A) (A) (A) (A) (A) (A) (A) (A) (A) (A)
                 (A) (A) (A) (A) (A) (A) (A) (A) (A) (A) (A) (A)
                 (A) (A) (A) (A) (A) (A) (A) (A) (A) (A) (A) (A)
                 (A) (A) (A) (A) (A) (A) (A) (A) (A) (A) (A) (A)
                 (A) (A) (A) (A) (A) (A) (A) (A) (A) (A) (A) (A)
                 (A) (A) (A) (A) (A) (A) (A) (A) (A) (A) (A) (A)
                 (A) (A) (A) (A) (A) (A) (A) (A) (A) (A) (A) (A)
                 (A) (A) (A) (A) (A) (A) (A) (A) (A) (A) (A) (A)
                 (A) (A) (A) (A) (A) (A) (A) (A) (A) (A) (A) (A)
                 (A) (A) (A) (A) (A) (A) (A) (A) (A) (A) (A) (A)
                 (A) (A) (A) (A) (A) (A) (A) (A) (A) (A) (A) (A)
                 (A) (A) (A) (A) (A) (A) (A) (A) (A) (A) (A) (A)
                 (A) (A) (A) (A) (A) (A) (A) (A) (A) (A) (A) (A)
                 (A) (A) (A) (A) (A) (A) (A) (A) (A) (A) (A) (A)
                 (A) (A) (A) (A) (A) (A) (A) (A) (A) (A) (A) (A)
                 (A) (A) (A) (A) (A) (A) (A) (A) (A) (A) (A) (A)
                 (A) (A) (A) (A) (A) (A) (A) (A) (A) (A) (A) (A)
                 (A) (A) (A) (A) (A) (A) (A) (A) (A) (A) (A) (A)
                 (A) (A) (A) (A) (A) (A) (A) (A) (A) (A) (A) (A)
                 (A) (A) (A) (A) (A) (A) (A) (A) (A) (A) (A) (A)
                 (A) (A) (A) (A) (A) (A) (A) (A) (A) (A) (A) (A)
                 (A) (A) (A) (A) (A) (A) (A) (A) (A) (A) (A) (A)
                 (A) (A) (A) (A) (A) (A) (A) (A) (A) (A) (A) (A)
                 (A) (A) (A) (A) (A) (A) (A) (A) (A) (A) (A) (A)
                 (A) (A) (A) (A) (A) (A) (A) (A) (A) (A) (A) (A)
                 (A) (A) (A) (A) (A) (A) (A) (A) (A) (A) (A) (A)
                 (A) (A) (A) (A) (A) (A) (A) (A) (A) (A) (A) (A)
                 (A) (A) (A) (A) (A) (A) (A) (A) (A) (A) (A) (A)
                 (A) (A) (A) (A) (A) (A) (A) (A) (A) (A)
 The electronic state of the initial guess is 1-A.
 Requested convergence on RMS density matrix=1.00D-08 within 128 cycles.
 Requested convergence on MAX density matrix=1.00D-06.
 Requested convergence on             energy=1.00D-06.
 No special actions if energy rises.
 EnCoef did     2 forward-backward iterations
 EnCoef did   100 forward-backward iterations
 EnCoef did     5 forward-backward iterations
 Restarting incremental Fock formation.
 SCF Done:  E(RB3LYP) =  -2607.74197996     A.U. after   27 cycles
             Convg  =    0.6555D-08             -V/T =  2.0054

 **********************************************************************

            Population analysis using the SCF density.

 **********************************************************************

 Orbital symmetries:
       Occupied  (A) (A) (A) (A) (A) (A) (A) (A) (A) (A) (A) (A)
                 (A) (A) (A) (A) (A) (A) (A) (A) (A) (A) (A) (A)
                 (A) (A) (A) (A) (A) (A) (A) (A) (A) (A) (A) (A)
                 (A) (A) (A) (A) (A) (A) (A) (A) (A) (A) (A) (A)
                 (A) (A) (A) (A) (A) (A) (A) (A) (A) (A) (A) (A)
                 (A) (A) (A) (A) (A) (A) (A) (A) (A) (A) (A) (A)
                 (A) (A) (A) (A) (A) (A) (A) (A) (A) (A) (A) (A)
                 (A) (A) (A) (A) (A) (A) (A) (A) (A) (A) (A) (A)
                 (A) (A) (A) (A) (A) (A) (A) (A) (A) (A) (A) (A)
                 (A) (A) (A) (A) (A) (A) (A) (A) (A) (A) (A) (A)
                 (A)
       Virtual   (A) (A) (A) (A) (A) (A) (A) (A) (A) (A) (A) (A)
                 (A) (A) (A) (A) (A) (A) (A) (A) (A) (A) (A) (A)
                 (A) (A) (A) (A) (A) (A) (A) (A) (A) (A) (A) (A)
                 (A) (A) (A) (A) (A) (A) (A) (A) (A) (A) (A) (A)
                 (A) (A) (A) (A) (A) (A) (A) (A) (A) (A) (A) (A)
                 (A) (A) (A) (A) (A) (A) (A) (A) (A) (A) (A) (A)
                 (A) (A) (A) (A) (A) (A) (A) (A) (A) (A) (A) (A)
                 (A) (A) (A) (A) (A) (A) (A) (A) (A) (A) (A) (A)
                 (A) (A) (A) (A) (A) (A) (A) (A) (A) (A) (A) (A)
                 (A) (A) (A) (A) (A) (A) (A) (A) (A) (A) (A) (A)
                 (A) (A) (A) (A) (A) (A) (A) (A) (A) (A) (A) (A)
                 (A) (A) (A) (A) (A) (A) (A) (A) (A) (A) (A) (A)
                 (A) (A) (A) (A) (A) (A) (A) (A) (A) (A) (A) (A)
                 (A) (A) (A) (A) (A) (A) (A) (A) (A) (A) (A) (A)
                 (A) (A) (A) (A) (A) (A) (A) (A) (A) (A) (A) (A)
                 (A) (A) (A) (A) (A) (A) (A) (A) (A) (A) (A) (A)
                 (A) (A) (A) (A) (A) (A) (A) (A) (A) (A) (A) (A)
                 (A) (A) (A) (A) (A) (A) (A) (A) (A) (A) (A) (A)
                 (A) (A) (A) (A) (A) (A) (A) (A) (A) (A) (A) (A)
                 (A) (A) (A) (A) (A) (A) (A) (A) (A) (A) (A) (A)
                 (A) (A) (A) (A) (A) (A) (A) (A) (A) (A) (A) (A)
                 (A) (A) (A) (A) (A) (A) (A) (A) (A) (A) (A) (A)
                 (A) (A) (A) (A) (A) (A) (A) (A) (A) (A) (A) (A)
                 (A) (A) (A) (A) (A) (A) (A) (A) (A) (A) (A) (A)
                 (A) (A) (A) (A) (A) (A) (A) (A) (A) (A) (A) (A)
                 (A) (A) (A) (A) (A) (A) (A) (A) (A) (A) (A) (A)
                 (A) (A) (A) (A) (A) (A) (A) (A) (A) (A) (A) (A)
                 (A) (A) (A) (A) (A) (A) (A) (A) (A) (A) (A) (A)
                 (A) (A) (A) (A) (A) (A) (A) (A) (A) (A) (A) (A)
                 (A) (A) (A) (A) (A) (A) (A) (A) (A) (A) (A) (A)
                 (A) (A) (A) (A) (A) (A) (A) (A) (A) (A) (A) (A)
                 (A) (A) (A) (A) (A) (A) (A) (A) (A) (A) (A) (A)
                 (A) (A) (A) (A) (A) (A) (A) (A) (A) (A) (A) (A)
                 (A) (A) (A) (A) (A) (A) (A) (A) (A) (A) (A) (A)
                 (A) (A) (A) (A) (A) (A) (A) (A) (A) (A) (A) (A)
                 (A) (A) (A) (A) (A) (A) (A) (A) (A) (A) (A) (A)
                 (A) (A) (A) (A) (A) (A) (A) (A) (A) (A) (A) (A)
                 (A) (A) (A) (A) (A) (A) (A) (A) (A) (A) (A) (A)
                 (A) (A) (A) (A) (A) (A) (A) (A) (A) (A) (A) (A)
                 (A) (A) (A) (A) (A) (A) (A) (A) (A) (A) (A) (A)
                 (A) (A) (A) (A) (A) (A) (A) (A) (A) (A) (A) (A)
                 (A) (A) (A) (A) (A) (A) (A) (A) (A) (A) (A) (A)
                 (A) (A) (A) (A) (A) (A) (A) (A) (A) (A) (A) (A)
                 (A) (A) (A) (A) (A) (A) (A) (A) (A) (A) (A) (A)
                 (A) (A) (A) (A) (A) (A) (A) (A) (A) (A) (A) (A)
                 (A) (A) (A) (A) (A) (A) (A) (A) (A) (A)
 The electronic state is 1-A.
 Alpha  occ. eigenvalues --  -88.99942 -88.91204 -88.90894 -66.12691 -19.24034
 Alpha  occ. eigenvalues --  -14.39106 -14.38622 -14.35192 -10.26464 -10.25793
 Alpha  occ. eigenvalues --  -10.25233 -10.24409 -10.24392 -10.23970 -10.23291
 Alpha  occ. eigenvalues --  -10.23251 -10.22865 -10.22014 -10.21898 -10.21818
 Alpha  occ. eigenvalues --  -10.21524 -10.20909 -10.20714 -10.20706 -10.20597
 Alpha  occ. eigenvalues --  -10.20221 -10.20128 -10.20095 -10.19879 -10.18893
 Alpha  occ. eigenvalues --  -10.17177  -8.05190  -7.97398  -7.96937  -6.01756
 Alpha  occ. eigenvalues --   -6.01160  -6.00963  -5.93800  -5.93405  -5.93358
 Alpha  occ. eigenvalues --   -5.93110  -5.92926  -5.92671  -5.27776  -3.63665
 Alpha  occ. eigenvalues --   -3.63592  -3.63562  -1.12800  -1.03890  -0.96746
 Alpha  occ. eigenvalues --   -0.92087  -0.91159  -0.90023  -0.88007  -0.82790
 Alpha  occ. eigenvalues --   -0.81944  -0.81718  -0.79715  -0.78698  -0.76223
 Alpha  occ. eigenvalues --   -0.75767  -0.73210  -0.71853  -0.71219  -0.68802
 Alpha  occ. eigenvalues --   -0.65994  -0.65173  -0.62964  -0.62074  -0.61288
 Alpha  occ. eigenvalues --   -0.59934  -0.57889  -0.57880  -0.56456  -0.54464
 Alpha  occ. eigenvalues --   -0.54147  -0.53284  -0.52512  -0.51419  -0.51096
 Alpha  occ. eigenvalues --   -0.49256  -0.48518  -0.47641  -0.47616  -0.46896
 Alpha  occ. eigenvalues --   -0.45985  -0.44708  -0.44557  -0.43213  -0.42636
 Alpha  occ. eigenvalues --   -0.42537  -0.42415  -0.41806  -0.41384  -0.40572
 Alpha  occ. eigenvalues --   -0.40431  -0.39743  -0.39424  -0.38787  -0.37719
 Alpha  occ. eigenvalues --   -0.37537  -0.36835  -0.36808  -0.36497  -0.34945
 Alpha  occ. eigenvalues --   -0.34891  -0.33423  -0.33014  -0.31927  -0.31536
 Alpha  occ. eigenvalues --   -0.31201  -0.30188  -0.28734  -0.28704  -0.28027
 Alpha  occ. eigenvalues --   -0.27596  -0.26386  -0.24991  -0.23684  -0.21228
 Alpha  occ. eigenvalues --   -0.19101
 Alpha virt. eigenvalues --   -0.12116  -0.07738  -0.05553  -0.03607  -0.02200
 Alpha virt. eigenvalues --   -0.02034  -0.01152  -0.00998  -0.00624  -0.00344
 Alpha virt. eigenvalues --    0.00045   0.00488   0.00770   0.01123   0.01182
 Alpha virt. eigenvalues --    0.01405   0.01596   0.01810   0.02429   0.02808
 Alpha virt. eigenvalues --    0.03010   0.03234   0.03518   0.03560   0.03827
 Alpha virt. eigenvalues --    0.04348   0.04442   0.04812   0.05263   0.05294
 Alpha virt. eigenvalues --    0.05519   0.05720   0.06215   0.06267   0.06520
 Alpha virt. eigenvalues --    0.06851   0.07519   0.07737   0.07963   0.08096
 Alpha virt. eigenvalues --    0.08310   0.08630   0.08785   0.09130   0.09400
 Alpha virt. eigenvalues --    0.09822   0.10205   0.10416   0.10600   0.10666
 Alpha virt. eigenvalues --    0.10929   0.11122   0.11256   0.11448   0.11511
 Alpha virt. eigenvalues --    0.11988   0.12101   0.12240   0.12483   0.12652
 Alpha virt. eigenvalues --    0.12863   0.13153   0.13217   0.13321   0.13490
 Alpha virt. eigenvalues --    0.13659   0.13799   0.14238   0.14359   0.14542
 Alpha virt. eigenvalues --    0.14862   0.15035   0.15670   0.15710   0.16004
 Alpha virt. eigenvalues --    0.16088   0.16439   0.16632   0.16792   0.17020
 Alpha virt. eigenvalues --    0.17168   0.17497   0.17535   0.17716   0.17947
 Alpha virt. eigenvalues --    0.18092   0.18361   0.18543   0.18771   0.18971
 Alpha virt. eigenvalues --    0.19135   0.19403   0.19721   0.20019   0.20079
 Alpha virt. eigenvalues --    0.20605   0.20721   0.20905   0.21180   0.21482
 Alpha virt. eigenvalues --    0.21693   0.21968   0.22178   0.22292   0.22763
 Alpha virt. eigenvalues --    0.23137   0.23164   0.23472   0.23675   0.23793
 Alpha virt. eigenvalues --    0.24204   0.24245   0.24528   0.24633   0.25031
 Alpha virt. eigenvalues --    0.25127   0.25227   0.25247   0.25523   0.25667
 Alpha virt. eigenvalues --    0.26236   0.26378   0.27007   0.27268   0.27491
 Alpha virt. eigenvalues --    0.27726   0.27826   0.27865   0.28105   0.28477
 Alpha virt. eigenvalues --    0.28810   0.29032   0.29285   0.29394   0.29687
 Alpha virt. eigenvalues --    0.30010   0.30164   0.30548   0.30936   0.31124
 Alpha virt. eigenvalues --    0.31227   0.31564   0.31892   0.32540   0.32864
 Alpha virt. eigenvalues --    0.33059   0.33326   0.33839   0.34204   0.34398
 Alpha virt. eigenvalues --    0.35023   0.35350   0.35381   0.35915   0.36123
 Alpha virt. eigenvalues --    0.36159   0.36790   0.37146   0.37287   0.37499
 Alpha virt. eigenvalues --    0.38381   0.39050   0.39150   0.39374   0.39731
 Alpha virt. eigenvalues --    0.40242   0.40738   0.41204   0.41828   0.42274
 Alpha virt. eigenvalues --    0.43102   0.43246   0.43763   0.44597   0.45200
 Alpha virt. eigenvalues --    0.45548   0.47116   0.47860   0.48597   0.48785
 Alpha virt. eigenvalues --    0.50249   0.50417   0.50764   0.51390   0.51742
 Alpha virt. eigenvalues --    0.52491   0.53190   0.53656   0.53884   0.54423
 Alpha virt. eigenvalues --    0.56225   0.56910   0.58624   0.59039   0.60150
 Alpha virt. eigenvalues --    0.60985   0.61742   0.62259   0.63700   0.64240
 Alpha virt. eigenvalues --    0.64895   0.64987   0.65862   0.66493   0.66874
 Alpha virt. eigenvalues --    0.67088   0.67598   0.68033   0.68170   0.68220
 Alpha virt. eigenvalues --    0.68951   0.69065   0.69765   0.70173   0.70698
 Alpha virt. eigenvalues --    0.71067   0.71270   0.71497   0.72351   0.72664
 Alpha virt. eigenvalues --    0.73095   0.73294   0.73842   0.74032   0.74935
 Alpha virt. eigenvalues --    0.75249   0.75580   0.75896   0.76140   0.77202
 Alpha virt. eigenvalues --    0.77701   0.77843   0.78124   0.78690   0.78761
 Alpha virt. eigenvalues --    0.79580   0.80202   0.80978   0.81406   0.81465
 Alpha virt. eigenvalues --    0.81924   0.82684   0.83035   0.83344   0.84132
 Alpha virt. eigenvalues --    0.84175   0.86068   0.86834   0.87305   0.88965
 Alpha virt. eigenvalues --    0.89185   0.89467   0.90099   0.91665   0.92144
 Alpha virt. eigenvalues --    0.93012   0.93887   0.94231   0.94640   0.94809
 Alpha virt. eigenvalues --    0.95313   0.95712   0.96153   0.96623   0.97732
 Alpha virt. eigenvalues --    0.98339   0.99326   0.99927   1.00312   1.01022
 Alpha virt. eigenvalues --    1.01248   1.01489   1.01863   1.02513   1.03646
 Alpha virt. eigenvalues --    1.04224   1.05287   1.06249   1.06641   1.06953
 Alpha virt. eigenvalues --    1.07652   1.08021   1.09720   1.09884   1.10503
 Alpha virt. eigenvalues --    1.11625   1.11852   1.12558   1.13138   1.14428
 Alpha virt. eigenvalues --    1.14670   1.15201   1.16085   1.16351   1.16677
 Alpha virt. eigenvalues --    1.17255   1.17547   1.18114   1.18705   1.20293
 Alpha virt. eigenvalues --    1.20459   1.20789   1.21092   1.21636   1.22200
 Alpha virt. eigenvalues --    1.22680   1.23390   1.23920   1.24881   1.25227
 Alpha virt. eigenvalues --    1.25895   1.26344   1.26385   1.27469   1.28016
 Alpha virt. eigenvalues --    1.28638   1.29436   1.29562   1.30253   1.31530
 Alpha virt. eigenvalues --    1.32149   1.32291   1.32776   1.33176   1.34260
 Alpha virt. eigenvalues --    1.34465   1.34828   1.35115   1.35781   1.37681
 Alpha virt. eigenvalues --    1.38172   1.38252   1.38814   1.39263   1.39593
 Alpha virt. eigenvalues --    1.39717   1.40891   1.41584   1.43353   1.43749
 Alpha virt. eigenvalues --    1.44845   1.45887   1.46431   1.47526   1.48978
 Alpha virt. eigenvalues --    1.49611   1.50396   1.51255   1.51431   1.53228
 Alpha virt. eigenvalues --    1.54679   1.54765   1.55946   1.56381   1.57961
 Alpha virt. eigenvalues --    1.59248   1.60099   1.63012   1.64694   1.67607
 Alpha virt. eigenvalues --    1.67788   1.68384   1.70087   1.71910   1.73930
 Alpha virt. eigenvalues --    1.74826   1.75438   1.77583   1.77966   1.80266
 Alpha virt. eigenvalues --    1.80446   1.80930   1.81410   1.82362   1.82821
 Alpha virt. eigenvalues --    1.84107   1.85297   1.85531   1.87040   1.87924
 Alpha virt. eigenvalues --    1.88409   1.89396   1.90480   1.91027   1.91230
 Alpha virt. eigenvalues --    1.92401   1.94084   1.95055   1.95699   1.96338
 Alpha virt. eigenvalues --    1.96573   1.97103   1.98377   1.99012   1.99702
 Alpha virt. eigenvalues --    2.01437   2.02008   2.03133   2.04848   2.06170
 Alpha virt. eigenvalues --    2.06595   2.06910   2.09074   2.09290   2.09718
 Alpha virt. eigenvalues --    2.11193   2.13531   2.13677   2.13740   2.15622
 Alpha virt. eigenvalues --    2.15877   2.16429   2.17355   2.18522   2.18611
 Alpha virt. eigenvalues --    2.19135   2.21361   2.23855   2.24409   2.24760
 Alpha virt. eigenvalues --    2.26105   2.27308   2.28112   2.28336   2.28608
 Alpha virt. eigenvalues --    2.29195   2.30970   2.31622   2.32749   2.32859
 Alpha virt. eigenvalues --    2.33814   2.34600   2.35474   2.36268   2.36848
 Alpha virt. eigenvalues --    2.37190   2.38906   2.39551   2.39927   2.40741
 Alpha virt. eigenvalues --    2.42775   2.43192   2.43920   2.44561   2.45553
 Alpha virt. eigenvalues --    2.46012   2.46918   2.48106   2.48241   2.48936
 Alpha virt. eigenvalues --    2.49747   2.51171   2.51517   2.52039   2.53531
 Alpha virt. eigenvalues --    2.53839   2.55676   2.57007   2.58041   2.58912
 Alpha virt. eigenvalues --    2.59488   2.59627   2.60976   2.62920   2.63520
 Alpha virt. eigenvalues --    2.64299   2.65486   2.65959   2.66900   2.67417
 Alpha virt. eigenvalues --    2.68145   2.68826   2.70245   2.71312   2.71451
 Alpha virt. eigenvalues --    2.71691   2.73560   2.74243   2.76703   2.78609
 Alpha virt. eigenvalues --    2.79216   2.80050   2.80117   2.83229   2.84332
 Alpha virt. eigenvalues --    2.85324   2.87497   2.89715   2.90776   2.91596
 Alpha virt. eigenvalues --    2.94968   2.97224   2.99275   3.00490   3.01473
 Alpha virt. eigenvalues --    3.03458   3.03953   3.06925   3.08728   3.09166
 Alpha virt. eigenvalues --    3.13451   3.15575   3.16956   3.19343   3.24748
 Alpha virt. eigenvalues --    3.25252   3.29484   3.33239   3.33528   3.35027
 Alpha virt. eigenvalues --    3.39016   3.42317   3.45204   3.51311   3.60492
 Alpha virt. eigenvalues --    3.62952   3.67029   3.68663   3.74920   3.82223
 Alpha virt. eigenvalues --    3.96229   4.02491   4.03107   4.17026   4.25533
 Alpha virt. eigenvalues --    4.28871   4.30710   4.32541   4.32738   4.33355
 Alpha virt. eigenvalues --    4.35903   4.36941   4.38006   4.38660   4.40003
 Alpha virt. eigenvalues --    4.41465   4.41676   4.46165   4.48884   4.52187
 Alpha virt. eigenvalues --    4.56840   4.58081   4.59282   4.62082   4.65916
 Alpha virt. eigenvalues --    4.70311   4.72821   4.77241   4.87944   4.96738
          Condensed to atoms (all electrons):
              1          2          3          4          5          6
     1  Si  12.518692   0.352847   0.345904   0.017859   0.255875   0.240285
     2  H    0.352847   0.790829  -0.039298  -0.039200  -0.003409   0.091684
     3  H    0.345904  -0.039298   0.788819  -0.017446   0.008556   0.040960
     4  C    0.017859  -0.039200  -0.017446   8.177760  -0.734432  -1.967732
     5  C    0.255875  -0.003409   0.008556  -0.734432  12.525858  -3.107637
     6  C    0.240285   0.091684   0.040960  -1.967732  -3.107637  16.054181
     7  C   -0.524126  -0.058696  -0.050250   2.722643  -5.552965  -2.475812
     8  C   -0.198326  -0.012186   0.010248  -0.297979   0.183641  -1.171725
     9  S   -0.133835   0.007664   0.015144   0.382095   0.543152  -0.694479
    10  C    0.279055   0.015307   0.004043  -1.225856   2.442416  -0.155556
    11  C    0.046913  -0.000219  -0.001184  -0.058410   1.291820  -1.192331
    12  C    0.058887  -0.000661  -0.003066  -0.784180  -0.085591  -0.802423
    13  N    0.001592  -0.000055  -0.000035   0.002514  -0.012135  -0.021439
    14  C    0.003366   0.000222  -0.000027  -0.047083  -0.902698   0.495018
    15  C   -0.003191   0.000052   0.000092   0.007655  -0.020737   0.307332
    16  C   -0.000670   0.000014   0.000020  -0.003179   0.026172   0.042871
    17  C   -0.000127   0.000001   0.000002  -0.000198   0.009202   0.025451
    18  C   -0.000110   0.000001   0.000001   0.001452   0.011108   0.005031
    19  S    0.000145  -0.000005  -0.000014   0.004870  -0.019257   0.011243
    20  C   -0.000006   0.000000   0.000000  -0.000084  -0.000761   0.001757
    21  C   -0.000014   0.000000   0.000000  -0.000037   0.000065   0.001677
    22  C   -0.000003   0.000000   0.000000  -0.000014  -0.000101   0.000335
    23  C   -0.000000  -0.000000   0.000000  -0.000003  -0.000012   0.000007
    24  C    0.000000  -0.000000  -0.000000   0.000002   0.000027  -0.000017
    25  C    0.000000   0.000000  -0.000000   0.000000   0.000003  -0.000001
    26  O   -0.000000   0.000000   0.000000   0.000000  -0.000000  -0.000000
    27  C   -0.000000   0.000000   0.000000  -0.000001  -0.000023   0.000051
    28  C   -0.000002   0.000000   0.000000   0.000022   0.000207   0.000397
    29  C   -0.010151   0.000470   0.000522   0.014695   0.067871  -0.119590
    30  N   -0.000034  -0.000006  -0.000001  -0.000341   0.012479  -0.000310
    31  S   -0.000883   0.000025   0.000029  -0.000544   0.001869  -0.000335
    32  N   -0.003899   0.000181   0.000226   0.006514   0.076807  -0.068151
    33  C    0.001240  -0.000809  -0.000991  -0.047845  -1.077923   0.710019
    34  H   -0.042384   0.001462   0.000736   0.342323  -0.118303   0.046192
    35  H    0.012364  -0.002832  -0.001318   0.283365   0.379631  -0.371329
    36  H   -0.000538  -0.000335  -0.001244  -0.029700   0.028301   0.048617
    37  H   -0.001175  -0.000014  -0.000133  -0.114282  -0.118521   0.092012
    38  H    0.000019   0.000000  -0.000001   0.000024  -0.001273   0.000850
    39  H   -0.000001  -0.000000   0.000000  -0.000007   0.000092   0.000212
    40  H   -0.000000  -0.000000  -0.000000   0.000017   0.000504   0.000138
    41  H   -0.000000   0.000000   0.000000   0.000002  -0.000006  -0.000002
    42  H   -0.000000  -0.000000   0.000000  -0.000000  -0.000000   0.000000
    43  H   -0.000000   0.000000  -0.000000   0.000000   0.000000  -0.000000
    44  H    0.000000   0.000000  -0.000000   0.000001  -0.000005  -0.000017
              7          8          9         10         11         12
     1  Si  -0.524126  -0.198326  -0.133835   0.279055   0.046913   0.058887
     2  H   -0.058696  -0.012186   0.007664   0.015307  -0.000219  -0.000661
     3  H   -0.050250   0.010248   0.015144   0.004043  -0.001184  -0.003066
     4  C    2.722643  -0.297979   0.382095  -1.225856  -0.058410  -0.784180
     5  C   -5.552965   0.183641   0.543152   2.442416   1.291820  -0.085591
     6  C   -2.475812  -1.171725  -0.694479  -0.155556  -1.192331  -0.802423
     7  C   28.029917  -7.183609   2.837350  -6.861090  -3.556855  -2.100505
     8  C   -7.183609  13.478228  -2.784880   1.104763   1.298683   1.035879
     9  S    2.837350  -2.784880  17.982884  -0.724854  -0.529640  -0.489553
    10  C   -6.861090   1.104763  -0.724854  11.542677   1.332394  -0.824376
    11  C   -3.556855   1.298683  -0.529640   1.332394  11.863936  -2.330646
    12  C   -2.100505   1.035879  -0.489553  -0.824376  -2.330646  13.859240
    13  N   -0.012216  -0.000212   0.013351   0.050708   0.114390  -0.070525
    14  C    0.106294  -0.227595  -0.191097   0.434905   0.011584  -3.987526
    15  C    0.150076  -0.048130   0.017315   0.078408   0.800689  -1.759506
    16  C    0.022651  -0.005916  -0.038546   0.095406  -0.070994   0.237426
    17  C    0.005898  -0.000878  -0.010430   0.032997   0.040230   0.502615
    18  C    0.002591  -0.001143   0.005320   0.010004   0.143395  -0.093555
    19  S   -0.000252  -0.002481   0.015129  -0.018625  -0.029068  -0.159691
    20  C    0.000273  -0.000055  -0.000511   0.000800   0.002987  -0.020728
    21  C    0.000287  -0.000037  -0.000055   0.000161   0.008826   0.038071
    22  C    0.000031  -0.000004  -0.000010   0.000028   0.001888   0.005759
    23  C    0.000001   0.000000  -0.000002  -0.000055  -0.000754  -0.000244
    24  C   -0.000000   0.000000   0.000004   0.000036   0.000310   0.001511
    25  C    0.000000  -0.000000   0.000001   0.000008   0.000143   0.000421
    26  O   -0.000000  -0.000000   0.000000  -0.000000  -0.000001  -0.000009
    27  C    0.000003  -0.000001  -0.000022   0.000169   0.001830  -0.000207
    28  C    0.000051  -0.000010   0.000077   0.000400   0.007612   0.012728
    29  C    0.501210  -0.302063   0.106662   0.017445  -1.935036   1.400977
    30  N   -0.020009   0.016890   0.026921  -0.075064   0.087216   0.116260
    31  S    0.014387  -0.027683   0.030449   0.002991  -0.160770   0.017964
    32  N   -0.086694   0.003305   0.125139  -0.187811   0.001344  -0.009495
    33  C    1.082311   0.174387  -0.569030  -1.122136  -1.130678   1.764483
    34  H    0.132368  -0.000830   0.001160  -0.036250  -0.011123  -0.002940
    35  H    0.425973  -0.040357   0.039301  -0.252692  -0.001810  -0.127766
    36  H   -0.454534   0.619408  -0.123681   0.110597   0.049864   0.025896
    37  H   -0.113333   0.062184  -0.071195  -0.085076  -0.415752   0.668048
    38  H    0.000503  -0.000532  -0.001428   0.005162   0.011957  -0.035600
    39  H    0.000031   0.000024  -0.000049  -0.001003  -0.004058   0.010872
    40  H    0.000097  -0.000005   0.000043   0.000397   0.005115   0.015017
    41  H   -0.000001  -0.000000   0.000000   0.000004  -0.000039  -0.000513
    42  H    0.000000   0.000000  -0.000000  -0.000001  -0.000008  -0.000004
    43  H    0.000000  -0.000000   0.000000   0.000000   0.000002   0.000004
    44  H   -0.000002  -0.000001   0.000006   0.000063   0.000217  -0.001103
             13         14         15         16         17         18
     1  Si   0.001592   0.003366  -0.003191  -0.000670  -0.000127  -0.000110
     2  H   -0.000055   0.000222   0.000052   0.000014   0.000001   0.000001
     3  H   -0.000035  -0.000027   0.000092   0.000020   0.000002   0.000001
     4  C    0.002514  -0.047083   0.007655  -0.003179  -0.000198   0.001452
     5  C   -0.012135  -0.902698  -0.020737   0.026172   0.009202   0.011108
     6  C   -0.021439   0.495018   0.307332   0.042871   0.025451   0.005031
     7  C   -0.012216   0.106294   0.150076   0.022651   0.005898   0.002591
     8  C   -0.000212  -0.227595  -0.048130  -0.005916  -0.000878  -0.001143
     9  S    0.013351  -0.191097   0.017315  -0.038546  -0.010430   0.005320
    10  C    0.050708   0.434905   0.078408   0.095406   0.032997   0.010004
    11  C    0.114390   0.011584   0.800689  -0.070994   0.040230   0.143395
    12  C   -0.070525  -3.987526  -1.759506   0.237426   0.502615  -0.093555
    13  N    7.192952   0.292453  -0.258719  -0.089587  -0.106557  -0.026103
    14  C    0.292453  14.494781   1.521832  -1.496463  -1.717997  -0.320562
    15  C   -0.258719   1.521832  20.881394   2.905249  -8.939238  -6.654899
    16  C   -0.089587  -1.496463   2.905249  11.207858  -1.373522  -3.499910
    17  C   -0.106557  -1.717997  -8.939238  -1.373522  15.526955   3.966175
    18  C   -0.026103  -0.320562  -6.654899  -3.499910   3.966175  14.998292
    19  S    0.334531   0.550519   1.595723  -0.740560  -1.893014  -0.347447
    20  C    0.001632  -0.172735   0.761523  -0.470278  -0.397122   0.874461
    21  C    0.005268  -0.280714  -0.981723  -0.592785   0.093090  -0.102692
    22  C    0.004430  -0.066398  -0.081267   0.013114   0.103706  -0.888794
    23  C   -0.001073   0.002771   0.046060  -0.102717   0.033103   0.225032
    24  C   -0.000409  -0.002880  -0.028827   0.237953   0.077538  -0.243392
    25  C   -0.000193   0.001634  -0.151271  -0.021066  -0.093864  -0.372332
    26  O    0.000005  -0.000051   0.002014   0.004974   0.001291   0.010877
    27  C    0.003065  -0.034516   0.322278  -0.188645  -0.746290   0.500951
    28  C   -0.008562   0.026010  -2.104810  -0.574068   1.716930  -0.285509
    29  C   -0.120783  -0.991467  -0.639100  -0.070017  -0.976383  -1.615777
    30  N    0.025281  -0.444535  -0.208867   0.238950  -0.065244  -0.083185
    31  S    0.008012  -0.030418  -0.000758   0.042226   0.015044   0.009319
[...]
 012,0.00000069,-0.00000132,-0.00000031,0.00000223,0.00000412,-0.000008
 01,0.00000240,0.00000149,0.00007109,-0.00005207,-0.00005435,0.00010810
 ,0.00003339,-0.00001186,0.08719853,-0.12022138,0.12520914,-0.00002094,
 0.00003111,-0.00000068,0.00000707,-0.00000794,0.00000199,0.00000446,-0
 .00000836,-0.00000133,0.00001639,-0.00001020,-0.00000250,-0.00001249,-
 0.00000514,0.00000694,-0.00002264,0.00001058,-0.00000079,0.00000263,-0
 .00002053,0.00001270,0.00001502,-0.00002056,0.00000103,0.00000545,0.00
 000702,0.00000033,0.00001459,0.00000540,-0.00001282,-0.00000174,0.0000
 0891,0.00000137,-0.00004651,0.00003349,-0.00000448,0.00011850,-0.00007
 214,0.00003390,-0.00007473,0.00024634,-0.00001486,0.00003662,-0.000282
 88,0.00003006,-0.00008184,0.00012671,0.00002317,-0.00012841,-0.0002498
 5,0.00002136,-0.00010776,0.00038530,-0.00035703,0.00001502,0.00009073,
 -0.00001180,0.00205325,-0.00227541,-0.00111439,-0.00515790,0.00041243,
 -0.00599856,-0.22416979,-0.03575967,-0.14319745,-0.00657845,-0.0035668
 6,-0.00753714,0.00393362,0.00152262,-0.00456244,0.00013484,-0.00062989
 ,-0.00065832,-0.00070040,0.00052762,0.00037630,0.00009027,-0.00011255,
 0.00025116,0.00013450,0.00006980,0.00033366,-0.00005483,-0.00003375,-0
 .00001583,0.00003907,0.00000391,0.00001038,-0.00004870,-0.00000274,-0.
 00000867,0.00002712,-0.00002130,0.00000594,0.00000434,-0.00001927,-0.0
 0000548,0.00000034,0.00000038,-0.00000197,-0.00000216,-0.00000020,0.00
 000051,-0.00000017,-0.00000242,-0.00000530,0.00000679,-0.00000379,-0.0
 0000005,0.00000078,-0.00001152,-0.00000586,0.00000601,0.00000440,-0.00
 001709,-0.00037782,0.00018053,0.00145275,0.23245827,-0.00001690,0.0000
 1312,0.00000036,0.00000528,-0.00000366,0.00000103,0.00000364,-0.000003
 72,-0.00000076,0.00001357,-0.00000428,-0.00000150,-0.00000897,-0.00000
 569,0.00000700,-0.00001635,0.00000748,-0.00000079,0.00000502,-0.000011
 54,0.00000734,0.00000891,-0.00001331,0.00000103,0.00000564,0.00000559,
 -0.00000064,0.00000856,0.00000116,-0.00000717,0.00000564,0.00000678,0.
 00000136,-0.00004019,0.00001199,-0.00000565,0.00009295,-0.00004868,0.0
 0002418,-0.00006035,0.00018680,-0.00001350,-0.00000911,-0.00024912,0.0
 0001642,-0.00011099,0.00004104,0.00004262,-0.00000078,-0.00045770,-0.0
 0005483,-0.00109503,0.00042991,-0.00072939,-0.00001832,0.00008854,-0.0
 0000090,-0.00134390,-0.00509098,0.00080967,-0.02349924,-0.00118389,-0.
 01838490,-0.03618523,-0.06424709,-0.02304411,0.02048782,0.00772967,0.0
 1549885,0.00101274,-0.00410081,0.00352012,0.00017380,0.00105029,0.0001
 1048,0.00071887,0.00005130,0.00033732,-0.00008972,-0.00001597,-0.00009
 433,0.00031364,-0.00072478,0.00034495,-0.00003676,-0.00003206,-0.00000
 742,0.00002705,-0.00000260,0.00000319,-0.00002937,0.00000093,-0.000003
 77,0.00001950,-0.00001435,0.00000405,-0.00000111,-0.00000911,-0.000004
 26,0.00000057,-0.00000032,-0.00000268,-0.00000321,0.00000049,-0.000000
 58,-0.00000032,-0.00000147,-0.00000367,0.00000458,-0.00000664,0.000000
 05,0.00000464,-0.00003756,0.00000717,0.00000072,0.00001056,-0.00000608
 ,0.00059299,0.00082969,-0.00023510,0.03866376,0.06495612,-0.00001595,0
 .00001117,0.00000401,0.00000470,-0.00000309,0.00000008,0.00000341,-0.0
 0000324,-0.00000151,0.00001045,-0.00000364,-0.00000232,-0.00000643,-0.
 00000518,0.00000570,-0.00001398,0.00000616,-0.00000025,0.00000600,-0.0
 0000825,0.00000339,0.00000408,-0.00000807,0.00000024,0.00000704,0.0000
 0530,-0.00000152,0.00000755,-0.00000599,-0.00000540,0.00000662,0.00001
 798,0.00000353,-0.00002947,-0.00001306,-0.00000386,0.00002575,-0.00001
 547,-0.00000414,-0.00000813,0.00006785,0.00000759,-0.00003881,-0.00004
 587,-0.00002942,0.00003240,-0.00008638,-0.00001030,0.00015541,0.000020
 87,-0.00009684,-0.00035941,-0.00009237,0.00016022,-0.00004248,-0.00001
 939,-0.00000728,-0.00107093,0.00065117,0.00304092,-0.00115969,0.000953
 14,0.00092795,-0.14343394,-0.02239747,-0.14634068,-0.01203851,-0.00392
 549,-0.00516943,-0.00460322,0.00381141,0.00471102,-0.00072360,-0.00039
 774,0.00068734,0.00037024,-0.00003401,-0.00107504,0.00014073,-0.000073
 10,-0.00003106,0.00030540,0.00004432,-0.00001211,-0.00001155,-0.000019
 83,0.00000621,0.00000988,-0.00000654,-0.00000332,-0.00000963,0.0000090
 1,0.00000009,0.00001016,-0.00001102,0.00000190,0.00000026,-0.00000341,
 -0.00000428,0.00000081,0.00000002,-0.00000219,-0.00000293,0.00000035,0
 .00000019,-0.00000001,-0.00000083,-0.00000207,0.00000252,-0.00000416,0
 .00000262,-0.00000136,-0.00000516,0.00001543,0.00001798,0.00001387,-0.
 00000372,0.00145189,-0.00058034,-0.00099027,0.15799208,0.02281656,0.14
 708897,0.00000192,0.00000150,-0.00000178,-0.00000044,-0.00000030,0.000
 00039,-0.00000041,-0.00000036,0.00000034,-0.00000121,-0.00000035,0.000
 00046,0.00000089,0.00000140,-0.00000029,-0.00000011,-0.00000051,-0.000
 00043,-0.00000136,-0.00000043,0.00000129,0.00000076,-0.00000033,-0.000
 00002,-0.00000123,-0.00000066,0.00000086,0.00000037,0.00000088,0.00000
 104,-0.00000227,-0.00000115,-0.00000162,0.00000402,0.00000219,-0.00000
 589,-0.00000258,-0.00000283,0.00001743,0.00001312,-0.00000093,-0.00002
 306,0.00009115,-0.00002579,0.00003280,-0.00002817,0.00013684,-0.000005
 90,-0.00011516,-0.00015245,-0.00002975,-0.00039028,0.00016679,0.000730
 51,-0.00001074,0.00005850,-0.00000576,-0.00072448,0.00040418,-0.000146
 48,0.00245146,0.00118912,-0.00537518,0.00924928,0.01336169,0.00106589,
 -0.08708799,-0.09821962,-0.02168645,-0.00437583,-0.02324585,-0.0010193
 3,0.00041948,0.00041231,0.00185923,-0.00058625,-0.00012513,-0.00007235
 ,-0.00016376,-0.00111047,0.00011833,-0.00109982,0.00055799,-0.00439028
 ,0.00000123,0.00000138,-0.00000306,-0.00000230,0.00000016,-0.00000097,
 0.00000165,0.00000247,-0.00000041,-0.00000108,-0.00000140,0.00000217,0
 .00000346,-0.00000098,-0.00000054,-0.00000031,0.00000002,0.00000029,0.
 00000049,-0.00000031,-0.00000029,0.00000003,-0.00000008,-0.00000022,-0
 .00000003,0.00000050,-0.00000090,0.00000147,-0.00000317,-0.00000257,0.
 00002636,0.00001122,-0.00002004,0.00032514,0.00064120,0.00003099,-0.00
 150456,0.00034753,0.00306187,0.08377626,-0.00001644,0.00002180,0.00000
 220,0.00000523,-0.00000552,0.00000081,0.00000351,-0.00000591,-0.000001
 57,0.00001146,-0.00000752,-0.00000251,-0.00000891,-0.00000375,0.000004
 63,-0.00001432,0.00000656,-0.00000020,0.00000383,-0.00001296,0.0000062
 8,0.00000748,-0.00001214,0.00000067,0.00000514,0.00000526,-0.00000062,
 0.00000865,0.00000066,-0.00000780,-0.00000187,0.00000971,0.00000014,-0
 .00003189,0.00001546,-0.00000277,0.00004943,-0.00004503,0.00000627,-0.
 00003176,0.00011119,-0.00000769,0.00005964,-0.00004739,-0.00002850,-0.
 00005251,0.00001902,0.00000455,-0.00003619,-0.00004557,-0.00000936,0.0
 0014066,-0.00001468,-0.00017543,-0.00001038,0.00000201,0.00004698,0.00
 024965,0.00030161,-0.00000957,0.00231442,-0.00080805,0.00377340,-0.010
 88121,-0.01748695,-0.00412958,-0.09618250,-0.30018252,-0.02246010,-0.0
 0074351,-0.00045216,0.00005325,0.00070667,0.00035547,0.00014995,-0.000
 47980,-0.00020536,-0.00045766,0.00011667,-0.00014375,0.00013520,-0.000
 30088,0.00160554,0.00026237,-0.00002454,-0.00002134,-0.00000235,0.0000
 1742,-0.00000313,0.00000450,-0.00002186,0.00000448,-0.00000323,0.00001
 505,-0.00001773,0.00000266,0.00000045,-0.00001072,-0.00000238,0.000000
 49,0.00000053,-0.00000137,-0.00000176,0.,0.00000105,0.00000013,-0.0000
 0138,-0.00000293,0.00000442,-0.00000206,0.00000171,-0.00000627,0.00000
 423,0.00000753,0.00001072,0.00000720,-0.00000625,-0.00053215,-0.000918
 50,-0.00020825,0.00076150,0.00086326,-0.00069172,0.10529355,0.31707627
 ,0.00000265,-0.00000718,0.00000186,-0.00000108,0.00000179,-0.00000081,
 -0.00000058,0.00000187,-0.00000012,-0.00000214,0.00000206,0.00000020,0
 .00000123,-0.00000006,-0.00000154,0.00000685,-0.00000252,0.00000076,0.
 00000077,0.00000495,-0.00000445,-0.00000409,0.00000494,-0.00000004,-0.
 00000097,-0.00000123,-0.00000107,-0.00000455,0.00000146,0.00000225,-0.
 00000126,-0.00000561,0.00000108,0.00000829,0.00000073,0.00000531,-0.00
 001060,0.00000710,-0.00001724,0.00000008,-0.00004179,0.00001488,-0.000
 07351,0.00000850,-0.00002558,0.00007915,-0.00010148,0.00002596,0.00009
 040,0.00022096,0.00008152,0.00073213,-0.00025450,-0.00077459,0.0000142
 9,-0.00018257,0.00001413,-0.00013003,0.00027675,-0.00079794,-0.0054402
 0,0.00299893,0.00401551,0.00582789,0.01495756,0.00611474,-0.02225141,-
 0.02398428,-0.04760455,-0.00553387,-0.01794698,0.00229117,0.00173813,-
 0.00009562,-0.00045255,0.00008628,-0.00014951,-0.00038920,-0.00029076,
 -0.00100797,-0.00006319,-0.00417411,0.00105596,0.00060071,0.00000532,0
 .00000634,0.00000590,-0.00000330,-0.00000326,0.00000063,0.00000813,0.0
 0000092,0.00000102,-0.00000295,0.00000474,-0.00000289,-0.00000525,0.00
 000412,0.00000221,0.00000022,-0.00000005,0.00000025,-0.00000004,0.0000
 0027,0.00000018,0.00000013,0.00000056,0.00000139,-0.00000108,0.0000001
 3,0.00000058,0.00000328,0.00000722,-0.00000526,0.00002421,0.00001121,0
 .00000575,0.00021976,0.00074968,0.00011599,0.00303289,-0.00100785,-0.0
 0284111,0.02674616,0.02396308,0.03967869,0.00000868,-0.00000679,-0.000
 00350,-0.00000256,0.00000181,0.00000028,-0.00000188,0.00000194,0.00000
 118,-0.00000619,0.00000247,0.00000242,0.00000489,0.00000354,-0.0000033
 8,0.00000638,-0.00000319,0.00000029,-0.00000322,0.00000483,-0.00000184
 ,-0.00000283,0.00000544,-0.00000033,-0.00000345,-0.00000245,0.00000033
 ,-0.00000264,-0.00000049,0.00000276,-0.00000043,-0.00000308,0.00000072
 ,0.00001350,-0.00000995,0.00000339,-0.00004109,0.00001948,-0.00001005,
 0.00002185,-0.00007769,0.00003242,0.00000814,0.00011943,0.00001448,-0.
 00000122,-0.00002503,-0.00002338,0.00000042,0.00008788,0.00006766,-0.0
 0001755,0.00012600,-0.00033459,0.00002631,-0.00000933,-0.00001101,0.00
 098123,0.00069592,-0.00003137,0.00001277,0.00006501,0.00029750,-0.0001
 8913,-0.00022822,0.00002559,0.00001453,0.00005497,0.00161654,0.0067003
 1,0.01394600,0.00164257,-0.04034511,0.01049864,-0.02079457,-0.00428418
 ,-0.02860333,0.00857024,-0.00267815,-0.00044117,-0.00441739,-0.0004352
 0,0.00109965,-0.00433224,0.00001780,0.00001014,-0.00000447,-0.00001482
 ,-0.00000201,0.00000253,0.00001813,0.00000245,0.00000139,-0.00000827,0
 .00000295,-0.00000121,-0.00000113,0.00000520,-0.00000079,-0.00000072,-
 0.00000015,0.00000079,0.00000123,-0.00000056,-0.00000067,0.00000011,0.
 00000058,0.00000144,-0.00000160,0.00000143,-0.00000095,0.00000289,0.00
 000353,-0.00000591,0.00000700,-0.00000830,-0.00001794,0.00000861,-0.00
 001224,-0.00003707,-0.00003407,0.00003163,-0.00003342,-0.00017694,-0.0
 0035621,-0.00029288,0.03925438,-0.00000168,0.00000098,0.00000128,0.000
 00046,-0.00000026,-0.00000022,0.00000040,-0.00000033,-0.00000039,0.000
 00137,-0.00000055,-0.00000098,-0.00000136,-0.00000092,0.00000114,-0.00
 000193,0.00000107,-0.00000028,0.00000092,-0.00000119,0.00000030,0.0000
 0067,-0.00000151,0.00000007,0.00000089,0.00000076,-0.00000010,0.000000
 83,-0.00000051,-0.00000058,0.00000059,0.00000080,0.00000050,-0.0000042
 6,0.00000053,-0.00000251,0.00000580,-0.00000645,0.00000305,0.00000116,
 0.00001684,-0.00001459,0.00001891,-0.00002728,-0.00000339,0.00000080,0
 .00002282,0.00001349,0.00001839,-0.00003891,0.00003348,-0.00000748,-0.
 00010027,0.00010067,-0.00002493,0.00000602,0.00002207,-0.00056423,0.00
 006691,-0.00032018,0.00028873,0.00015496,0.00010752,0.00002589,-0.0004
 1146,0.00009465,0.00011441,0.00007015,-0.00032857,-0.00262178,-0.00290
 217,-0.00140008,0.00094723,-0.34596266,0.07569504,-0.00139444,-0.01756
 719,0.00126393,-0.00212510,0.00281660,-0.00197873,0.00083038,-0.000092
 74,0.00175811,-0.00000338,-0.00000411,0.00000164,0.00000208,-0.0000007
 7,-0.00000223,-0.00000202,0.00000052,0.00000002,0.00000108,-0.00000188
 ,0.00000022,0.00000066,-0.00000092,0.00000012,0.00000025,0.00000001,-0
 .00000014,-0.00000032,0.00000030,0.00000032,0.00000002,-0.00000004,-0.
 00000033,0.00000047,-0.00000056,0.00000038,-0.00000135,-0.00000069,0.0
 0000345,0.00001835,-0.00000839,-0.00001275,0.00001147,0.00001696,0.000
 01769,0.00003001,-0.00002922,0.00002445,0.00022555,-0.00005077,0.00023
 645,0.00425124,0.36442748,-0.00000404,0.00000080,0.00000368,0.00000103
 ,-0.00000027,-0.00000071,0.00000089,-0.00000031,-0.00000094,0.00000279
 ,-0.00000046,-0.00000207,-0.00000239,-0.00000239,0.00000196,-0.0000014
 4,0.00000090,-0.00000056,0.00000251,-0.00000068,-0.00000043,0.00000002
 ,-0.00000149,-0.00000027,0.00000172,0.00000100,-0.00000056,-0.00000006
 ,0.00000107,0.00000036,-0.00000192,-0.00000042,-0.00000153,-0.00000058
 ,0.00000970,0.00000229,0.00003147,-0.00000745,0.00000301,0.00000803,0.
 00004485,-0.00001341,-0.00004925,-0.00004154,-0.00003015,0.00004588,0.
 00005384,0.00004920,-0.00005161,-0.00008232,0.00002157,-0.00050694,0.0
 0013532,0.00007090,0.00010058,0.00008270,-0.00001079,0.00035840,0.0008
 8069,0.00083886,0.00022449,-0.00012110,-0.00014805,-0.00005370,-0.0000
 5731,-0.00017495,0.00163508,-0.00039361,-0.00051108,0.00526164,0.01296
 211,0.00237653,-0.01844984,0.08374588,-0.05310540,0.00242283,-0.022262
 42,0.00039811,-0.00394241,-0.00028110,-0.00082966,-0.00428200,0.001850
 78,0.00030966,-0.00001687,0.00000520,0.00000258,0.00000962,0.00000098,
 -0.00000267,-0.00001060,-0.00000017,0.00000003,0.00000572,0.00000227,0
 .00000065,0.00000369,-0.00000237,0.00000118,0.00000067,0.00000008,-0.0
 0000026,-0.00000066,0.00000052,0.00000046,-0.00000007,-0.00000009,-0.0
 0000029,0.00000005,-0.00000038,0.00000054,-0.00000044,0.00000422,0.000
 00751,0.00005067,-0.00001122,-0.00004767,-0.00005005,0.00000325,0.0000
 1764,-0.00004167,0.00004003,-0.00003284,-0.00042957,-0.00024113,-0.000
 03784,0.01844288,-0.07583293,0.04940881,-0.00000562,0.00001786,-0.0000
 0333,0.00000239,-0.00000438,0.00000157,0.00000123,-0.00000462,0.000000
 01,0.00000435,-0.00000623,-0.00000020,-0.00000319,0.00000237,0.0000032
 4,-0.00001117,0.00000461,0.,-0.00000280,-0.00001127,0.00000808,0.00000
 845,-0.00001025,-0.00000005,0.00000192,0.00000245,0.00000187,0.0000078
 4,0.00000071,-0.00000850,0.00000123,0.00000434,0.00000046,-0.00002688,
 0.00001369,-0.00000748,0.00002042,-0.00003616,0.00001384,0.00001375,0.
 00011531,-0.00002397,0.00014027,-0.00003318,0.00001574,-0.00004450,0.0
 0023923,0.00004709,0.00002856,-0.00021360,0.00039674,-0.00017561,0.000
 15505,0.00025170,-0.00002482,0.00000721,-0.00005988,-0.00017416,-0.000
 51980,0.00114324,-0.00029253,-0.00011980,-0.00018189,-0.00013255,0.000
 26803,0.00022287,0.00037626,-0.00122619,-0.00002479,-0.00059136,0.0007
 9011,-0.00460944,0.00138487,0.00203962,-0.00145005,0.00298804,0.006264
 18,0.00713167,-0.16816021,-0.13515606,-0.10470390,-0.00354845,-0.01279
 268,-0.00118530,-0.00001961,-0.00000797,-0.00000354,0.00000614,0.00000
 759,0.00000782,-0.00001241,-0.00001139,-0.00000478,0.00000528,-0.00001
 244,0.00000301,0.00000577,-0.00000854,-0.00000250,-0.00000072,0.000000
 38,-0.00000055,-0.00000054,-0.00000081,-0.00000064,0.,-0.00000114,-0.0
 0000232,0.00000227,-0.00000119,-0.00000049,0.00000988,-0.00002744,0.00
 000017,0.00044956,-0.00060442,0.00029951,-0.00004805,-0.00000212,-0.00
 006854,0.00000098,0.00001682,-0.00002375,-0.00009122,-0.00005121,-0.00
 040358,0.00114323,-0.00004474,-0.00071455,0.16676369,0.00001264,-0.000
 02020,-0.00000053,-0.00000419,0.00000506,-0.00000100,-0.00000268,0.000
 00548,0.00000113,-0.00000861,0.00000694,0.00000178,0.00000662,0.000001
 46,-0.00000400,0.00001316,-0.00000529,-0.00000015,-0.00000214,0.000012
 04,-0.00000614,-0.00000726,0.00001053,-0.00000037,-0.00000322,-0.00000
 441,0.00000019,-0.00000888,-0.00000077,0.00000704,0.00000161,-0.000010
 11,-0.00000238,0.00002560,-0.00000870,0.00001024,-0.00003498,0.0000339
 1,-0.00000942,0.00000587,-0.00009473,-0.00000030,-0.00007527,-0.000009
 55,-0.00005834,0.00008164,-0.00025368,0.00010943,-0.00065419,-0.000816
 75,0.00035495,0.00039493,0.00033841,0.00016286,-0.00008838,0.00003013,
 -0.00005738,-0.00015480,-0.00017290,-0.00032677,-0.00014286,-0.0003755
 1,-0.00009368,-0.00002450,0.00024702,-0.00025264,0.00015035,0.00069699
 ,0.00012582,0.00114954,0.00010253,0.00151060,0.00389163,-0.00228471,0.
 00424864,-0.02022280,-0.02729873,-0.01362488,-0.12771155,-0.17773267,-
 0.07980082,0.00345910,0.00931542,0.00121409,0.00002940,0.00001606,0.00
 000699,-0.00001146,0.00001132,-0.00001300,0.00000592,-0.00001788,0.000
 00414,-0.00001441,0.00002086,-0.00000434,-0.00000181,0.00000775,0.0000
 0572,-0.00000018,-0.00000047,0.00000104,0.00000153,0.00000036,-0.00000
 040,-0.00000033,0.00000118,0.00000259,-0.00000372,0.00000183,-0.000000
 71,-0.00001239,-0.00002528,0.00002096,0.00016797,-0.00077799,0.0010421
 5,0.00001651,-0.00000415,0.00002420,-0.00000559,0.00000984,0.00000721,
 0.00007613,0.00009463,0.00026414,-0.00125198,-0.00039195,-0.00048503,0
 .14095806,0.19933669,-0.00001889,0.00002117,0.00000954,0.00000570,-0.0
 0000536,-0.00000082,0.00000412,-0.00000590,-0.00000336,0.00001418,-0.0
 0000707,-0.00000817,-0.00001319,-0.00000850,0.00000835,-0.00001424,0.0
 0000618,-0.00000110,0.00000796,-0.00001345,0.00000442,0.00000672,-0.00
 001398,0.00000042,0.00000695,0.00000542,-0.00000092,0.00000393,0.00000
 739,-0.00000844,-0.00001402,-0.00000557,-0.00000215,-0.00002975,0.0000
 5662,-0.00000141,0.00013184,-0.00012612,0.00002280,0.00000387,0.000228
 59,-0.00002143,0.00018979,-0.00031017,-0.00003338,0.00028695,0.0002983
 6,0.00014014,-0.00076367,0.00018613,0.00026512,-0.00038250,-0.00018086
 ,-0.00055918,0.00022180,-0.00010508,0.00013394,0.00086018,-0.00028592,
 -0.00068944,0.00010374,0.00012455,0.00004170,0.00021907,-0.00004524,-0
 .00029218,-0.00026722,-0.00100311,0.00072924,-0.00434663,0.00163242,0.
 00038000,-0.00185215,0.00282370,0.00020702,0.01289765,0.01071270,0.002
 54123,-0.10726617,-0.08855874,-0.09572296,-0.00348210,-0.01236817,0.00
 013212,-0.00005358,-0.00001833,-0.00000679,0.00002651,-0.00000932,-0.0
 0001532,-0.00003451,0.00000598,0.00000452,0.00002557,-0.00002797,0.000
 00012,0.00000496,-0.00002037,0.00000116,0.00000201,0.00000049,-0.00000
 093,-0.00000175,0.00000149,0.00000299,0.00000032,-0.00000150,-0.000003
 06,0.00000563,-0.00000393,0.00000279,-0.00000846,0.00003034,0.00004972
 ,0.00051382,0.00079181,-0.00088694,-0.00010242,0.00001416,-0.00002566,
 -0.00001203,0.00001609,0.00000356,-0.00044692,0.00002575,0.00003734,-0
 .00036847,0.00051892,0.00143661,0.10393540,0.08561639,0.09212878\\0.00
 001507,-0.00000874,0.00000309,-0.00000006,0.00000250,-0.00000094,-0.00
 000433,0.00000466,-0.00000386,-0.00000644,0.00000743,-0.00000193,0.000
 00961,0.00000240,-0.00000157,-0.00000524,-0.00001125,-0.00000171,-0.00
 000555,-0.00000842,0.00000084,-0.00000435,0.00000937,0.00000237,0.0000
 0325,-0.00001029,0.00000245,0.00000298,0.00000611,0.00000604,0.0000009
 0,0.00000901,0.00000252,0.00000088,-0.00001014,0.00000173,-0.00000315,
 0.00000845,-0.00000155,0.00000851,-0.00000180,0.00001261,0.00000223,0.
 00000141,0.00000144,-0.00000191,0.00000393,0.00000160,-0.00001096,0.00
 000175,-0.00000030,0.00002203,-0.00001179,0.00000967,-0.00000814,0.000
 00951,-0.00000757,-0.00000446,-0.00000170,-0.00000470,0.00000002,-0.00
 000439,0.00000050,0.00000283,0.00000016,-0.00000275,0.00000848,-0.0000
 0225,-0.00000472,-0.00000141,-0.00000195,-0.00000916,-0.00001151,0.000
 00252,0.00000849,0.00001327,-0.00000964,-0.00001570,-0.00000859,0.0000
 0854,-0.00000104,-0.00000190,0.00001016,0.00000873,-0.00001029,-0.0000
 0270,0.00000295,0.00000984,0.00000021,-0.00000531,-0.00001632,-0.00000
 373,0.00000346,0.00000692,0.00000567,0.00000413,0.00000035,-0.00000410
 ,-0.00000501,0.00000131,-0.00000356,-0.00000058,0.00000105,-0.00000543
 ,-0.00000111,0.00000285,-0.00000090,0.00000145,-0.00000554,0.00000609,
 -0.00000464,0.00000101,0.00000099,-0.00000062,0.00000091,-0.00000478,0
 .00000190,0.00000148,0.00000081,-0.00000131,0.00000059,0.00000128,-0.0
 0000228,-0.00000146,0.00000102,0.00000071,-0.00000389,-0.00000006,0.00
 000149,-0.00000083,0.00000363,0.00000021\\\@


 THE HURRIEDER I GO, THE BEHINDER I GET.
 Job cpu time:  1 days  0 hours 45 minutes 31.5 seconds.
 File lengths (MBytes):  RWF=   2165 Int=      0 D2E=      0 Chk=     38 Scr=      1
 Normal termination of Gaussian 09 at Sun Dec 29 23:02:51 2013.
