 Entering Gaussian System, Link 0=g09
 Initial command:
 /opt/gaussian/g09/l1.exe /panfs/panfs.cluster/home/shuo/Gau-12011.inp -scrdir=/panfs/panfs.cluster/home/shuo/
 Default is to use a total of  12 processors:
                               12 via shared-memory
                                1 via Linda
 Entering Link 1 = /opt/gaussian/g09/l1.exe PID=     12013.
  
 Copyright (c) 1988,1990,1992,1993,1995,1998,2003,2009,2011,
            Gaussian, Inc.  All Rights Reserved.
  
 This is part of the Gaussian(R) 09 program.  It is based on
 the Gaussian(R) 03 system (copyright 2003, Gaussian, Inc.),
 the Gaussian(R) 98 system (copyright 1998, Gaussian, Inc.),
 the Gaussian(R) 94 system (copyright 1995, Gaussian, Inc.),
 the Gaussian 92(TM) system (copyright 1992, Gaussian, Inc.),
 the Gaussian 90(TM) system (copyright 1990, Gaussian, Inc.),
 the Gaussian 88(TM) system (copyright 1988, Gaussian, Inc.),
 the Gaussian 86(TM) system (copyright 1986, Carnegie Mellon
 University), and the Gaussian 82(TM) system (copyright 1983,
 Carnegie Mellon University). Gaussian is a federally registered
 trademark of Gaussian, Inc.
  
 This software contains proprietary and confidential information,
 including trade secrets, belonging to Gaussian, Inc.
  
 This software is provided under written license and may be
 used, copied, transmitted, or stored only in accord with that
 written license.
  
 The following legend is applicable only to US Government
 contracts under FAR:
  
                    RESTRICTED RIGHTS LEGEND
  
 Use, reproduction and disclosure by the US Government is
 subject to restrictions as set forth in subparagraphs (a)
 and (c) of the Commercial Computer Software - Restricted
 Rights clause in FAR 52.227-19.
  
 Gaussian, Inc.
 340 Quinnipiac St., Bldg. 40, Wallingford CT 06492
  
  
 ---------------------------------------------------------------
 Warning -- This program may not be used in any manner that
 competes with the business of Gaussian, Inc. or will provide
 assistance to any competitor of Gaussian, Inc.  The licensee
 of this program is prohibited from giving any competitor of
 Gaussian, Inc. access to this program.  By using this program,
 the user acknowledges that Gaussian, Inc. is engaged in the
 business of creating and licensing software in the field of
 computational chemistry and represents and warrants to the
 licensee that it is not a competitor of Gaussian, Inc. and that
 it will not use this program in any manner prohibited above.
 ---------------------------------------------------------------
  

 Cite this work as:
 Gaussian 09, Revision C.01,
 M. J. Frisch, G. W. Trucks, H. B. Schlegel, G. E. Scuseria, 
 M. A. Robb, J. R. Cheeseman, G. Scalmani, V. Barone, B. Mennucci, 
 G. A. Petersson, H. Nakatsuji, M. Caricato, X. Li, H. P. Hratchian, 
 A. F. Izmaylov, J. Bloino, G. Zheng, J. L. Sonnenberg, M. Hada, 
 M. Ehara, K. Toyota, R. Fukuda, J. Hasegawa, M. Ishida, T. Nakajima, 
 Y. Honda, O. Kitao, H. Nakai, T. Vreven, J. A. Montgomery, Jr., 
 J. E. Peralta, F. Ogliaro, M. Bearpark, J. J. Heyd, E. Brothers, 
 K. N. Kudin, V. N. Staroverov, T. Keith, R. Kobayashi, J. Normand, 
 K. Raghavachari, A. Rendell, J. C. Burant, S. S. Iyengar, J. Tomasi, 
 M. Cossi, N. Rega, J. M. Millam, M. Klene, J. E. Knox, J. B. Cross, 
 V. Bakken, C. Adamo, J. Jaramillo, R. Gomperts, R. E. Stratmann, 
 O. Yazyev, A. J. Austin, R. Cammi, C. Pomelli, J. W. Ochterski, 
 R. L. Martin, K. Morokuma, V. G. Zakrzewski, G. A. Voth, 
 P. Salvador, J. J. Dannenberg, S. Dapprich, A. D. Daniels, 
 O. Farkas, J. B. Foresman, J. V. Ortiz, J. Cioslowski, 
 and D. J. Fox, Gaussian, Inc., Wallingford CT, 2010.
 
 ******************************************
 Gaussian 09:  EM64L-G09RevC.01 23-Sep-2011
                28-Dec-2013 
 ******************************************
 %chk=21_C23H12N4S4.chk
 %NProcShared=12
 Will use up to   12 processors via shared memory.
 %Mem=8000MB
 Default route:  MaxDisk=100GB
 --------------------------------------------
 #B3LYP/6-31++G(d,p) opt scf=direct freq test
 --------------------------------------------
 1/14=-1,18=20,19=15,26=3,38=1/1,3;
 2/9=110,12=2,17=6,18=5,40=1/2;
 3/5=1,6=6,7=1111,11=2,16=1,25=1,30=1,71=1,74=-5/1,2,3;
 4//1;
 5/5=2,38=5/2;
 6/7=2,8=2,9=2,10=2,28=1/1;
 7//1,2,3,16;
 1/14=-1,18=20,19=15/3(2);
 2/9=110/2;
 99//99;
 2/9=110/2;
 3/5=1,6=6,7=1111,11=2,16=1,25=1,30=1,71=1,74=-5/1,2,3;
 4/5=5,16=3/1;
 5/5=2,38=5/2;
 7//1,2,3,16;
 1/14=-1,18=20,19=15/3(-5);
 2/9=110/2;
 6/7=2,8=2,9=2,10=2,19=2,28=1/1;
 99/9=1/99;
 ----------------------------------------------------------------------
 Geom opt of No.21 candidate from the CEPDB database with SMILE code of
  [SiH2]1C=c2ccc3sc4c(ncc5cc(ccc45)-c4cncc5nsnc45)c3c2=C1, HPC, 2013122
 7, Shuo Dai, Gaussian09
 ----------------------------------------------------------------------
 Charge =  0 Multiplicity = 1
 Symbolic Z-Matrix:
 Si                    1.21644   1.43324   0.07997 
 H                     0.64147   1.45941  -1.15405 
 H                     0.64083   1.32116   1.30889 
 C                     2.41808  -0.04956  -0.003 
 C                     1.68053  -1.21262  -0.06817 
 C                     0.40365  -1.43575  -0.08088 
 C                    -0.0327   -2.64474  -0.1482 
 C                     0.96399  -3.55827  -0.19928 
 S                     0.35098  -5.13723  -0.28747 
 C                     1.80433  -5.84884  -0.32741 
 C                     2.82106  -4.75183  -0.26615 
 N                     4.07972  -5.36677  -0.30063 
 C                     4.28317  -6.72189  -0.37638 
 C                     3.28258  -7.68562  -0.43004 
 C                     3.52142  -9.04332  -0.50523 
 C                     2.49768  -9.97144  -0.55924 
 C                     1.19043  -9.52443  -0.53199 
 C                     0.90568  -8.19042  -0.45803 
 C                     1.96989  -7.26608  -0.40665 
 C                     2.78085  -11.35963  -0.63999 
 C                     1.79196  -12.31596  -0.62793 
 N                     1.9873   -13.64042  -0.69188 
 C                     3.25295  -14.12666  -0.78619 
 C                     4.32581  -13.25199  -0.81132 
 N                     5.6196   -13.53881  -0.89895 
 S                     6.44144  -12.15457  -0.8867 
 N                     5.21333  -11.15466  -0.77627 
 C                     4.08065  -11.8495  -0.73711 
 C                     2.45668  -2.87895  -0.16136 
 C                     2.92601  -0.88317  -0.04851 
 C                     2.88089   0.96885   0.05259 
 H                     4.03516   0.08895   0.00516 
 H                    -0.06432  -0.55154  -0.03119 
 H                    -1.05646  -2.76922  -0.15502 
 H                     5.34135  -7.01581  -0.39294 
 H                     4.53562  -9.37923  -0.52107 
 H                     0.37971  -10.22405  -0.56993 
 H                    -0.12179  -7.87372  -0.44099 
 H                     0.76963  -11.97783  -0.56157 
 H                     3.39659  -15.17748  -0.84062 
 H                     2.81799   2.58658   0.14617 
 

 GradGradGradGradGradGradGradGradGradGradGradGradGradGradGradGradGradGrad
 Berny optimization.
 Initialization pass.
                           ----------------------------
                           !    Initial Parameters    !
                           ! (Angstroms and Degrees)  !
 --------------------------                            --------------------------
 ! Name  Definition              Value          Derivative Info.                !
 --------------------------------------------------------------------------------
 ! R1    R(1,2)                  1.3616         estimate D2E/DX2                !
 ! R2    R(1,3)                  1.3617         estimate D2E/DX2                !
 ! R3    R(1,4)                  1.9104         estimate D2E/DX2                !
 ! R4    R(1,31)                 1.7282         estimate D2E/DX2                !
 ! R5    R(1,41)                 1.9747         estimate D2E/DX2                !
 ! R6    R(4,5)                  1.3787         estimate D2E/DX2                !
 ! R7    R(4,30)                 0.9772         estimate D2E/DX2                !
 ! R8    R(4,31)                 1.12           estimate D2E/DX2                !
 ! R9    R(4,32)                 1.623          estimate D2E/DX2                !
 ! R10   R(5,6)                  1.2963         estimate D2E/DX2                !
 ! R11   R(5,29)                 1.8406         estimate D2E/DX2                !
 ! R12   R(5,30)                 1.2885         estimate D2E/DX2                !
 ! R13   R(6,7)                  1.2871         estimate D2E/DX2                !
 ! R14   R(6,33)                 1.0016         estimate D2E/DX2                !
 ! R15   R(7,8)                  1.353          estimate D2E/DX2                !
 ! R16   R(7,34)                 1.0313         estimate D2E/DX2                !
 ! R17   R(8,9)                  1.6961         estimate D2E/DX2                !
 ! R18   R(8,29)                 1.6404         estimate D2E/DX2                !
 ! R19   R(9,10)                 1.6187         estimate D2E/DX2                !
 ! R20   R(10,11)                1.497          estimate D2E/DX2                !
 ! R21   R(10,19)                1.4291         estimate D2E/DX2                !
 ! R22   R(11,12)                1.4013         estimate D2E/DX2                !
 ! R23   R(11,29)                1.9109         estimate D2E/DX2                !
 ! R24   R(12,13)                1.3724         estimate D2E/DX2                !
 ! R25   R(13,14)                1.3903         estimate D2E/DX2                !
 ! R26   R(13,35)                1.0984         estimate D2E/DX2                !
 ! R27   R(14,15)                1.3806         estimate D2E/DX2                !
 ! R28   R(14,19)                1.3783         estimate D2E/DX2                !
 ! R29   R(15,16)                1.3829         estimate D2E/DX2                !
 ! R30   R(15,36)                1.0685         estimate D2E/DX2                !
 ! R31   R(16,17)                1.3818         estimate D2E/DX2                !
 ! R32   R(16,20)                1.4191         estimate D2E/DX2                !
 ! R33   R(17,18)                1.3661         estimate D2E/DX2                !
 ! R34   R(17,37)                1.0715         estimate D2E/DX2                !
 ! R35   R(18,19)                1.4105         estimate D2E/DX2                !
 ! R36   R(18,38)                1.0753         estimate D2E/DX2                !
 ! R37   R(20,21)                1.3757         estimate D2E/DX2                !
 ! R38   R(20,28)                1.3924         estimate D2E/DX2                !
 ! R39   R(21,22)                1.3403         estimate D2E/DX2                !
 ! R40   R(21,39)                1.0788         estimate D2E/DX2                !
 ! R41   R(22,23)                1.3591         estimate D2E/DX2                !
 ! R42   R(23,24)                1.3845         estimate D2E/DX2                !
 ! R43   R(23,40)                1.062          estimate D2E/DX2                !
 ! R44   R(24,25)                1.3281         estimate D2E/DX2                !
 ! R45   R(24,28)                1.4257         estimate D2E/DX2                !
 ! R46   R(25,26)                1.6099         estimate D2E/DX2                !
 ! R47   R(26,27)                1.5875         estimate D2E/DX2                !
 ! R48   R(27,28)                1.3294         estimate D2E/DX2                !
 ! R49   R(30,32)                1.4758         estimate D2E/DX2                !
 ! R50   R(31,32)                1.4522         estimate D2E/DX2                !
 ! R51   R(31,41)                1.6217         estimate D2E/DX2                !
 ! A1    A(2,1,3)              129.8666         estimate D2E/DX2                !
 ! A2    A(2,1,4)              103.9552         estimate D2E/DX2                !
 ! A3    A(2,1,31)             113.4209         estimate D2E/DX2                !
 ! A4    A(2,1,41)             111.1997         estimate D2E/DX2                !
 ! A5    A(3,1,4)              103.9578         estimate D2E/DX2                !
 ! A6    A(3,1,31)             113.5346         estimate D2E/DX2                !
 ! A7    A(3,1,41)             111.1406         estimate D2E/DX2                !
 ! A8    A(4,1,41)              86.8268         estimate D2E/DX2                !
 ! A9    A(1,4,5)              108.6829         estimate D2E/DX2                !
 ! A10   A(1,4,32)             124.0729         estimate D2E/DX2                !
 ! A11   A(5,4,32)             127.2442         estimate D2E/DX2                !
 ! A12   A(30,4,31)            124.2763         estimate D2E/DX2                !
 ! A13   A(4,5,6)              132.2679         estimate D2E/DX2                !
 ! A14   A(4,5,29)             122.7188         estimate D2E/DX2                !
 ! A15   A(6,5,29)             105.0132         estimate D2E/DX2                !
 ! A16   A(29,5,30)             79.9003         estimate D2E/DX2                !
 ! A17   A(5,6,7)              119.7452         estimate D2E/DX2                !
 ! A18   A(5,6,33)             107.9249         estimate D2E/DX2                !
 ! A19   A(7,6,33)             132.3299         estimate D2E/DX2                !
 ! A20   A(6,7,8)              112.7345         estimate D2E/DX2                !
 ! A21   A(6,7,34)             116.7602         estimate D2E/DX2                !
 ! A22   A(8,7,34)             130.5053         estimate D2E/DX2                !
 ! A23   A(7,8,9)              111.3638         estimate D2E/DX2                !
 ! A24   A(7,8,29)             112.9444         estimate D2E/DX2                !
 ! A25   A(9,8,29)             135.6917         estimate D2E/DX2                !
 ! A26   A(8,9,10)              94.9356         estimate D2E/DX2                !
 ! A27   A(9,10,11)            106.6569         estimate D2E/DX2                !
 ! A28   A(9,10,19)            122.7763         estimate D2E/DX2                !
 ! A29   A(11,10,19)           130.5668         estimate D2E/DX2                !
 ! A30   A(10,11,12)           106.7064         estimate D2E/DX2                !
 ! A31   A(10,11,29)           126.2266         estimate D2E/DX2                !
 ! A32   A(12,11,29)           127.067          estimate D2E/DX2                !
 ! A33   A(11,12,13)           124.5993         estimate D2E/DX2                !
 ! A34   A(12,13,14)           125.4441         estimate D2E/DX2                !
 ! A35   A(12,13,35)           114.0718         estimate D2E/DX2                !
 ! A36   A(14,13,35)           120.4841         estimate D2E/DX2                !
 ! A37   A(13,14,15)           124.0071         estimate D2E/DX2                !
 ! A38   A(13,14,19)           118.2809         estimate D2E/DX2                !
 ! A39   A(15,14,19)           117.712          estimate D2E/DX2                !
 ! A40   A(14,15,16)           122.2812         estimate D2E/DX2                !
 ! A41   A(14,15,36)           118.3057         estimate D2E/DX2                !
 ! A42   A(16,15,36)           119.4131         estimate D2E/DX2                !
 ! A43   A(15,16,17)           118.846          estimate D2E/DX2                !
 ! A44   A(15,16,20)           120.7332         estimate D2E/DX2                !
 ! A45   A(17,16,20)           120.4208         estimate D2E/DX2                !
 ! A46   A(16,17,18)           120.9415         estimate D2E/DX2                !
 ! A47   A(16,17,37)           120.2553         estimate D2E/DX2                !
 ! A48   A(18,17,37)           118.8032         estimate D2E/DX2                !
 ! A49   A(17,18,19)           118.9891         estimate D2E/DX2                !
 ! A50   A(17,18,38)           119.1856         estimate D2E/DX2                !
 ! A51   A(19,18,38)           121.8253         estimate D2E/DX2                !
 ! A52   A(10,19,14)           114.4026         estimate D2E/DX2                !
 ! A53   A(10,19,18)           124.3676         estimate D2E/DX2                !
 ! A54   A(14,19,18)           121.2298         estimate D2E/DX2                !
 ! A55   A(16,20,21)           122.4173         estimate D2E/DX2                !
 ! A56   A(16,20,28)           122.3025         estimate D2E/DX2                !
 ! A57   A(21,20,28)           115.2802         estimate D2E/DX2                !
 ! A58   A(20,21,22)           125.5733         estimate D2E/DX2                !
 ! A59   A(20,21,39)           117.6345         estimate D2E/DX2                !
 ! A60   A(22,21,39)           116.7922         estimate D2E/DX2                !
 ! A61   A(21,22,23)           119.509          estimate D2E/DX2                !
 ! A62   A(22,23,24)           119.7935         estimate D2E/DX2                !
 ! A63   A(22,23,40)           118.915          estimate D2E/DX2                !
 ! A64   A(24,23,40)           121.2915         estimate D2E/DX2                !
 ! A65   A(23,24,25)           128.2923         estimate D2E/DX2                !
 ! A66   A(23,24,28)           119.1632         estimate D2E/DX2                !
 ! A67   A(25,24,28)           112.5445         estimate D2E/DX2                !
 ! A68   A(24,25,26)           108.1265         estimate D2E/DX2                !
 ! A69   A(25,26,27)            98.4637         estimate D2E/DX2                !
 ! A70   A(26,27,28)           109.3881         estimate D2E/DX2                !
 ! A71   A(20,28,24)           120.6793         estimate D2E/DX2                !
 ! A72   A(20,28,27)           127.844          estimate D2E/DX2                !
 ! A73   A(24,28,27)           111.4766         estimate D2E/DX2                !
 ! A74   A(5,29,8)              89.5627         estimate D2E/DX2                !
 ! A75   A(8,29,11)             76.4891         estimate D2E/DX2                !
 ! A76   A(5,30,32)            153.565          estimate D2E/DX2                !
 ! A77   A(1,31,32)            158.2564         estimate D2E/DX2                !
 ! A78   A(4,31,41)            153.3694         estimate D2E/DX2                !
 ! A79   A(32,31,41)           129.5809         estimate D2E/DX2                !
 ! A80   A(30,32,31)            78.6347         estimate D2E/DX2                !
 ! A81   L(1,4,30,6,-1)        172.3397         estimate D2E/DX2                !
 ! A82   L(5,4,31,2,-1)        173.0097         estimate D2E/DX2                !
 ! A83   L(6,5,30,29,-1)       184.9136         estimate D2E/DX2                !
 ! A84   L(5,29,11,8,-1)       166.0518         estimate D2E/DX2                !
 ! A85   L(1,4,30,6,-2)        180.0675         estimate D2E/DX2                !
 ! A86   L(5,4,31,2,-2)        176.1946         estimate D2E/DX2                !
 ! A87   L(6,5,30,29,-2)       180.0451         estimate D2E/DX2                !
 ! A88   L(5,29,11,8,-2)       179.9979         estimate D2E/DX2                !
 ! D1    D(2,1,4,5)            -68.9801         estimate D2E/DX2                !
 ! D2    D(2,1,4,32)           111.0333         estimate D2E/DX2                !
 ! D3    D(3,1,4,5)             68.9523         estimate D2E/DX2                !
 ! D4    D(3,1,4,32)          -111.0342         estimate D2E/DX2                !
 ! D5    D(41,1,4,5)           179.9557         estimate D2E/DX2                !
 ! D6    D(41,1,4,32)           -0.0309         estimate D2E/DX2                !
 ! D7    D(2,1,31,32)          -81.2826         estimate D2E/DX2                !
 ! D8    D(3,1,31,32)           80.632          estimate D2E/DX2                !
 ! D9    D(1,4,5,6)              0.0087         estimate D2E/DX2                !
 ! D10   D(1,4,5,29)          -179.997          estimate D2E/DX2                !
 ! D11   D(32,4,5,6)           179.9947         estimate D2E/DX2                !
 ! D12   D(32,4,5,29)           -0.011          estimate D2E/DX2                !
 ! D13   D(6,5,31,41)            0.296          estimate D2E/DX2                !
 ! D14   D(29,5,31,41)        -179.7607         estimate D2E/DX2                !
 ! D15   D(30,4,31,41)        -179.5853         estimate D2E/DX2                !
 ! D16   D(4,5,6,7)           -179.9814         estimate D2E/DX2                !
 ! D17   D(4,5,6,33)            -0.02           estimate D2E/DX2                !
 ! D18   D(29,5,6,7)             0.0236         estimate D2E/DX2                !
 ! D19   D(29,5,6,33)          179.985          estimate D2E/DX2                !
 ! D20   D(7,6,30,32)          179.9212         estimate D2E/DX2                !
 ! D21   D(33,6,30,32)          -0.1379         estimate D2E/DX2                !
 ! D22   D(4,5,29,8)           179.9913         estimate D2E/DX2                !
 ! D23   D(6,5,29,8)            -0.0131         estimate D2E/DX2                !
 ! D24   D(30,5,29,8)          179.9418         estimate D2E/DX2                !
 ! D25   D(29,5,30,32)         179.8193         estimate D2E/DX2                !
 ! D26   D(5,6,7,8)             -0.0242         estimate D2E/DX2                !
 ! D27   D(5,6,7,34)           179.9786         estimate D2E/DX2                !
 ! D28   D(33,6,7,8)          -179.9746         estimate D2E/DX2                !
 ! D29   D(33,6,7,34)            0.0282         estimate D2E/DX2                !
 ! D30   D(6,7,8,9)           -179.99           estimate D2E/DX2                !
 ! D31   D(6,7,8,29)             0.0111         estimate D2E/DX2                !
 ! D32   D(34,7,8,9)             0.0067         estimate D2E/DX2                !
 ! D33   D(34,7,8,29)         -179.9922         estimate D2E/DX2                !
 ! D34   D(7,8,9,10)           179.9957         estimate D2E/DX2                !
 ! D35   D(29,8,9,10)           -0.0058         estimate D2E/DX2                !
 ! D36   D(7,8,29,5)             0.0015         estimate D2E/DX2                !
 ! D37   D(7,8,29,11)         -179.9964         estimate D2E/DX2                !
 ! D38   D(9,8,29,5)          -179.9971         estimate D2E/DX2                !
 ! D39   D(9,8,29,11)            0.005          estimate D2E/DX2                !
 ! D40   D(8,9,10,11)            0.0022         estimate D2E/DX2                !
 ! D41   D(8,9,10,19)         -179.9999         estimate D2E/DX2                !
 ! D42   D(9,10,11,12)         179.9985         estimate D2E/DX2                !
 ! D43   D(9,10,11,29)           0.0001         estimate D2E/DX2                !
 ! D44   D(19,10,11,12)          0.0008         estimate D2E/DX2                !
 ! D45   D(19,10,11,29)       -179.9976         estimate D2E/DX2                !
 ! D46   D(9,10,19,14)        -179.9905         estimate D2E/DX2                !
 ! D47   D(9,10,19,18)          -0.0084         estimate D2E/DX2                !
 ! D48   D(11,10,19,14)          0.0069         estimate D2E/DX2                !
 ! D49   D(11,10,19,18)        179.989          estimate D2E/DX2                !
 ! D50   D(10,11,12,13)         -0.0018         estimate D2E/DX2                !
 ! D51   D(29,11,12,13)        179.9966         estimate D2E/DX2                !
 ! D52   D(10,11,29,8)          -0.0025         estimate D2E/DX2                !
 ! D53   D(12,11,29,8)         179.9994         estimate D2E/DX2                !
 ! D54   D(11,12,13,14)         -0.0055         estimate D2E/DX2                !
 ! D55   D(11,12,13,35)        179.9978         estimate D2E/DX2                !
 ! D56   D(12,13,14,15)       -179.9645         estimate D2E/DX2                !
 ! D57   D(12,13,14,19)          0.0138         estimate D2E/DX2                !
 ! D58   D(35,13,14,15)          0.0321         estimate D2E/DX2                !
 ! D59   D(35,13,14,19)       -179.9897         estimate D2E/DX2                !
 ! D60   D(13,14,15,16)       -179.8866         estimate D2E/DX2                !
 ! D61   D(13,14,15,36)          0.1537         estimate D2E/DX2                !
 ! D62   D(19,14,15,16)          0.135          estimate D2E/DX2                !
 ! D63   D(19,14,15,36)       -179.8247         estimate D2E/DX2                !
 ! D64   D(13,14,19,10)         -0.0132         estimate D2E/DX2                !
 ! D65   D(13,14,19,18)       -179.996          estimate D2E/DX2                !
 ! D66   D(15,14,19,10)        179.9665         estimate D2E/DX2                !
 ! D67   D(15,14,19,18)         -0.0163         estimate D2E/DX2                !
 ! D68   D(14,15,16,17)         -0.2456         estimate D2E/DX2                !
 ! D69   D(14,15,16,20)        179.8144         estimate D2E/DX2                !
 ! D70   D(36,15,16,17)        179.7137         estimate D2E/DX2                !
 ! D71   D(36,15,16,20)         -0.2263         estimate D2E/DX2                !
 ! D72   D(15,16,17,18)          0.2381         estimate D2E/DX2                !
 ! D73   D(15,16,17,37)       -179.8303         estimate D2E/DX2                !
 ! D74   D(20,16,17,18)       -179.8217         estimate D2E/DX2                !
 ! D75   D(20,16,17,37)          0.1099         estimate D2E/DX2                !
 ! D76   D(15,16,20,21)        176.6632         estimate D2E/DX2                !
 ! D77   D(15,16,20,28)         -3.3381         estimate D2E/DX2                !
 ! D78   D(17,16,20,21)         -3.2759         estimate D2E/DX2                !
 ! D79   D(17,16,20,28)        176.7229         estimate D2E/DX2                !
 ! D80   D(16,17,18,19)         -0.1252         estimate D2E/DX2                !
 ! D81   D(16,17,18,38)        179.8493         estimate D2E/DX2                !
 ! D82   D(37,17,18,19)        179.9422         estimate D2E/DX2                !
 ! D83   D(37,17,18,38)         -0.0833         estimate D2E/DX2                !
 ! D84   D(17,18,19,10)       -179.9684         estimate D2E/DX2                !
 ! D85   D(17,18,19,14)          0.0126         estimate D2E/DX2                !
 ! D86   D(38,18,19,10)          0.0577         estimate D2E/DX2                !
 ! D87   D(38,18,19,14)       -179.9613         estimate D2E/DX2                !
 ! D88   D(16,20,21,22)       -179.538          estimate D2E/DX2                !
 ! D89   D(16,20,21,39)          0.4671         estimate D2E/DX2                !
 ! D90   D(28,20,21,22)          0.4632         estimate D2E/DX2                !
 ! D91   D(28,20,21,39)       -179.5317         estimate D2E/DX2                !
 ! D92   D(16,20,28,24)        179.7655         estimate D2E/DX2                !
 ! D93   D(16,20,28,27)         -0.3642         estimate D2E/DX2                !
 ! D94   D(21,20,28,24)         -0.2356         estimate D2E/DX2                !
 ! D95   D(21,20,28,27)        179.6347         estimate D2E/DX2                !
 ! D96   D(20,21,22,23)         -0.4495         estimate D2E/DX2                !
 ! D97   D(39,21,22,23)        179.5455         estimate D2E/DX2                !
 ! D98   D(21,22,23,24)          0.1874         estimate D2E/DX2                !
 ! D99   D(21,22,23,40)       -179.7316         estimate D2E/DX2                !
 ! D100  D(22,23,24,25)       -179.9902         estimate D2E/DX2                !
 ! D101  D(22,23,24,28)          0.0098         estimate D2E/DX2                !
 ! D102  D(40,23,24,25)         -0.0731         estimate D2E/DX2                !
 ! D103  D(40,23,24,28)        179.9269         estimate D2E/DX2                !
 ! D104  D(23,24,25,26)       -179.9633         estimate D2E/DX2                !
 ! D105  D(28,24,25,26)          0.0367         estimate D2E/DX2                !
 ! D106  D(23,24,28,20)          0.0221         estimate D2E/DX2                !
 ! D107  D(23,24,28,27)       -179.8678         estimate D2E/DX2                !
 ! D108  D(25,24,28,20)       -179.9779         estimate D2E/DX2                !
 ! D109  D(25,24,28,27)          0.1322         estimate D2E/DX2                !
 ! D110  D(24,25,26,27)         -0.1565         estimate D2E/DX2                !
 ! D111  D(25,26,27,28)          0.2349         estimate D2E/DX2                !
 ! D112  D(26,27,28,20)        179.8815         estimate D2E/DX2                !
 ! D113  D(26,27,28,24)         -0.2384         estimate D2E/DX2                !
 ! D114  D(5,30,32,31)           0.1006         estimate D2E/DX2                !
 ! D115  D(1,31,32,30)           0.26           estimate D2E/DX2                !
 ! D116  D(41,31,32,30)        179.7582         estimate D2E/DX2                !
 --------------------------------------------------------------------------------
 Trust Radius=3.00D-01 FncErr=1.00D-07 GrdErr=1.00D-06
 Number of steps in this run=    246 maximum allowed number of steps=    246.
 GradGradGradGradGradGradGradGradGradGradGradGradGradGradGradGradGradGrad

                          Input orientation:                          
 ---------------------------------------------------------------------
 Center     Atomic      Atomic             Coordinates (Angstroms)
 Number     Number       Type             X           Y           Z
 ---------------------------------------------------------------------
      1         14           0        1.216440    1.433240    0.079970
      2          1           0        0.641470    1.459410   -1.154050
      3          1           0        0.640830    1.321160    1.308890
      4          6           0        2.418080   -0.049560   -0.003000
      5          6           0        1.680530   -1.212620   -0.068170
      6          6           0        0.403650   -1.435750   -0.080880
      7          6           0       -0.032700   -2.644740   -0.148200
      8          6           0        0.963990   -3.558270   -0.199280
      9         16           0        0.350980   -5.137230   -0.287470
     10          6           0        1.804330   -5.848840   -0.327410
     11          6           0        2.821060   -4.751830   -0.266150
     12          7           0        4.079720   -5.366770   -0.300630
     13          6           0        4.283170   -6.721890   -0.376380
     14          6           0        3.282580   -7.685620   -0.430040
     15          6           0        3.521420   -9.043320   -0.505230
     16          6           0        2.497680   -9.971440   -0.559240
     17          6           0        1.190430   -9.524430   -0.531990
     18          6           0        0.905680   -8.190420   -0.458030
     19          6           0        1.969890   -7.266080   -0.406650
     20          6           0        2.780850  -11.359630   -0.639990
     21          6           0        1.791960  -12.315960   -0.627930
     22          7           0        1.987300  -13.640420   -0.691880
     23          6           0        3.252950  -14.126660   -0.786190
     24          6           0        4.325810  -13.251990   -0.811320
     25          7           0        5.619600  -13.538810   -0.898950
     26         16           0        6.441440  -12.154570   -0.886700
     27          7           0        5.213330  -11.154660   -0.776270
     28          6           0        4.080650  -11.849500   -0.737110
     29          6           0        2.456680   -2.878950   -0.161360
     30          6           0        2.926010   -0.883170   -0.048510
     31          6           0        2.880890    0.968850    0.052590
     32          1           0        4.035160    0.088950    0.005160
     33          1           0       -0.064320   -0.551540   -0.031190
     34          1           0       -1.056460   -2.769220   -0.155020
     35          1           0        5.341350   -7.015810   -0.392940
     36          1           0        4.535620   -9.379230   -0.521070
     37          1           0        0.379710  -10.224050   -0.569930
     38          1           0       -0.121790   -7.873720   -0.440990
     39          1           0        0.769630  -11.977830   -0.561570
     40          1           0        3.396590  -15.177480   -0.840620
     41          1           0        2.817990    2.586580    0.146170
 ---------------------------------------------------------------------
                    Distance matrix (angstroms):
                    1          2          3          4          5
     1  Si   0.000000
     2  H    1.361646   0.000000
     3  H    1.361666   2.466817   0.000000
     4  C    1.910371   2.599663   2.599720   0.000000
     5  C    2.690335   3.065701   3.065503   1.378744   0.000000
     6  C    2.986236   3.096805   3.096493   2.446531   1.296291
     7  C    4.271104   4.279052   4.278448   3.572445   2.234397
     8  C    5.005685   5.117882   5.117406   3.803150   2.456154
     9  S    6.637402   6.659655   6.659067   5.498928   4.149501
    10  C    7.317121   7.446213   7.445812   5.840683   4.645112
    11  C    6.399195   6.642174   6.641940   4.726837   3.723709
    12  N    7.388056   7.690684   7.690574   5.578741   4.802823
    13  C    8.724634   8.988905   8.988739   6.938153   6.100884
    14  C    9.363902   9.546268   9.545931   7.696696   6.678117
    15  C   10.743077  10.909740  10.909229   9.075093   8.056039
    16  C   11.494211  11.595846  11.595715   9.937779   8.810551
    17  C   10.974776  11.015129  11.014432   9.568705   8.339155
    18  C    9.643695   9.678506   9.677929   8.292648   7.031506
    19  C    8.745436   8.857623   8.857210   7.241683   6.069817
    20  C   12.908263  13.006498  13.006931  11.333801  10.222499
    21  C   13.779436  13.833338  13.821990  12.298257  11.117999
    22  N   15.113081  15.166731  15.154700  13.615124  12.447222
    23  C   15.716491  15.807616  15.806571  14.123567  13.029217
    24  C   15.037239  15.169612  15.180615  13.364018  12.348936
    25  N   15.636764  15.804856  15.826605  13.892887  12.966936
    26  S   14.589848  14.800391  14.834520  12.786697  11.960875
    27  N   13.234935  13.422346  13.449971  11.477570  10.574793
    28  C   13.612586  13.752414  13.765346  11.939080  10.924801
    29  C    4.493486   4.806432   4.806232   2.834081   1.840584
    30  C    2.881821   3.453842   3.453064   0.977225   1.288466
    31  C    1.728237   2.590682   2.592350   1.120019   2.492841
    32  H    3.123763   3.839148   3.839209   1.623022   2.691420
    33  H    2.364752   2.408916   2.408331   2.532802   1.866252
    34  H    4.783510   4.665012   4.664229   4.414985   3.149867
    35  H    9.414084   9.720983   9.720915   7.564800   6.869068
    36  H   11.326417  11.534348  11.533277   9.580977   8.663150
    37  H   11.705336  11.700981  11.700001  10.392142   9.118649
    38  H    9.417100   9.391397   9.390926   8.237734   6.910688
    39  H   13.433838  13.450906  13.430501  12.054585  10.814940
    40  H   16.778455  16.866388  16.864748  15.182656  14.091091
    41  H    1.974725   2.774585   2.773667   2.670471   3.971609
                    6          7          8          9         10
     6  C    0.000000
     7  C    1.287086   0.000000
     8  C    2.198429   1.352973   0.000000
     9  S    3.707615   2.525691   1.696076   0.000000
    10  C    4.636598   3.697709   2.443215   1.618706   0.000000
    11  C    4.107868   3.549322   2.208567   2.500057   1.496971
    12  N    5.386529   4.934033   3.603986   3.735822   2.326050
    13  C    6.563633   5.941545   4.588770   4.240421   2.628548
    14  C    6.889922   6.039949   4.739634   3.887016   2.359982
    15  C    8.232599   7.328101   6.059689   5.035539   3.631077
    16  C    8.801806   7.762236   6.603827   5.296392   4.186921
    17  C    8.139365   6.998105   5.979719   4.473476   3.732116
    18  C    6.783793   5.633038   4.639738   3.107853   2.511500
    19  C    6.045823   5.043208   3.847427   2.677139   1.429076
    20  C   10.219935   9.170999   8.022246   6.689305   5.605364
    21  C   10.982060   9.853528   8.807179   7.329836   6.474110
    22  N   12.322144  11.192898  10.145914   8.668641   7.802246
    23  C   13.025942  11.959808  10.829343   9.459387   8.416132
    24  C   12.471584  11.486953  10.278358   9.051134   7.835730
    25  N   13.204523  12.296051  11.035190   9.935734   8.603405
    26  S   12.328721  11.528085  10.216231   9.311060   7.847154
    27  N   10.866177  10.016688   8.723242   7.751828   6.322538
    28  C   11.063325  10.099211   8.873969   7.692021   6.430972
    29  C    2.510824   2.500408   1.640438   3.090260   3.045222
    30  C    2.582381   3.444856   3.320906   4.978444   5.098414
    31  C    3.454943   4.646220   4.922678   6.618179   6.912617
    32  H    3.939540   4.903475   4.772431   6.400920   6.351736
    33  H    1.001645   2.096706   3.182154   4.611584   5.625032
    34  H    1.978777   1.031323   2.169511   2.757880   4.206887
    35  H    7.457569   6.931563   5.581520   5.333290   3.725134
    36  H    8.964698   8.146284   6.836934   5.963250   4.467785
    37  H    8.801929   7.602229   6.701596   5.094737   4.607691
    38  H    6.469407   5.237928   4.456507   2.781269   2.796959
    39  H   10.559378   9.376629   8.429592   6.858878   6.220125
    40  H   14.084390  13.011881  11.888436  10.506585   9.477457
    41  H    4.696778   5.964880   6.427739   8.119817   8.509295
                   11         12         13         14         15
    11  C    0.000000
    12  N    1.401273   0.000000
    13  C    2.455820   1.372399   0.000000
    14  C    2.974388   2.455452   1.390264   0.000000
    15  C    4.354831   3.724323   2.446610   1.380597   0.000000
    16  C    5.237824   4.875727   3.712275   2.420276   1.382884
    17  C    5.050479   5.068300   4.176540   2.787240   2.380273
    18  C    3.940736   4.251153   3.683841   2.430074   2.751683
    19  C    2.658135   2.840775   2.376620   1.378302   2.361259
    20  C    6.618489   6.141384   4.882119   3.714049   2.435548
    21  C    7.642381   7.323402   6.128868   4.868383   3.703547
    22  N    8.937753   8.543101   7.296343   6.099668   4.849917
    23  C    9.399171   8.812207   7.487317   6.450947   5.098172
    24  C    8.649520   7.905571   6.544708   5.676106   4.295770
    25  N    9.243553   8.337353   6.966313   6.319919   4.976626
    26  S    8.263945   7.210786   5.867927   5.491671   4.283913
    27  N    6.854153   5.917007   4.546929   3.985211   2.719150
    28  C    7.223939   6.497407   5.144271   4.250777   2.870741
    29  C    1.910872   2.973702   4.260339   4.884504   6.265092
    30  C    3.876198   4.636516   6.003335   6.822465   8.194581
    31  C    5.729865   6.457712   7.829297   8.677219  10.048134
    32  H    4.998080   5.464465   6.826025   7.823025   9.160938
    33  H    5.101280   6.358624   7.555994   7.890242   9.229982
    34  H    4.356404   5.757501   6.647123   6.563070   7.774572
    35  H    3.390213   2.078356   1.098366   2.165307   2.726821
    36  H    4.941410   4.044289   2.673223   2.108722   1.068498
    37  H    5.999805   6.111936   5.247817   3.858737   3.356881
    38  H    4.293848   4.894608   4.553522   3.409580   3.826888
    39  H    7.517361   7.398034   6.324885   4.975468   4.023291
    40  H   10.457315   9.849278   8.514608   7.503968   6.144590
    41  H    7.349985   8.065195   9.437554  10.298833  11.669349
                   16         17         18         19         20
    16  C    0.000000
    17  C    1.381833   0.000000
    18  C    2.390970   1.366066   0.000000
    19  C    2.760583   2.392366   1.410527   0.000000
    20  C    1.419076   2.430856   3.686904   4.179624   0.000000
    21  C    2.449394   2.857216   4.223084   5.057856   1.375724
    22  N    3.706683   4.195467   5.561213   6.380742   2.415454
    23  C    4.229396   5.049666   6.391894   6.989839   2.810820
    24  C    3.763989   4.878866   6.118954   6.445559   2.448935
    25  N    4.752675   5.988944   7.142880   7.273918   3.588090
    26  S    4.519572   5.883584   6.822234   6.642480   3.754026
    27  N    2.970163   4.347533   5.238687   5.077162   2.444902
    28  C    2.462629   3.715023   4.852544   5.056901   1.392438
    29  C    7.103760   6.775187   5.541239   4.420864   8.500359
    30  C    9.112681   8.827081   7.592453   6.464052  10.494148
    31  C   10.964084  10.644638   9.383731   8.297885  12.348324
    32  H   10.192833  10.039825   8.863191   7.650581  11.535142
    33  H    9.776359   9.074026   7.712041   7.025954  11.192874
    34  H    8.041597   7.129059   5.773319   5.426220   9.421002
    35  H    4.104859   4.852076   4.589021   3.380764   5.048363
    36  H    2.122585   3.348358   3.820171   3.325878   2.648649
    37  H    2.133008   1.071529   2.103525   3.362279   2.657052
    38  H    3.357981   2.110698   1.075306   2.178424   4.540538
    39  H    2.647973   2.489401   3.791267   4.864690   2.105547
    40  H    5.290564   6.076131   7.427652   8.050718   3.872385
    41  H   12.581894  12.238685  10.962012   9.904534  13.968400
                   21         22         23         24         25
    21  C    0.000000
    22  N    1.340314   0.000000
    23  C    2.331989   1.359115   0.000000
    24  C    2.707430   2.373557   1.384452   0.000000
    25  N    4.027362   3.639616   2.441171   1.328095   0.000000
    26  S    4.659471   4.699475   3.750428   2.384513   1.609873
    27  N    3.616130   4.073499   3.560333   2.277655   2.421627
    28  C    2.338291   2.755278   2.423418   1.425689   2.290923
    29  C    9.471890  10.784758  11.293159  10.560116  11.143640
    30  C   11.503499  12.807909  13.268048  12.471128  12.967031
    31  C   13.346724  14.655494  15.123373  14.320141  14.794531
    32  H   12.621986  13.898748  14.259090  13.369061  13.749317
    33  H   11.924909  13.265159  13.994934  13.460434  14.203138
    34  H    9.973835  11.302021  12.163915  11.802035  12.692804
    35  H    6.383179   7.431317   7.421607   6.332164   6.548511
    36  H    4.020382   4.967983   4.924797   3.889285   4.315080
    37  H    2.524659   3.777671   4.851045   4.979799   6.209053
    38  H    4.840546   6.145408   7.113880   6.988854   8.078770
    39  H    1.078839   2.064923   3.291626   3.785799   5.106143
    40  H    3.287609   2.090640   1.061988   2.138181   2.762321
    41  H   14.957863  16.269846  16.744876  15.938965  16.400290
                   26         27         28         29         30
    26  S    0.000000
    27  N    1.587536   0.000000
    28  C    2.385115   1.329398   0.000000
    29  C   10.121342   8.744404   9.134524   0.000000
    30  C   11.836607  10.548221  11.048428   2.053325   0.000000
    31  C   13.630258  12.373632  12.898572   3.877021   1.855326
    32  H   12.509572  11.332144  11.961589   3.365674   1.475843
    33  H   13.329933  11.867388  12.054999   3.433544   3.008713
    34  H   12.034893  10.488652  10.448934   3.514859   4.407788
    35  H    5.278338   4.158535   5.007232   5.048620   6.600134
    36  H    3.386495   1.917438   2.521092   6.834107   8.660092
    37  H    6.369601   4.926712   4.045614   7.644032   9.695750
    38  H    7.848587   6.272199   5.792669   5.628004   7.636158
    39  H    5.683870   4.524398   3.318153   9.262609  11.313916
    40  H    4.290830   4.414495   3.399133  12.353083  14.323972
    41  H   15.215049  13.978921  14.518089   5.486086   3.476886
                   31         32         33         34         35
    31  C    0.000000
    32  H    1.452175   0.000000
    33  H    3.315549   4.149372   0.000000
    34  H    5.433139   5.841180   2.432649   0.000000
    35  H    8.367028   7.234793   8.434389   7.682585   0.000000
    36  H   10.495236   9.495989   9.966320   8.665886   2.500274
    37  H   11.485837  10.956779   9.697673   7.603238   5.911176
    38  H    9.351511   8.993520   7.333864   5.197240   5.530300
    39  H   13.132065  12.513674  11.468953   9.396722   6.749126
    40  H   16.179238  15.303170  15.051618  13.200932   8.402105
    41  H    1.621655   2.782003   4.264618   6.617150   9.943032
                   36         37         38         39         40
    36  H    0.000000
    37  H    4.241190   0.000000
    38  H    4.895349   2.406695   0.000000
    39  H    4.575701   1.796622   4.201534   0.000000
    40  H    5.917703   5.806144   8.116872   4.149283   0.000000
    41  H   12.106860  13.060255  10.881403  14.724765  17.800853
                   41
    41  H    0.000000
 Stoichiometry    C22H12N4S2Si
 Framework group  C1[X(C22H12N4S2Si)]
 Deg. of freedom   117
 Full point group                 C1      NOp   1
 Largest Abelian subgroup         C1      NOp   1
 Largest concise Abelian subgroup C1      NOp   1
                         Standard orientation:                         
 ---------------------------------------------------------------------
 Center     Atomic      Atomic             Coordinates (Angstroms)
 Number     Number       Type             X           Y           Z
 ---------------------------------------------------------------------
      1         14           0        8.370808    0.331989    0.013480
      2          1           0        8.443056   -0.203721    1.263230
      3          1           0        8.456548   -0.274730   -1.202528
      4          6           0        6.666099    1.193572   -0.020611
      5          6           0        5.682524    0.227639    0.001518
      6          6           0        5.732740   -1.067138    0.038933
      7          6           0        4.640836   -1.748436    0.051922
      8          6           0        3.536643   -0.967102    0.023440
      9         16           0        2.119659   -1.899029    0.041924
     10          6           0        1.117063   -0.628882    0.000234
     11          6           0        1.977205    0.595937   -0.029751
     12          7           0        1.110233    1.696218   -0.065892
     13          6           0       -0.259402    1.609312   -0.071146
     14          6           0       -0.992435    0.428363   -0.041844
     15          6           0       -2.372001    0.375484   -0.048828
     16          6           0       -3.065436   -0.820539   -0.016535
     17          6           0       -2.352533   -2.003744    0.018945
     18          6           0       -0.986495   -2.000723    0.027179
     19          6           0       -0.305423   -0.765910   -0.003874
     20          6           0       -4.484416   -0.836465   -0.020943
     21          6           0       -5.208734   -2.005510   -0.057162
     22          7           0       -6.546036   -2.094045   -0.072263
     23          6           0       -7.292500   -0.958679   -0.041775
     24          6           0       -6.666319    0.275344    0.000535
     25          7           0       -7.223719    1.480328    0.034568
     26         16           0       -6.045250    2.576349    0.075042
     27          7           0       -4.804500    1.586179    0.055787
     28          6           0       -5.241778    0.331550    0.011157
     29          6           0        3.887659    0.634748   -0.020171
     30          6           0        5.743076    1.514133   -0.036042
     31          6           0        7.565770    1.860562   -0.033202
     32          1           0        6.461451    2.802941   -0.068042
     33          1           0        6.696979   -1.338006    0.051831
     34          1           0        4.734399   -2.775078    0.081566
     35          1           0       -0.769871    2.581373   -0.101597
     36          1           0       -2.914143    1.295664   -0.081042
     37          1           0       -2.866868   -2.943487    0.041653
     38          1           0       -0.460232   -2.937959    0.057518
     39          1           0       -4.659674   -2.934008   -0.075011
     40          1           0       -8.351344   -1.039944   -0.049741
     41          1           0        9.163144    2.140126   -0.035298
 ---------------------------------------------------------------------
 Rotational constants (GHZ):      0.5387387      0.0468625      0.0431407
 Standard basis: 6-31++G(d,p) (6D, 7F)
 There are   635 symmetry adapted basis functions of A   symmetry.
 Integral buffers will be    131072 words long.
 Raffenetti 2 integral format.
 Two-electron integral symmetry is turned on.
   635 basis functions,  1096 primitive gaussians,   635 cartesian basis functions
   109 alpha electrons      109 beta electrons
       nuclear repulsion energy      2783.5245005591 Hartrees.
 NAtoms=   41 NActive=   41 NUniq=   41 SFac= 1.00D+00 NAtFMM=   60 NAOKFM=F Big=F
 One-electron integrals computed using PRISM.
 NBasis=   635 RedAO= T  NBF=   635
 NBsUse=   622 1.00D-06 NBFU=   622
 Harris functional with IExCor=  402 diagonalized for initial guess.
 ExpMin= 3.31D-02 ExpMax= 2.19D+04 ExpMxC= 3.30D+03 IAcc=3 IRadAn=         5 AccDes= 0.00D+00
 HarFok:  IExCor=  402 AccDes= 0.00D+00 IRadAn=         5 IDoV= 1
 ScaDFX=  1.000000  1.000000  1.000000  1.000000
 FoFCou: FMM=F IPFlag=           0 FMFlag=      100000 FMFlg1=           0
         NFxFlg=           0 DoJE=T BraDBF=F KetDBF=T FulRan=T
         Omega=  0.000000  0.000000  1.000000  0.000000  0.000000 ICntrl=     500 IOpCl=  0
         NMat0=    1 NMatS0=    1 NMatT0=    0 NMatD0=    1 NMtDS0=    0 NMtDT0=    0
         I1Cent=           4 NGrid=           0.
 Petite list used in FoFCou.
 Initial guess orbital symmetries:
       Occupied  (A) (A) (A) (A) (A) (A) (A) (A) (A) (A) (A) (A)
                 (A) (A) (A) (A) (A) (A) (A) (A) (A) (A) (A) (A)
                 (A) (A) (A) (A) (A) (A) (A) (A) (A) (A) (A) (A)
                 (A) (A) (A) (A) (A) (A) (A) (A) (A) (A) (A) (A)
                 (A) (A) (A) (A) (A) (A) (A) (A) (A) (A) (A) (A)
                 (A) (A) (A) (A) (A) (A) (A) (A) (A) (A) (A) (A)
                 (A) (A) (A) (A) (A) (A) (A) (A) (A) (A) (A) (A)
                 (A) (A) (A) (A) (A) (A) (A) (A) (A) (A) (A) (A)
                 (A) (A) (A) (A) (A) (A) (A) (A) (A) (A) (A) (A)
                 (A)
       Virtual   (A) (A) (A) (A) (A) (A) (A) (A) (A) (A) (A) (A)
                 (A) (A) (A) (A) (A) (A) (A) (A) (A) (A) (A) (A)
                 (A) (A) (A) (A) (A) (A) (A) (A) (A) (A) (A) (A)
                 (A) (A) (A) (A) (A) (A) (A) (A) (A) (A) (A) (A)
                 (A) (A) (A) (A) (A) (A) (A) (A) (A) (A) (A) (A)
                 (A) (A) (A) (A) (A) (A) (A) (A) (A) (A) (A) (A)
                 (A) (A) (A) (A) (A) (A) (A) (A) (A) (A) (A) (A)
                 (A) (A) (A) (A) (A) (A) (A) (A) (A) (A) (A) (A)
                 (A) (A) (A) (A) (A) (A) (A) (A) (A) (A) (A) (A)
                 (A) (A) (A) (A) (A) (A) (A) (A) (A) (A) (A) (A)
                 (A) (A) (A) (A) (A) (A) (A) (A) (A) (A) (A) (A)
                 (A) (A) (A) (A) (A) (A) (A) (A) (A) (A) (A) (A)
                 (A) (A) (A) (A) (A) (A) (A) (A) (A) (A) (A) (A)
                 (A) (A) (A) (A) (A) (A) (A) (A) (A) (A) (A) (A)
                 (A) (A) (A) (A) (A) (A) (A) (A) (A) (A) (A) (A)
                 (A) (A) (A) (A) (A) (A) (A) (A) (A) (A) (A) (A)
                 (A) (A) (A) (A) (A) (A) (A) (A) (A) (A) (A) (A)
                 (A) (A) (A) (A) (A) (A) (A) (A) (A) (A) (A) (A)
                 (A) (A) (A) (A) (A) (A) (A) (A) (A) (A) (A) (A)
                 (A) (A) (A) (A) (A) (A) (A) (A) (A) (A) (A) (A)
                 (A) (A) (A) (A) (A) (A) (A) (A) (A) (A) (A) (A)
                 (A) (A) (A) (A) (A) (A) (A) (A) (A) (A) (A) (A)
                 (A) (A) (A) (A) (A) (A) (A) (A) (A) (A) (A) (A)
                 (A) (A) (A) (A) (A) (A) (A) (A) (A) (A) (A) (A)
                 (A) (A) (A) (A) (A) (A) (A) (A) (A) (A) (A) (A)
                 (A) (A) (A) (A) (A) (A) (A) (A) (A) (A) (A) (A)
                 (A) (A) (A) (A) (A) (A) (A) (A) (A) (A) (A) (A)
                 (A) (A) (A) (A) (A) (A) (A) (A) (A) (A) (A) (A)
                 (A) (A) (A) (A) (A) (A) (A) (A) (A) (A) (A) (A)
                 (A) (A) (A) (A) (A) (A) (A) (A) (A) (A) (A) (A)
                 (A) (A) (A) (A) (A) (A) (A) (A) (A) (A) (A) (A)
                 (A) (A) (A) (A) (A) (A) (A) (A) (A) (A) (A) (A)
                 (A) (A) (A) (A) (A) (A) (A) (A) (A) (A) (A) (A)
                 (A) (A) (A) (A) (A) (A) (A) (A) (A) (A) (A) (A)
                 (A) (A) (A) (A) (A) (A) (A) (A) (A) (A) (A) (A)
                 (A) (A) (A) (A) (A) (A) (A) (A) (A) (A) (A) (A)
                 (A) (A) (A) (A) (A) (A) (A) (A) (A) (A) (A) (A)
                 (A) (A) (A) (A) (A) (A) (A) (A) (A) (A) (A) (A)
                 (A) (A) (A) (A) (A) (A) (A) (A) (A) (A) (A) (A)
                 (A) (A) (A) (A) (A) (A) (A) (A) (A) (A) (A) (A)
                 (A) (A) (A) (A) (A) (A) (A) (A) (A) (A) (A) (A)
                 (A) (A) (A) (A) (A) (A) (A) (A) (A) (A) (A) (A)
                 (A) (A) (A) (A) (A) (A) (A) (A) (A)
 The electronic state of the initial guess is 1-A.
 Requested convergence on RMS density matrix=1.00D-08 within 128 cycles.
 Requested convergence on MAX density matrix=1.00D-06.
 Requested convergence on             energy=1.00D-06.
 No special actions if energy rises.
 EnCoef did     4 forward-backward iterations
 EnCoef did     2 forward-backward iterations
 EnCoef did     2 forward-backward iterations
 EnCoef did     1 forward-backward iterations
 EnCoef did     4 forward-backward iterations
 EnCoef did     2 forward-backward iterations
 Restarting incremental Fock formation.
 SCF Done:  E(RB3LYP) =  -2149.03414221     A.U. after   29 cycles
             Convg  =    0.4595D-08             -V/T =  2.0032

 **********************************************************************

            Population analysis using the SCF density.

 **********************************************************************

 Orbital symmetries:
       Occupied  (A) (A) (A) (A) (A) (A) (A) (A) (A) (A) (A) (A)
                 (A) (A) (A) (A) (A) (A) (A) (A) (A) (A) (A) (A)
                 (A) (A) (A) (A) (A) (A) (A) (A) (A) (A) (A) (A)
                 (A) (A) (A) (A) (A) (A) (A) (A) (A) (A) (A) (A)
                 (A) (A) (A) (A) (A) (A) (A) (A) (A) (A) (A) (A)
                 (A) (A) (A) (A) (A) (A) (A) (A) (A) (A) (A) (A)
                 (A) (A) (A) (A) (A) (A) (A) (A) (A) (A) (A) (A)
                 (A) (A) (A) (A) (A) (A) (A) (A) (A) (A) (A) (A)
                 (A) (A) (A) (A) (A) (A) (A) (A) (A) (A) (A) (A)
                 (A)
       Virtual   (A) (A) (A) (A) (A) (A) (A) (A) (A) (A) (A) (A)
                 (A) (A) (A) (A) (A) (A) (A) (A) (A) (A) (A) (A)
                 (A) (A) (A) (A) (A) (A) (A) (A) (A) (A) (A) (A)
                 (A) (A) (A) (A) (A) (A) (A) (A) (A) (A) (A) (A)
                 (A) (A) (A) (A) (A) (A) (A) (A) (A) (A) (A) (A)
                 (A) (A) (A) (A) (A) (A) (A) (A) (A) (A) (A) (A)
                 (A) (A) (A) (A) (A) (A) (A) (A) (A) (A) (A) (A)
                 (A) (A) (A) (A) (A) (A) (A) (A) (A) (A) (A) (A)
                 (A) (A) (A) (A) (A) (A) (A) (A) (A) (A) (A) (A)
                 (A) (A) (A) (A) (A) (A) (A) (A) (A) (A) (A) (A)
                 (A) (A) (A) (A) (A) (A) (A) (A) (A) (A) (A) (A)
                 (A) (A) (A) (A) (A) (A) (A) (A) (A) (A) (A) (A)
                 (A) (A) (A) (A) (A) (A) (A) (A) (A) (A) (A) (A)
                 (A) (A) (A) (A) (A) (A) (A) (A) (A) (A) (A) (A)
                 (A) (A) (A) (A) (A) (A) (A) (A) (A) (A) (A) (A)
                 (A) (A) (A) (A) (A) (A) (A) (A) (A) (A) (A) (A)
                 (A) (A) (A) (A) (A) (A) (A) (A) (A) (A) (A) (A)
                 (A) (A) (A) (A) (A) (A) (A) (A) (A) (A) (A) (A)
                 (A) (A) (A) (A) (A) (A) (A) (A) (A) (A) (A) (A)
                 (A) (A) (A) (A) (A) (A) (A) (A) (A) (A) (A) (A)
                 (A) (A) (A) (A) (A) (A) (A) (A) (A) (A) (A) (A)
                 (A) (A) (A) (A) (A) (A) (A) (A) (A) (A) (A) (A)
                 (A) (A) (A) (A) (A) (A) (A) (A) (A) (A) (A) (A)
                 (A) (A) (A) (A) (A) (A) (A) (A) (A) (A) (A) (A)
                 (A) (A) (A) (A) (A) (A) (A) (A) (A) (A) (A) (A)
                 (A) (A) (A) (A) (A) (A) (A) (A) (A) (A) (A) (A)
                 (A) (A) (A) (A) (A) (A) (A) (A) (A) (A) (A) (A)
                 (A) (A) (A) (A) (A) (A) (A) (A) (A) (A) (A) (A)
                 (A) (A) (A) (A) (A) (A) (A) (A) (A) (A) (A) (A)
                 (A) (A) (A) (A) (A) (A) (A) (A) (A) (A) (A) (A)
                 (A) (A) (A) (A) (A) (A) (A) (A) (A) (A) (A) (A)
                 (A) (A) (A) (A) (A) (A) (A) (A) (A) (A) (A) (A)
                 (A) (A) (A) (A) (A) (A) (A) (A) (A) (A) (A) (A)
                 (A) (A) (A) (A) (A) (A) (A) (A) (A) (A) (A) (A)
                 (A) (A) (A) (A) (A) (A) (A) (A) (A) (A) (A) (A)
                 (A) (A) (A) (A) (A) (A) (A) (A) (A) (A) (A) (A)
                 (A) (A) (A) (A) (A) (A) (A) (A) (A) (A) (A) (A)
                 (A) (A) (A) (A) (A) (A) (A) (A) (A) (A) (A) (A)
                 (A) (A) (A) (A) (A) (A) (A) (A) (A) (A) (A) (A)
                 (A) (A) (A) (A) (A) (A) (A) (A) (A) (A) (A) (A)
                 (A) (A) (A) (A) (A) (A) (A) (A) (A) (A) (A) (A)
                 (A) (A) (A) (A) (A) (A) (A) (A) (A) (A) (A) (A)
                 (A) (A) (A) (A) (A) (A) (A) (A) (A)
 The electronic state is 1-A.
 Alpha  occ. eigenvalues --  -88.99966 -88.90187 -66.23558 -14.38415 -14.37950
 Alpha  occ. eigenvalues --  -14.35563 -14.32216 -10.27924 -10.25359 -10.25058
 Alpha  occ. eigenvalues --  -10.24856 -10.24297 -10.23872 -10.23295 -10.23198
 Alpha  occ. eigenvalues --  -10.22232 -10.21859 -10.21850 -10.21638 -10.21446
 Alpha  occ. eigenvalues --  -10.20804 -10.20773 -10.20703 -10.20346 -10.20077
 Alpha  occ. eigenvalues --  -10.19779 -10.19354 -10.19053 -10.18591  -8.05324
 Alpha  occ. eigenvalues --   -7.96506  -6.01864  -6.01260  -6.01136  -5.92911
 Alpha  occ. eigenvalues --   -5.92519  -5.92194  -5.38772  -3.75002  -3.74501
 Alpha  occ. eigenvalues --   -3.74250  -1.09949  -1.05647  -0.95647  -0.92264
 Alpha  occ. eigenvalues --   -0.91739  -0.91260  -0.88995  -0.87535  -0.85250
 Alpha  occ. eigenvalues --   -0.83192  -0.80554  -0.77613  -0.76890  -0.74847
 Alpha  occ. eigenvalues --   -0.70795  -0.69237  -0.69054  -0.66622  -0.65739
 Alpha  occ. eigenvalues --   -0.64485  -0.62572  -0.60760  -0.60368  -0.57025
 Alpha  occ. eigenvalues --   -0.56192  -0.55920  -0.54889  -0.53723  -0.53633
 Alpha  occ. eigenvalues --   -0.51908  -0.50344  -0.49407  -0.48857  -0.48242
 Alpha  occ. eigenvalues --   -0.48202  -0.47411  -0.46412  -0.45816  -0.44346
 Alpha  occ. eigenvalues --   -0.43419  -0.42129  -0.42069  -0.41815  -0.41209
 Alpha  occ. eigenvalues --   -0.40540  -0.40478  -0.39407  -0.37481  -0.37073
 Alpha  occ. eigenvalues --   -0.36993  -0.35524  -0.34548  -0.33314  -0.32992
 Alpha  occ. eigenvalues --   -0.31527  -0.30237  -0.29949  -0.29772  -0.29176
 Alpha  occ. eigenvalues --   -0.27709  -0.27319  -0.26197  -0.26038  -0.24069
 Alpha  occ. eigenvalues --   -0.22396  -0.20713  -0.19480  -0.17834
 Alpha virt. eigenvalues --   -0.14738  -0.11311  -0.10392  -0.10097  -0.05373
 Alpha virt. eigenvalues --   -0.04357  -0.03840  -0.03426  -0.01873  -0.01774
 Alpha virt. eigenvalues --   -0.01247  -0.00696  -0.00238   0.00380   0.00715
 Alpha virt. eigenvalues --    0.00992   0.01421   0.01751   0.01948   0.02299
 Alpha virt. eigenvalues --    0.02420   0.02638   0.02843   0.03369   0.03502
 Alpha virt. eigenvalues --    0.04112   0.04212   0.04251   0.04915   0.05391
 Alpha virt. eigenvalues --    0.05844   0.06074   0.06236   0.06338   0.06971
 Alpha virt. eigenvalues --    0.07439   0.07659   0.07745   0.08290   0.08458
 Alpha virt. eigenvalues --    0.08471   0.08757   0.09108   0.09198   0.09441
 Alpha virt. eigenvalues --    0.09940   0.10031   0.10219   0.10857   0.10983
 Alpha virt. eigenvalues --    0.11352   0.11454   0.11693   0.11722   0.12053
 Alpha virt. eigenvalues --    0.12558   0.12689   0.12757   0.13267   0.13596
 Alpha virt. eigenvalues --    0.13796   0.13859   0.14017   0.14103   0.14376
 Alpha virt. eigenvalues --    0.14500   0.15035   0.15318   0.15478   0.15581
 Alpha virt. eigenvalues --    0.15972   0.16026   0.16608   0.16767   0.16905
 Alpha virt. eigenvalues --    0.17189   0.17377   0.17733   0.17760   0.18392
 Alpha virt. eigenvalues --    0.18479   0.18735   0.18984   0.19292   0.19412
 Alpha virt. eigenvalues --    0.19722   0.20191   0.20367   0.20523   0.20805
 Alpha virt. eigenvalues --    0.21088   0.21159   0.21591   0.21812   0.22254
 Alpha virt. eigenvalues --    0.22390   0.22539   0.22880   0.22916   0.23384
 Alpha virt. eigenvalues --    0.23405   0.23641   0.23763   0.24022   0.24145
 Alpha virt. eigenvalues --    0.24216   0.24953   0.25024   0.25399   0.25705
 Alpha virt. eigenvalues --    0.25980   0.26189   0.26463   0.26524   0.27205
 Alpha virt. eigenvalues --    0.27466   0.27606   0.27706   0.27929   0.28345
 Alpha virt. eigenvalues --    0.28679   0.28833   0.29423   0.29612   0.30060
 Alpha virt. eigenvalues --    0.30116   0.30313   0.30590   0.30724   0.31239
 Alpha virt. eigenvalues --    0.31826   0.32042   0.32100   0.32252   0.32586
 Alpha virt. eigenvalues --    0.33320   0.33392   0.33796   0.34099   0.34575
 Alpha virt. eigenvalues --    0.34930   0.35036   0.35650   0.36219   0.36671
 Alpha virt. eigenvalues --    0.37026   0.37196   0.38117   0.38582   0.38747
 Alpha virt. eigenvalues --    0.38953   0.39818   0.39996   0.41075   0.41238
 Alpha virt. eigenvalues --    0.41843   0.42466   0.43209   0.43441   0.44989
 Alpha virt. eigenvalues --    0.45437   0.46223   0.46760   0.47458   0.48109
 Alpha virt. eigenvalues --    0.48202   0.48821   0.49156   0.49350   0.49699
 Alpha virt. eigenvalues --    0.50718   0.51086   0.51423   0.52270   0.53655
 Alpha virt. eigenvalues --    0.55192   0.57541   0.58329   0.59098   0.60250
 Alpha virt. eigenvalues --    0.60716   0.61992   0.62847   0.64567   0.65523
 Alpha virt. eigenvalues --    0.65818   0.66166   0.66778   0.66916   0.67202
 Alpha virt. eigenvalues --    0.67310   0.67634   0.67673   0.68389   0.68648
 Alpha virt. eigenvalues --    0.69308   0.69559   0.69855   0.70784   0.71126
 Alpha virt. eigenvalues --    0.71725   0.72162   0.72520   0.72953   0.73483
 Alpha virt. eigenvalues --    0.73776   0.74233   0.75573   0.75715   0.75841
 Alpha virt. eigenvalues --    0.75964   0.77011   0.77339   0.77908   0.78067
 Alpha virt. eigenvalues --    0.78733   0.78899   0.79260   0.80110   0.80495
 Alpha virt. eigenvalues --    0.81680   0.82135   0.82289   0.82845   0.84522
 Alpha virt. eigenvalues --    0.85151   0.85906   0.87522   0.88043   0.88803
 Alpha virt. eigenvalues --    0.90801   0.90908   0.91397   0.91913   0.93325
 Alpha virt. eigenvalues --    0.94128   0.94503   0.95501   0.95629   0.95834
 Alpha virt. eigenvalues --    0.96393   0.98175   0.98361   0.98422   0.98572
 Alpha virt. eigenvalues --    0.99359   0.99679   1.00928   1.01652   1.02944
 Alpha virt. eigenvalues --    1.03408   1.04096   1.04539   1.04739   1.05908
 Alpha virt. eigenvalues --    1.06165   1.06923   1.08189   1.09199   1.10069
 Alpha virt. eigenvalues --    1.10979   1.12103   1.13127   1.13865   1.14438
 Alpha virt. eigenvalues --    1.14878   1.15613   1.16222   1.16361   1.16539
 Alpha virt. eigenvalues --    1.17166   1.17958   1.18731   1.20004   1.20260
 Alpha virt. eigenvalues --    1.20716   1.21224   1.21397   1.22019   1.22286
 Alpha virt. eigenvalues --    1.23137   1.24038   1.24144   1.24360   1.24929
 Alpha virt. eigenvalues --    1.25396   1.25504   1.25799   1.26667   1.27504
 Alpha virt. eigenvalues --    1.28339   1.28760   1.29953   1.30632   1.31395
 Alpha virt. eigenvalues --    1.31621   1.33071   1.33147   1.33500   1.33643
 Alpha virt. eigenvalues --    1.35365   1.35794   1.36225   1.36980   1.37084
 Alpha virt. eigenvalues --    1.37301   1.37793   1.38167   1.39952   1.40214
 Alpha virt. eigenvalues --    1.40921   1.41824   1.43837   1.45110   1.46001
 Alpha virt. eigenvalues --    1.46589   1.47531   1.48216   1.48821   1.49040
 Alpha virt. eigenvalues --    1.51716   1.51920   1.52117   1.54395   1.54832
 Alpha virt. eigenvalues --    1.58198   1.59842   1.60454   1.61543   1.63684
 Alpha virt. eigenvalues --    1.65072   1.66757   1.67744   1.71382   1.72973
 Alpha virt. eigenvalues --    1.74338   1.75787   1.76066   1.76715   1.77076
 Alpha virt. eigenvalues --    1.78314   1.79552   1.80881   1.83956   1.84131
 Alpha virt. eigenvalues --    1.84389   1.84580   1.84719   1.85330   1.85711
 Alpha virt. eigenvalues --    1.87266   1.88186   1.88750   1.90901   1.91584
 Alpha virt. eigenvalues --    1.91748   1.92325   1.94816   1.96021   1.96762
 Alpha virt. eigenvalues --    1.98202   1.98212   1.98508   1.99714   2.01261
 Alpha virt. eigenvalues --    2.02222   2.02933   2.03773   2.04980   2.05762
 Alpha virt. eigenvalues --    2.06136   2.06318   2.08198   2.09024   2.09405
 Alpha virt. eigenvalues --    2.09675   2.11136   2.11789   2.12813   2.12999
 Alpha virt. eigenvalues --    2.13859   2.14579   2.15961   2.17802   2.19549
 Alpha virt. eigenvalues --    2.19597   2.20159   2.20444   2.21010   2.23209
 Alpha virt. eigenvalues --    2.24237   2.25877   2.26405   2.27155   2.30291
 Alpha virt. eigenvalues --    2.30724   2.31104   2.31268   2.32559   2.32750
 Alpha virt. eigenvalues --    2.33120   2.33783   2.34148   2.36777   2.37203
 Alpha virt. eigenvalues --    2.40204   2.41263   2.43525   2.43763   2.44427
 Alpha virt. eigenvalues --    2.44661   2.47048   2.48234   2.49630   2.50433
 Alpha virt. eigenvalues --    2.50872   2.51237   2.52106   2.52580   2.53266
 Alpha virt. eigenvalues --    2.54645   2.55724   2.56701   2.59070   2.59382
 Alpha virt. eigenvalues --    2.61186   2.62415   2.62765   2.64018   2.64103
 Alpha virt. eigenvalues --    2.65754   2.67050   2.67592   2.68452   2.68627
 Alpha virt. eigenvalues --    2.70163   2.71983   2.72639   2.73891   2.74336
 Alpha virt. eigenvalues --    2.75124   2.76155   2.77666   2.77764   2.78522
 Alpha virt. eigenvalues --    2.80524   2.80572   2.82084   2.82946   2.83556
 Alpha virt. eigenvalues --    2.83680   2.85987   2.88677   2.90917   2.91639
 Alpha virt. eigenvalues --    2.94306   2.94803   2.95513   2.95658   2.99393
 Alpha virt. eigenvalues --    3.01412   3.03213   3.05842   3.09331   3.11995
 Alpha virt. eigenvalues --    3.15179   3.15934   3.19039   3.23477   3.27969
 Alpha virt. eigenvalues --    3.28315   3.28681   3.32293   3.37139   3.39572
 Alpha virt. eigenvalues --    3.46808   3.47661   3.56146   3.58133   3.60316
 Alpha virt. eigenvalues --    3.63500   3.71093   3.88156   3.91556   3.97432
 Alpha virt. eigenvalues --    4.04025   4.17895   4.22380   4.23239   4.24181
 Alpha virt. eigenvalues --    4.31047   4.34354   4.34786   4.36013   4.36332
 Alpha virt. eigenvalues --    4.37674   4.39067   4.40452   4.42168   4.43236
 Alpha virt. eigenvalues --    4.44230   4.47192   4.50225   4.51801   4.54932
 Alpha virt. eigenvalues --    4.58273   4.58489   4.62292   4.64554   4.79813
 Alpha virt. eigenvalues --    4.90365   4.98521   5.19481
          Condensed to atoms (all electrons):
              1          2          3          4          5          6
     1  Si  14.784225   0.076774   0.078979  -1.860139   1.596163  -0.405371
     2  H    0.076774   0.840034  -0.036075   0.242519  -0.213613   0.097162
     3  H    0.078979  -0.036075   0.838926   0.242637  -0.208984   0.096000
     4  C   -1.860139   0.242519   0.242637  15.949875  -7.791426   2.862623
     5  C    1.596163  -0.213613  -0.208984  -7.791426  19.263367  -1.749367
     6  C   -0.405371   0.097162   0.096000   2.862623  -1.749367  23.750701
     7  C    0.044003  -0.032259  -0.035203  -3.690769  -0.109556  -6.262432
     8  C   -0.453697   0.024101   0.019627  -1.582763  -0.956090 -12.616009
     9  S   -0.035319  -0.000055  -0.000396  -0.093837  -0.363990  -1.849996
    10  C   -0.075628   0.005214   0.004614  -0.325470   0.224499  -2.177002
    11  C   -0.105634   0.011393   0.011207  -0.450655   1.171614   0.133533
    12  N    0.002781  -0.000158  -0.000155   0.015498  -0.015158   0.016652
    13  C    0.002138  -0.000179  -0.000214   0.040067   0.011164  -0.180325
    14  C   -0.008097   0.000576   0.000506  -0.019580   0.255002  -0.238975
    15  C    0.000813  -0.000061  -0.000051   0.017288  -0.086244   0.003767
    16  C    0.000145  -0.000010  -0.000009   0.001866  -0.008640  -0.003016
    17  C    0.000119  -0.000023  -0.000021  -0.000099  -0.019763  -0.059967
    18  C   -0.000900   0.000003   0.000004  -0.015387   0.013087  -0.109224
    19  C    0.003894  -0.000457  -0.000366  -0.086255   0.038636   0.225042
    20  C    0.000020  -0.000002  -0.000001   0.000931  -0.005426  -0.004351
    21  C    0.000000  -0.000000  -0.000000   0.000052  -0.000421  -0.000706
    22  N   -0.000000   0.000000  -0.000000   0.000000   0.000000   0.000000
    23  C   -0.000000   0.000000   0.000000  -0.000001   0.000006  -0.000003
    24  C    0.000000  -0.000000  -0.000000  -0.000002  -0.000093   0.000106
    25  N    0.000000  -0.000000  -0.000000   0.000000  -0.000000  -0.000000
    26  S    0.000000  -0.000000  -0.000000   0.000003  -0.000017  -0.000002
    27  N    0.000000  -0.000000  -0.000000   0.000001  -0.000043   0.000008
    28  C    0.000012  -0.000001  -0.000000   0.000088  -0.001885   0.001338
    29  C    0.827970  -0.111423  -0.104099   0.445914  -3.684425  -0.708571
    30  C   -1.317117   0.102781   0.103800   4.965100  -7.260427   5.994498
    31  C    0.386622   0.018124   0.014030  -3.271607   4.971846  -1.647658
    32  H   -0.019157   0.001914   0.002075  -0.045194   0.105112   0.009189
    33  H   -0.078561  -0.024802  -0.024660  -0.297352  -0.227290   0.082780
    34  H    0.032485   0.000237   0.000496   0.041040   0.134742   0.551706
    35  H    0.000122  -0.000008  -0.000011   0.002253  -0.003622  -0.003884
    36  H   -0.000008  -0.000000   0.000001  -0.000280  -0.000020   0.000562
    37  H    0.000011  -0.000001  -0.000000  -0.000022   0.000100   0.000216
    38  H   -0.000311   0.000032   0.000019  -0.000032  -0.003428  -0.014734
    39  H   -0.000000   0.000000   0.000000   0.000007  -0.000030  -0.000042
    40  H    0.000000  -0.000000  -0.000000   0.000000  -0.000000   0.000000
    41  H    0.460046  -0.025504  -0.026594  -1.144253   0.455941  -0.045545
              7          8          9         10         11         12
     1  Si   0.044003  -0.453697  -0.035319  -0.075628  -0.105634   0.002781
     2  H   -0.032259   0.024101  -0.000055   0.005214   0.011393  -0.000158
     3  H   -0.035203   0.019627  -0.000396   0.004614   0.011207  -0.000155
     4  C   -3.690769  -1.582763  -0.093837  -0.325470  -0.450655   0.015498
     5  C   -0.109556  -0.956090  -0.363990   0.224499   1.171614  -0.015158
     6  C   -6.262432 -12.616009  -1.849996  -2.177002   0.133533   0.016652
     7  C   15.324820   3.721836   0.609616   0.149347  -1.276647   0.024163
     8  C    3.721836  23.817633   1.930838  -0.139026  -2.871752   0.029813
     9  S    0.609616   1.930838  18.339353   0.580624  -0.807079   0.046017
    10  C    0.149347  -0.139026   0.580624  12.444023  -0.244698  -0.150719
    11  C   -1.276647  -2.871752  -0.807079  -0.244698  12.423606   0.037940
    12  N    0.024163   0.029813   0.046017  -0.150719   0.037940   6.929018
    13  C    0.056974  -0.048345   0.439129  -0.178993   0.045947  -0.103293
    14  C   -0.263927  -1.681248  -0.481719  -0.379056   0.929438   0.341366
    15  C    0.047663   0.288818  -0.181861  -0.728281   0.609398  -0.012620
    16  C   -0.021446  -0.039586  -0.369421  -0.183227   0.102843   0.000901
    17  C   -0.042730  -0.196309  -0.426723  -0.249149   0.034972  -0.000840
    18  C   -0.115604  -0.149502  -0.366530  -0.206869  -0.318019   0.052146
    19  C    0.196303   0.779972   0.499872   1.030694  -2.700837   0.118161
    20  C    0.001395  -0.048747  -0.077159  -0.304222   0.365285  -0.004412
    21  C   -0.000987  -0.015817   0.000352  -0.033923   0.061345   0.000056
    22  N    0.000001  -0.000002   0.000153  -0.000082   0.000388  -0.000001
    23  C   -0.000039  -0.000047  -0.001108   0.001507  -0.003374  -0.000024
    24  C    0.000375   0.004122  -0.002400   0.037693   0.016233   0.000347
    25  N    0.000000  -0.000001  -0.000005  -0.000028   0.000390  -0.000008
    26  S    0.000005  -0.000089   0.000027  -0.000713   0.002883  -0.000249
    27  N   -0.000031   0.001088  -0.000220   0.004069   0.002879  -0.000185
    28  C    0.003495   0.028054  -0.023148   0.094276   0.145824  -0.000894
    29  C    0.244762   2.144635  -0.393044  -3.459880  -5.383156   0.116707
    30  C   -4.243572  -6.102542  -0.445466   0.171341   4.205367  -0.146670
    31  C    1.486758   0.816288   0.016693   0.087436   0.041007   0.000636
    32  H    0.006144  -0.025933   0.000473   0.007314   0.033695  -0.002130
    33  H    0.243776   0.193914   0.041745   0.003058  -0.080614   0.000200
    34  H    0.158382  -0.640557  -0.082563  -0.119483   0.006678   0.000533
    35  H   -0.000656   0.002028   0.031100   0.054100   0.040719  -0.156765
    36  H   -0.000252   0.010438  -0.005531   0.009022  -0.050917   0.011071
    37  H    0.001399   0.006719   0.035642   0.001367  -0.020549  -0.000077
    38  H   -0.004180  -0.024350  -0.062232  -0.025260   0.040913  -0.000211
    39  H   -0.000180  -0.001630  -0.005856  -0.002274   0.009711   0.000005
    40  H    0.000000   0.000002  -0.000021   0.000081   0.000049  -0.000000
    41  H    0.064311   0.069113   0.001631   0.000630  -0.009835   0.000074
             13         14         15         16         17         18
     1  Si   0.002138  -0.008097   0.000813   0.000145   0.000119  -0.000900
     2  H   -0.000179   0.000576  -0.000061  -0.000010  -0.000023   0.000003
     3  H   -0.000214   0.000506  -0.000051  -0.000009  -0.000021   0.000004
     4  C    0.040067  -0.019580   0.017288   0.001866  -0.000099  -0.015387
     5  C    0.011164   0.255002  -0.086244  -0.008640  -0.019763   0.013087
     6  C   -0.180325  -0.238975   0.003767  -0.003016  -0.059967  -0.109224
     7  C    0.056974  -0.263927   0.047663  -0.021446  -0.042730  -0.115604
     8  C   -0.048345  -1.681248   0.288818  -0.039586  -0.196309  -0.149502
     9  S    0.439129  -0.481719  -0.181861  -0.369421  -0.426723  -0.366530
    10  C   -0.178993  -0.379056  -0.728281  -0.183227  -0.249149  -0.206869
    11  C    0.045947   0.929438   0.609398   0.102843   0.034972  -0.318019
    12  N   -0.103293   0.341366  -0.012620   0.000901  -0.000840   0.052146
    13  C    9.744350  -1.628835  -0.180510  -1.569624   0.158919  -0.652383
    14  C   -1.628835  10.070682  -0.270829  -0.909980   0.631982   0.981529
    15  C   -0.180510  -0.270829  10.471083   1.460198   0.353712   0.003749
    16  C   -1.569624  -0.909980   1.460198  11.777628  -0.440484  -1.316284
    17  C    0.158919   0.631982   0.353712  -0.440484   7.359479   0.910119
    18  C   -0.652383   0.981529   0.003749  -1.316284   0.910119   8.101910
    19  C   -0.395695   0.300156  -1.143211  -1.389080  -0.997041   0.783286
    20  C   -0.184946  -0.766842   0.102088   3.533209  -1.200322  -0.909318
    21  C   -0.063423  -0.492942  -3.175573  -2.258474   0.107807   0.407761
    22  N    0.001394   0.004156   0.014825   0.087548  -0.007423   0.011846
    23  C   -0.002368   0.027648   0.574744  -0.041740  -0.255079  -0.077411
    24  C   -0.053691   0.317513  -0.345107  -3.135519   0.037212  -0.264105
    25  N   -0.001994  -0.019547  -0.076677   0.113390  -0.012160   0.002622
    26  S   -0.007457  -0.019459  -0.049149  -0.086982  -0.010817  -0.005610
    27  N   -0.015837  -0.143179  -0.107115   0.098087   0.033383   0.022500
    28  C   -0.075611   0.098834  -1.431732  -0.397234   0.286625  -0.378990
    29  C    0.538575  -0.175718   0.359529   0.083069   0.036246  -0.135340
    30  C   -0.296129   0.218430  -0.117614  -0.006896  -0.010667  -0.004680
    31  C    0.027154  -0.000155  -0.001133  -0.000160   0.000768   0.000586
    32  H    0.001123   0.002292  -0.000571  -0.000097  -0.000026  -0.000085
    33  H   -0.003108  -0.000165   0.000952   0.000442   0.000730   0.003400
    34  H   -0.001098  -0.012020  -0.001990  -0.001549  -0.004872  -0.004908
    35  H    0.815785  -0.442937  -0.037583  -0.075100  -0.008096  -0.080622
    36  H   -0.237972   0.039519   0.388633   0.076461  -0.038879   0.043993
    37  H    0.077777   0.150525   0.214852  -0.352895   0.470087   0.252344
    38  H   -0.090452   0.014237   0.027497   0.184715   0.062969   0.267304
    39  H   -0.019756  -0.067229  -0.320298  -0.352971  -0.006479  -0.003218
    40  H   -0.000146  -0.000014  -0.008590  -0.008517  -0.006073  -0.000879
    41  H    0.000480  -0.000085   0.000014  -0.000000   0.000005  -0.000022
             19         20         21         22         23         24
     1  Si   0.003894   0.000020   0.000000  -0.000000  -0.000000   0.000000
     2  H   -0.000457  -0.000002  -0.000000   0.000000   0.000000  -0.000000
     3  H   -0.000366  -0.000001  -0.000000  -0.000000   0.000000  -0.000000
     4  C   -0.086255   0.000931   0.000052   0.000000  -0.000001  -0.000002
     5  C    0.038636  -0.005426  -0.000421   0.000000   0.000006  -0.000093
     6  C    0.225042  -0.004351  -0.000706   0.000000  -0.000003   0.000106
     7  C    0.196303   0.001395  -0.000987   0.000001  -0.000039   0.000375
     8  C    0.779972  -0.048747  -0.015817  -0.000002  -0.000047   0.004122
     9  S    0.499872  -0.077159   0.000352   0.000153  -0.001108  -0.002400
    10  C    1.030694  -0.304222  -0.033923  -0.000082   0.001507   0.037693
    11  C   -2.700837   0.365285   0.061345   0.000388  -0.003374   0.016233
    12  N    0.118161  -0.004412   0.000056  -0.000001  -0.000024   0.000347
    13  C   -0.395695  -0.184946  -0.063423   0.001394  -0.002368  -0.053691
    14  C    0.300156  -0.766842  -0.492942   0.004156   0.027648   0.317513
    15  C   -1.143211   0.102088  -3.175573   0.014825   0.574744  -0.345107
    16  C   -1.389080   3.533209  -2.258474   0.087548  -0.041740  -3.135519
    17  C   -0.997041  -1.200322   0.107807  -0.007423  -0.255079   0.037212
    18  C    0.783286  -0.909318   0.407761   0.011846  -0.077411  -0.264105
    19  C    9.918553  -0.597381   0.154319   0.008967  -0.038612   0.046787
    20  C   -0.597381  14.653814  -4.796614   0.644125   1.528674  -5.277910
    21  C    0.154319  -4.796614  13.683115  -0.213625  -2.153536   1.407351
    22  N    0.008967   0.644125  -0.213625   6.781577   0.051481   0.077092
    23  C   -0.038612   1.528674  -2.153536   0.051481  13.770121  -3.300986
    24  C    0.046787  -5.277910   1.407351   0.077092  -3.300986  22.252380
    25  N   -0.006064   0.204749   0.077391   0.003787  -0.630224  -0.707376
    26  S   -0.000346  -0.088294   0.078290   0.002121  -0.130618   0.150305
    27  N   -0.062622  -0.226182   0.294191  -0.002464   0.195142   0.317958
    28  C   -0.220581   0.310849   1.796988  -0.033153  -3.724118  -5.718055
    29  C   -1.131955   0.026650   0.002875  -0.000006   0.000053  -0.001822
    30  C    0.220535  -0.006756  -0.000332  -0.000000   0.000006  -0.000017
    31  C    0.008272   0.000019   0.000002  -0.000000   0.000000  -0.000001
    32  H   -0.000473  -0.000010  -0.000000   0.000000   0.000000  -0.000001
    33  H    0.002783   0.000017   0.000000  -0.000000   0.000000   0.000001
    34  H    0.024373  -0.000683  -0.000136  -0.000000  -0.000001   0.000005
    35  H   -0.037117   0.010493   0.006061   0.000132  -0.000577   0.002218
    36  H    0.009697  -0.005552  -0.016249  -0.003927   0.001661  -0.033481
    37  H    0.029679  -0.139684  -0.238646   0.020060  -0.029998  -0.049846
    38  H   -0.230110   0.053796  -0.002420  -0.000108   0.003738   0.006833
    39  H    0.029412  -0.666509   1.279893  -0.220871  -0.011661   0.147514
    40  H   -0.001408   0.024904  -0.026563  -0.126372   0.752568  -0.385580
    41  H   -0.000067   0.000001   0.000000   0.000000  -0.000000  -0.000000
             25         26         27         28         29         30
     1  Si   0.000000   0.000000   0.000000   0.000012   0.827970  -1.317117
[...]
    40  H   14.333915  13.547842  12.121776  10.798965   9.638763
    41  H    5.580042   6.806635   6.995027   8.608222   8.144201
                   11         12         13         14         15
    11  C    0.000000
    12  N    1.371355   0.000000
    13  C    2.295110   1.313433   0.000000
    14  C    2.767829   2.434779   1.430159   0.000000
    15  C    4.182545   3.706870   2.479338   1.415933   0.000000
    16  C    5.077132   4.876225   3.753093   2.443793   1.388445
    17  C    4.890887   5.083167   4.224104   2.794087   2.414686
    18  C    3.808276   4.295935   3.749372   2.445845   2.810664
    19  C    2.470494   2.879406   2.462030   1.429777   2.464342
    20  C    6.532003   6.221963   5.012819   3.828480   2.533768
    21  C    7.428666   7.253439   6.102832   4.848249   3.678064
    22  N    8.784754   8.553892   7.363709   6.161736   4.915850
    23  C    9.358356   8.976647   7.719543   6.632382   5.275308
    24  C    8.752651   8.234833   6.946445   5.994427   4.594946
    25  N    9.539314   8.896448   7.600223   6.811337   5.425855
    26  S    8.728878   7.967133   6.707243   6.131963   4.856029
    27  N    7.163705   6.486956   5.218056   4.522638   3.237582
    28  C    7.331767   6.817507   5.539373   4.582762   3.195133
    29  C    1.441448   2.520238   3.670140   4.198018   5.613948
    30  C    3.626417   3.840673   5.144142   6.179786   7.525896
    31  C    5.724194   5.398862   6.526912   7.825952   9.005101
    32  H    5.700364   5.125550   6.118788   7.490192   8.565862
    33  H    5.102889   6.023745   7.273452   7.851945   9.266769
    34  H    4.574546   5.859691   6.857332   6.960552   8.296929
    35  H    3.277293   2.051183   1.090551   2.169037   2.688814
    36  H    4.759372   3.992035   2.679086   2.148769   1.081897
    37  H    5.871832   6.147441   5.308513   3.878557   3.391217
    38  H    4.204084   4.959754   4.626483   3.431828   3.895699
    39  H    7.202412   7.192954   6.153206   4.837818   3.894555
    40  H   10.441766  10.045498   8.780404   7.713086   6.349014
    41  H    6.764242   6.502380   7.641710   8.933073  10.120265
                   16         17         18         19         20
    16  C    0.000000
    17  C    1.428524   0.000000
    18  C    2.452924   1.375375   0.000000
    19  C    2.851267   2.424919   1.418928   0.000000
    20  C    1.482876   2.497688   3.779201   4.331786   0.000000
    21  C    2.474343   2.952957   4.289078   5.109226   1.379402
    22  N    3.782836   4.285326   5.633921   6.478510   2.459918
    23  C    4.314514   5.075168   6.439751   7.147971   2.837950
    24  C    3.885784   4.910492   6.211901   6.706375   2.481564
    25  N    4.935231   6.043273   7.288301   7.655494   3.655438
    26  S    4.730501   5.954718   7.019041   7.128138   3.828652
    27  N    3.141562   4.401314   5.404866   5.486149   2.500143
    28  C    2.600047   3.771645   4.980230   5.343145   1.439254
    29  C    6.443049   6.098979   4.881350   3.694434   7.913849
    30  C    8.601710   8.516627   7.407413   6.096696  10.007755
    31  C   10.254538  10.449140   9.503752   8.110614  11.538043
    32  H    9.871760  10.206865   9.372964   7.957455  11.081556
    33  H   10.017109   9.481205   8.153176   7.186963  11.498491
    34  H    8.729154   7.898537   6.523253   5.915823  10.186800
    35  H    4.073390   4.844100   4.611870   3.440814   5.110078
    36  H    2.152034   3.409020   3.892282   3.431808   2.782948
    37  H    2.168070   1.084978   2.128924   3.405579   2.671764
    38  H    3.433777   2.137051   1.085266   2.169531   4.634635
    39  H    2.656651   2.672804   3.884641   4.845228   2.124591
    40  H    5.399018   6.118172   7.487958   8.227781   3.923703
    41  H   11.365042  11.535805  10.561775   9.179370  12.653442
                   21         22         23         24         25
    21  C    0.000000
    22  N    1.372767   0.000000
    23  C    2.312627   1.305991   0.000000
    24  C    2.710836   2.375213   1.423032   0.000000
    25  N    4.043363   3.625428   2.460327   1.335596   0.000000
    26  S    4.695774   4.718641   3.788273   2.386931   1.637587
    27  N    3.658876   4.131156   3.629347   2.313215   2.507423
    28  C    2.373683   2.809562   2.477421   1.444636   2.336321
    29  C    8.754005  10.120788  10.744586  10.169673  10.964284
    30  C   10.964204  12.298532  12.793960  12.069514  12.701088
    31  C   12.598710  13.862956  14.194396  13.326575  13.771550
    32  H   12.177644  13.398463  13.656382  12.742290  13.121333
    33  H   12.251693  13.624143  14.324200  13.797161  14.600493
    34  H   10.759854  12.112320  12.938423  12.589103  13.526368
    35  H    6.273410   7.431654   7.630174   6.739829   7.246267
    36  H    4.009355   5.073760   5.203746   4.338467   4.976027
    37  H    2.684667   3.869489   4.778025   4.858737   6.057869
    38  H    4.944331   6.229621   7.130236   7.030204   8.143205
    39  H    1.081806   2.069413   3.249673   3.790036   5.123808
    40  H    3.299562   2.064758   1.085870   2.179095   2.757666
    41  H   13.710571  14.977027  15.309727  14.436467  14.866431
                   26         27         28         29         30
    26  S    0.000000
    27  N    1.645397   0.000000
    28  C    2.404648   1.334557   0.000000
    29  C   10.135394   8.577709   8.749481   0.000000
    30  C   11.673023  10.252420  10.644693   2.662574   0.000000
    31  C   12.587754  11.359884  11.946646   5.102967   2.576248
    32  H   11.907925  10.753373  11.394996   5.342462   3.114059
    33  H   13.738556  12.198184  12.379751   3.661535   3.186828
    34  H   12.873348  11.266818  11.232907   3.395162   4.674761
    35  H    6.245469   4.898380   5.388189   4.562676   5.623472
    36  H    4.247220   2.752195   2.991624   6.198199   7.818477
    37  H    6.211497   4.793242   3.960637   7.004587   9.494026
    38  H    7.952062   6.367551   5.878479   5.021594   7.655623
    39  H    5.738839   4.589470   3.368884   8.448058  10.760520
    40  H    4.315019   4.491000   3.463857  11.828280  13.867561
    41  H   13.662782  12.455875  13.058050   6.031477   3.399279
                   31         32         33         34         35
    31  C    0.000000
    32  H    1.067705   0.000000
    33  H    5.212326   6.055670   0.000000
    34  H    7.155149   7.788657   2.560712   0.000000
    35  H    6.600720   6.029074   8.057799   7.849812   0.000000
    36  H    9.014230   8.458592   9.854679   9.102455   2.429582
    37  H   11.491092  11.272907  10.255735   8.492608   5.910579
    38  H    9.917052   9.894104   7.963798   6.064947   5.566043
    39  H   12.534362  12.185598  11.830023  10.215837   6.473672
    40  H   15.232699  14.672872  15.405196  13.996487   8.652058
    41  H    1.116156   1.890082   5.541989   7.727701   7.710534
                   36         37         38         39         40
    36  H    0.000000
    37  H    4.302026   0.000000
    38  H    4.977304   2.451872   0.000000
    39  H    4.429097   2.262648   4.389122   0.000000
    40  H    6.229170   5.745572   8.138474   4.130352   0.000000
    41  H   10.127213  12.570383  10.934733  13.634408  16.346895
                   41
    41  H    0.000000
 Stoichiometry    C22H12N4S2Si
 Framework group  C1[X(C22H12N4S2Si)]
 Deg. of freedom   117
 Full point group                 C1      NOp   1
 Largest Abelian subgroup         C1      NOp   1
 Largest concise Abelian subgroup C1      NOp   1
                         Standard orientation:                         
 ---------------------------------------------------------------------
 Center     Atomic      Atomic             Coordinates (Angstroms)
 Number     Number       Type             X           Y           Z
 ---------------------------------------------------------------------
      1         14           0        8.455018    2.069116   -0.106622
      2          1           0        8.875614    3.069842    0.934507
      3          1           0        9.115485    2.555350   -1.369990
      4          6           0        6.299472    2.002365   -0.341418
      5          6           0        5.357677   -0.289195    0.065017
      6          6           0        5.884464   -1.608480    0.374207
      7          6           0        4.951520   -2.565447    0.528327
      8          6           0        3.594198   -2.073761    0.366390
      9         16           0        2.057271   -2.931335    0.477456
     10          6           0        1.184656   -1.434243    0.130220
     11          6           0        2.070981   -0.340916   -0.059966
     12          7           0        1.612640    0.920525   -0.341577
     13          6           0        0.312894    1.086880   -0.431524
     14          6           0       -0.661379    0.054649   -0.256467
     15          6           0       -2.046236    0.326671   -0.370668
     16          6           0       -2.992900   -0.676000   -0.208623
     17          6           0       -2.530204   -1.991210    0.102532
     18          6           0       -1.191747   -2.284816    0.220787
     19          6           0       -0.215471   -1.271373    0.038648
     20          6           0       -4.452923   -0.465624   -0.360270
     21          6           0       -5.219503   -1.430220   -0.980481
     22          7           0       -6.578374   -1.400068   -1.172963
     23          6           0       -7.261386   -0.367796   -0.756405
     24          6           0       -6.616566    0.723485   -0.109619
     25          7           0       -7.209946    1.823847    0.360403
     26         16           0       -6.023580    2.744219    1.013966
     27          7           0       -4.729570    1.770229    0.723769
     28          6           0       -5.186878    0.685975    0.094241
     29          6           0        3.442697   -0.757575    0.090245
     30          6           0        5.450171    0.968309   -0.193782
     31          6           0        6.447673    3.308845   -0.598675
     32          1           0        5.673943    4.010559   -0.819886
     33          1           0        6.941238   -1.768680    0.470661
     34          1           0        5.174874   -3.600245    0.758018
     35          1           0       -0.040136    2.094442   -0.653989
     36          1           0       -2.349329    1.341859   -0.589824
     37          1           0       -3.263529   -2.771446    0.277581
     38          1           0       -0.875474   -3.292193    0.471719
     39          1           0       -4.730434   -2.307847   -1.381588
     40          1           0       -8.336062   -0.348875   -0.910764
     41          1           0        7.514000    3.638612   -0.600219
 ---------------------------------------------------------------------
 Rotational constants (GHZ):      0.3255743      0.0477220      0.0424476
 Standard basis: 6-31++G(d,p) (6D, 7F)
 There are   635 symmetry adapted basis functions of A   symmetry.
 Integral buffers will be    131072 words long.
 Raffenetti 2 integral format.
 Two-electron integral symmetry is turned on.
   635 basis functions,  1096 primitive gaussians,   635 cartesian basis functions
   109 alpha electrons      109 beta electrons
       nuclear repulsion energy      2671.4219778121 Hartrees.
 NAtoms=   41 NActive=   41 NUniq=   41 SFac= 1.00D+00 NAtFMM=   60 NAOKFM=F Big=F
 One-electron integrals computed using PRISM.
 NBasis=   635 RedAO= T  NBF=   635
 NBsUse=   624 1.00D-06 NBFU=   624
 Initial guess read from the read-write file.
 B after Tr=     0.000000    0.000000    0.000000
         Rot=    1.000000   -0.000000    0.000000    0.000000 Ang=   0.00 deg.
 Initial guess orbital symmetries:
       Occupied  (A) (A) (A) (A) (A) (A) (A) (A) (A) (A) (A) (A)
                 (A) (A) (A) (A) (A) (A) (A) (A) (A) (A) (A) (A)
                 (A) (A) (A) (A) (A) (A) (A) (A) (A) (A) (A) (A)
                 (A) (A) (A) (A) (A) (A) (A) (A) (A) (A) (A) (A)
                 (A) (A) (A) (A) (A) (A) (A) (A) (A) (A) (A) (A)
                 (A) (A) (A) (A) (A) (A) (A) (A) (A) (A) (A) (A)
                 (A) (A) (A) (A) (A) (A) (A) (A) (A) (A) (A) (A)
                 (A) (A) (A) (A) (A) (A) (A) (A) (A) (A) (A) (A)
                 (A) (A) (A) (A) (A) (A) (A) (A) (A) (A) (A) (A)
                 (A)
       Virtual   (A) (A) (A) (A) (A) (A) (A) (A) (A) (A) (A) (A)
                 (A) (A) (A) (A) (A) (A) (A) (A) (A) (A) (A) (A)
                 (A) (A) (A) (A) (A) (A) (A) (A) (A) (A) (A) (A)
                 (A) (A) (A) (A) (A) (A) (A) (A) (A) (A) (A) (A)
                 (A) (A) (A) (A) (A) (A) (A) (A) (A) (A) (A) (A)
                 (A) (A) (A) (A) (A) (A) (A) (A) (A) (A) (A) (A)
                 (A) (A) (A) (A) (A) (A) (A) (A) (A) (A) (A) (A)
                 (A) (A) (A) (A) (A) (A) (A) (A) (A) (A) (A) (A)
                 (A) (A) (A) (A) (A) (A) (A) (A) (A) (A) (A) (A)
                 (A) (A) (A) (A) (A) (A) (A) (A) (A) (A) (A) (A)
                 (A) (A) (A) (A) (A) (A) (A) (A) (A) (A) (A) (A)
                 (A) (A) (A) (A) (A) (A) (A) (A) (A) (A) (A) (A)
                 (A) (A) (A) (A) (A) (A) (A) (A) (A) (A) (A) (A)
                 (A) (A) (A) (A) (A) (A) (A) (A) (A) (A) (A) (A)
                 (A) (A) (A) (A) (A) (A) (A) (A) (A) (A) (A) (A)
                 (A) (A) (A) (A) (A) (A) (A) (A) (A) (A) (A) (A)
                 (A) (A) (A) (A) (A) (A) (A) (A) (A) (A) (A) (A)
                 (A) (A) (A) (A) (A) (A) (A) (A) (A) (A) (A) (A)
                 (A) (A) (A) (A) (A) (A) (A) (A) (A) (A) (A) (A)
                 (A) (A) (A) (A) (A) (A) (A) (A) (A) (A) (A) (A)
                 (A) (A) (A) (A) (A) (A) (A) (A) (A) (A) (A) (A)
                 (A) (A) (A) (A) (A) (A) (A) (A) (A) (A) (A) (A)
                 (A) (A) (A) (A) (A) (A) (A) (A) (A) (A) (A) (A)
                 (A) (A) (A) (A) (A) (A) (A) (A) (A) (A) (A) (A)
                 (A) (A) (A) (A) (A) (A) (A) (A) (A) (A) (A) (A)
                 (A) (A) (A) (A) (A) (A) (A) (A) (A) (A) (A) (A)
                 (A) (A) (A) (A) (A) (A) (A) (A) (A) (A) (A) (A)
                 (A) (A) (A) (A) (A) (A) (A) (A) (A) (A) (A) (A)
                 (A) (A) (A) (A) (A) (A) (A) (A) (A) (A) (A) (A)
                 (A) (A) (A) (A) (A) (A) (A) (A) (A) (A) (A) (A)
                 (A) (A) (A) (A) (A) (A) (A) (A) (A) (A) (A) (A)
                 (A) (A) (A) (A) (A) (A) (A) (A) (A) (A) (A) (A)
                 (A) (A) (A) (A) (A) (A) (A) (A) (A) (A) (A) (A)
                 (A) (A) (A) (A) (A) (A) (A) (A) (A) (A) (A) (A)
                 (A) (A) (A) (A) (A) (A) (A) (A) (A) (A) (A) (A)
                 (A) (A) (A) (A) (A) (A) (A) (A) (A) (A) (A) (A)
                 (A) (A) (A) (A) (A) (A) (A) (A) (A) (A) (A) (A)
                 (A) (A) (A) (A) (A) (A) (A) (A) (A) (A) (A) (A)
                 (A) (A) (A) (A) (A) (A) (A) (A) (A) (A) (A) (A)
                 (A) (A) (A) (A) (A) (A) (A) (A) (A) (A) (A) (A)
                 (A) (A) (A) (A) (A) (A) (A) (A) (A) (A) (A) (A)
                 (A) (A) (A) (A) (A) (A) (A) (A) (A) (A) (A) (A)
                 (A) (A) (A) (A) (A) (A) (A) (A) (A) (A) (A)
 Harris functional with IExCor=  402 diagonalized for initial guess.
 ExpMin= 3.31D-02 ExpMax= 2.19D+04 ExpMxC= 3.30D+03 IAcc=3 IRadAn=         5 AccDes= 0.00D+00
 HarFok:  IExCor=  402 AccDes= 0.00D+00 IRadAn=         5 IDoV= 1
 ScaDFX=  1.000000  1.000000  1.000000  1.000000
 FoFCou: FMM=F IPFlag=           0 FMFlag=      100000 FMFlg1=           0
         NFxFlg=           0 DoJE=T BraDBF=F KetDBF=T FulRan=T
         Omega=  0.000000  0.000000  1.000000  0.000000  0.000000 ICntrl=     500 IOpCl=  0
         NMat0=    1 NMatS0=    1 NMatT0=    0 NMatD0=    1 NMtDS0=    0 NMtDT0=    0
         I1Cent=           4 NGrid=           0.
 Petite list used in FoFCou.
 Requested convergence on RMS density matrix=1.00D-08 within 128 cycles.
 Requested convergence on MAX density matrix=1.00D-06.
 Requested convergence on             energy=1.00D-06.
 No special actions if energy rises.
 Restarting incremental Fock formation.
 SCF Done:  E(RB3LYP) =  -2150.20236827     A.U. after   25 cycles
             Convg  =    0.6697D-08             -V/T =  2.0065
 Calling FoFJK, ICntrl=      2127 FMM=F ISym2X=0 I1Cent= 0 IOpClX= 0 NMat=1 NMatS=1 NMatT=0.
 ***** Axes restored to original set *****
 -------------------------------------------------------------------
 Center     Atomic                   Forces (Hartrees/Bohr)
 Number     Number              X              Y              Z
 -------------------------------------------------------------------
      1       14          -0.027888374    0.003479473   -0.005596497
      2        1           0.005415488    0.002887090    0.002189781
      3        1           0.005733910    0.002895094   -0.000685522
      4        6           0.003933692   -0.009562195    0.000055844
      5        6          -0.005118069   -0.088289740   -0.008398067
      6        6           0.024008294    0.012762120    0.005347443
      7        6          -0.007335088   -0.018783418   -0.002917676
      8        6          -0.008230201   -0.005192400   -0.001710015
      9       16           0.001515670   -0.001733059    0.000134888
     10        6          -0.009300965    0.010340097   -0.000629230
     11        6           0.002188028    0.004797670    0.000374322
     12        7          -0.001791594    0.001675758   -0.000120218
     13        6          -0.000837020    0.003430985   -0.000006424
     14        6          -0.000059505   -0.003504815   -0.000164815
     15        6          -0.001167739   -0.000057341   -0.001322836
     16        6          -0.000982959   -0.000337544   -0.002800233
     17        6           0.000857288   -0.000197946    0.000008018
     18        6          -0.000399590    0.001780195   -0.000023078
     19        6           0.004654944   -0.001525747    0.000670274
     20        6           0.002378231    0.003813642    0.000327284
     21        6           0.000735140   -0.005313540    0.000619983
     22        7          -0.004272754    0.000965808    0.002170309
     23        6           0.001644853   -0.002485050   -0.000289835
     24        6          -0.000113723    0.000072332    0.000047874
     25        7           0.003149876   -0.003048286   -0.000588844
     26       16          -0.003030359    0.001604507    0.000849234
     27        7           0.002558138    0.008296236   -0.002320445
     28        6          -0.001867721   -0.000239740    0.001071613
     29        6          -0.003450065    0.041846855    0.003683938
     30        6           0.012732406    0.035865308    0.003958062
     31        6          -0.030357483    0.012284173   -0.002132582
     32        1           0.012511535   -0.003916686    0.000600010
     33        1          -0.003326449    0.007031532    0.000395567
     34        1          -0.000706925    0.001421416   -0.000125736
     35        1          -0.000410781    0.000753357    0.000073715
     36        1           0.002592208   -0.001474769    0.000277225
     37        1          -0.000821497    0.000486490   -0.000146393
     38        1          -0.000513127   -0.000496234   -0.000057098
     39        1          -0.002278320   -0.000567510    0.001559866
     40        1          -0.000300019   -0.001305170    0.000370113
     41        1           0.027950630   -0.010458946    0.005250181
 -------------------------------------------------------------------
 Cartesian Forces:  Max     0.088289740 RMS     0.011467688

 GradGradGradGradGradGradGradGradGradGradGradGradGradGradGradGradGradGrad
 Berny optimization.
 Using GEDIIS/GDIIS optimizer.
 NTrRot=    -1 NTRed=   255 NAtoms=    41 NSkip=   138 IsLin=F
 Error in internal coordinate system.
 Error termination via Lnk1e in /opt/gaussian/g09/l103.exe at Sun Dec 29 04:15:53 2013.
 Job cpu time:  2 days 12 hours 22 minutes 18.8 seconds.
 File lengths (MBytes):  RWF=    286 Int=      0 D2E=      0 Chk=     30 Scr=      1
