 Entering Gaussian System, Link 0=g09
 Initial command:
 /opt/gaussian/g09/l1.exe /panfs/panfs.cluster/home/shuo/Gau-5367.inp -scrdir=/panfs/panfs.cluster/home/shuo/
 Default is to use a total of  12 processors:
                               12 via shared-memory
                                1 via Linda
 Entering Link 1 = /opt/gaussian/g09/l1.exe PID=      5368.
  
 Copyright (c) 1988,1990,1992,1993,1995,1998,2003,2009,2011,
            Gaussian, Inc.  All Rights Reserved.
  
 This is part of the Gaussian(R) 09 program.  It is based on
 the Gaussian(R) 03 system (copyright 2003, Gaussian, Inc.),
 the Gaussian(R) 98 system (copyright 1998, Gaussian, Inc.),
 the Gaussian(R) 94 system (copyright 1995, Gaussian, Inc.),
 the Gaussian 92(TM) system (copyright 1992, Gaussian, Inc.),
 the Gaussian 90(TM) system (copyright 1990, Gaussian, Inc.),
 the Gaussian 88(TM) system (copyright 1988, Gaussian, Inc.),
 the Gaussian 86(TM) system (copyright 1986, Carnegie Mellon
 University), and the Gaussian 82(TM) system (copyright 1983,
 Carnegie Mellon University). Gaussian is a federally registered
 trademark of Gaussian, Inc.
  
 This software contains proprietary and confidential information,
 including trade secrets, belonging to Gaussian, Inc.
  
 This software is provided under written license and may be
 used, copied, transmitted, or stored only in accord with that
 written license.
  
 The following legend is applicable only to US Government
 contracts under FAR:
  
                    RESTRICTED RIGHTS LEGEND
  
 Use, reproduction and disclosure by the US Government is
 subject to restrictions as set forth in subparagraphs (a)
 and (c) of the Commercial Computer Software - Restricted
 Rights clause in FAR 52.227-19.
  
 Gaussian, Inc.
 340 Quinnipiac St., Bldg. 40, Wallingford CT 06492
  
  
 ---------------------------------------------------------------
 Warning -- This program may not be used in any manner that
 competes with the business of Gaussian, Inc. or will provide
 assistance to any competitor of Gaussian, Inc.  The licensee
 of this program is prohibited from giving any competitor of
 Gaussian, Inc. access to this program.  By using this program,
 the user acknowledges that Gaussian, Inc. is engaged in the
 business of creating and licensing software in the field of
 computational chemistry and represents and warrants to the
 licensee that it is not a competitor of Gaussian, Inc. and that
 it will not use this program in any manner prohibited above.
 ---------------------------------------------------------------
  

 Cite this work as:
 Gaussian 09, Revision C.01,
 M. J. Frisch, G. W. Trucks, H. B. Schlegel, G. E. Scuseria, 
 M. A. Robb, J. R. Cheeseman, G. Scalmani, V. Barone, B. Mennucci, 
 G. A. Petersson, H. Nakatsuji, M. Caricato, X. Li, H. P. Hratchian, 
 A. F. Izmaylov, J. Bloino, G. Zheng, J. L. Sonnenberg, M. Hada, 
 M. Ehara, K. Toyota, R. Fukuda, J. Hasegawa, M. Ishida, T. Nakajima, 
 Y. Honda, O. Kitao, H. Nakai, T. Vreven, J. A. Montgomery, Jr., 
 J. E. Peralta, F. Ogliaro, M. Bearpark, J. J. Heyd, E. Brothers, 
 K. N. Kudin, V. N. Staroverov, T. Keith, R. Kobayashi, J. Normand, 
 K. Raghavachari, A. Rendell, J. C. Burant, S. S. Iyengar, J. Tomasi, 
 M. Cossi, N. Rega, J. M. Millam, M. Klene, J. E. Knox, J. B. Cross, 
 V. Bakken, C. Adamo, J. Jaramillo, R. Gomperts, R. E. Stratmann, 
 O. Yazyev, A. J. Austin, R. Cammi, C. Pomelli, J. W. Ochterski, 
 R. L. Martin, K. Morokuma, V. G. Zakrzewski, G. A. Voth, 
 P. Salvador, J. J. Dannenberg, S. Dapprich, A. D. Daniels, 
 O. Farkas, J. B. Foresman, J. V. Ortiz, J. Cioslowski, 
 and D. J. Fox, Gaussian, Inc., Wallingford CT, 2010.
 
 ******************************************
 Gaussian 09:  EM64L-G09RevC.01 23-Sep-2011
                28-Dec-2013 
 ******************************************
 %chk=14_C24H14N4SSi.chk
 %NProcShared=12
 Will use up to   12 processors via shared memory.
 %Mem=8000MB
 Default route:  MaxDisk=100GB
 --------------------------------------------
 #B3LYP/6-31++G(d,p) opt scf=direct freq test
 --------------------------------------------
 1/14=-1,18=20,19=15,26=3,38=1/1,3;
 2/9=110,12=2,17=6,18=5,40=1/2;
 3/5=1,6=6,7=1111,11=2,16=1,25=1,30=1,71=1,74=-5/1,2,3;
 4//1;
 5/5=2,38=5/2;
 6/7=2,8=2,9=2,10=2,28=1/1;
 7//1,2,3,16;
 1/14=-1,18=20,19=15/3(2);
 2/9=110/2;
 99//99;
 2/9=110/2;
 3/5=1,6=6,7=1111,11=2,16=1,25=1,30=1,71=1,74=-5/1,2,3;
 4/5=5,16=3/1;
 5/5=2,38=5/2;
 7//1,2,3,16;
 1/14=-1,18=20,19=15/3(-5);
 2/9=110/2;
 6/7=2,8=2,9=2,10=2,19=2,28=1/1;
 99/9=1/99;
 ----------------------------------------------------------------------
 Geom opt of No.14 candidate from the CEPDB database with SMILE code of
  C1ccc2c1c(sc2-c1cccnc1)-c1[SiH2]c(cc1)-c1cncc2nsnc12, HPC, 20131227, 
 Shuo Dai, Gaussian09
 ----------------------------------------------------------------------
 Charge =  0 Multiplicity = 1
 Symbolic Z-Matrix:
 C                    -1.4381    1.25606   0.03568 
 C                    -2.25225  -0.036    -0.02439 
 C                    -1.44142  -1.13444  -0.04264 
 C                    -0.1007   -0.71553   0.06103 
 C                    -0.06549   0.70167   0.16971 
 C                     1.18953   1.1576    0.36953 
 S                     2.30874  -0.17425   0.46002 
 C                     1.13397  -1.32538   0.08823 
 C                     1.5983   -2.68285  -0.01615 
 C                     2.8837   -3.0044   -0.49385 
 C                     3.28802  -4.32347  -0.53065 
 C                     2.35719  -5.28203  -0.17682 
 N                     1.13052  -5.01419   0.32593 
 C                     0.80146  -3.71635   0.43625 
 C                     1.92411   2.42584   0.30149 
 Si                    2.35361   2.60111  -1.52066 
 H                     3.70351   2.01547  -1.65372 
 H                     1.41294   2.12339  -2.57349 
 C                     2.41256   4.42112  -1.3872 
 C                     1.9299    4.87103  -0.20609 
 C                     1.748     3.81859   0.87671 
 C                     3.40206   5.09752  -2.20906 
 C                     4.51986   4.4495   -2.79053 
 N                     5.6134    4.99855  -3.37819 
 C                     5.71404   6.34333  -3.45792 
 C                     4.66224   7.13688  -2.95752 
 N                     4.60155   8.47616  -2.9638 
 S                     3.16452   8.88937  -2.24516 
 N                     2.55777   7.39349  -1.89455 
 C                     3.46505   6.49663  -2.32216 
 H                    -1.67746   1.85618   0.91536 
 H                    -1.56878   1.84124  -0.88071 
 H                    -3.32495  -0.06714  -0.02586 
 H                    -1.77475  -2.15734  -0.06504 
 H                     3.58521  -2.23902  -0.82495 
 H                     4.29227  -4.58603  -0.8409 
 H                     2.57802  -6.33447  -0.2945 
 H                    -0.13651  -3.50754   0.94126 
 H                     2.77248   2.15175   0.9361 
 H                     2.01185   5.90376   0.12325 
 H                     0.95212   3.97882   1.5992 
 H                     2.68465   3.98884   1.45493 
 H                     4.62719   3.36616  -2.77481 
 H                     6.61217   6.72869  -3.91139 
 

 GradGradGradGradGradGradGradGradGradGradGradGradGradGradGradGradGradGrad
 Berny optimization.
 Initialization pass.
                           ----------------------------
                           !    Initial Parameters    !
                           ! (Angstroms and Degrees)  !
 --------------------------                            --------------------------
 ! Name  Definition              Value          Derivative Info.                !
 --------------------------------------------------------------------------------
 ! R1    R(1,2)                  1.5284         estimate D2E/DX2                !
 ! R2    R(1,5)                  1.4864         estimate D2E/DX2                !
 ! R3    R(1,31)                 1.0915         estimate D2E/DX2                !
 ! R4    R(1,32)                 1.0951         estimate D2E/DX2                !
 ! R5    R(2,3)                  1.3654         estimate D2E/DX2                !
 ! R6    R(2,33)                 1.0732         estimate D2E/DX2                !
 ! R7    R(3,4)                  1.4085         estimate D2E/DX2                !
 ! R8    R(3,34)                 1.0761         estimate D2E/DX2                !
 ! R9    R(4,5)                  1.4218         estimate D2E/DX2                !
 ! R10   R(4,8)                  1.3773         estimate D2E/DX2                !
 ! R11   R(5,6)                  1.3501         estimate D2E/DX2                !
 ! R12   R(6,7)                  1.742          estimate D2E/DX2                !
 ! R13   R(6,15)                 1.4672         estimate D2E/DX2                !
 ! R14   R(7,8)                  1.6862         estimate D2E/DX2                !
 ! R15   R(8,9)                  1.4385         estimate D2E/DX2                !
 ! R16   R(9,10)                 1.4085         estimate D2E/DX2                !
 ! R17   R(9,14)                 1.3812         estimate D2E/DX2                !
 ! R18   R(10,11)                1.3801         estimate D2E/DX2                !
 ! R19   R(10,35)                1.0897         estimate D2E/DX2                !
 ! R20   R(11,12)                1.3822         estimate D2E/DX2                !
 ! R21   R(11,36)                1.0834         estimate D2E/DX2                !
 ! R22   R(12,13)                1.3525         estimate D2E/DX2                !
 ! R23   R(12,37)                1.0818         estimate D2E/DX2                !
 ! R24   R(13,14)                1.3434         estimate D2E/DX2                !
 ! R25   R(14,38)                1.0856         estimate D2E/DX2                !
 ! R26   R(15,16)                1.8803         estimate D2E/DX2                !
 ! R27   R(15,21)                1.5171         estimate D2E/DX2                !
 ! R28   R(15,39)                1.0943         estimate D2E/DX2                !
 ! R29   R(16,17)                1.4775         estimate D2E/DX2                !
 ! R30   R(16,18)                1.4905         estimate D2E/DX2                !
 ! R31   R(16,19)                1.8258         estimate D2E/DX2                !
 ! R32   R(19,20)                1.3529         estimate D2E/DX2                !
 ! R33   R(19,22)                1.4533         estimate D2E/DX2                !
 ! R34   R(20,21)                1.5209         estimate D2E/DX2                !
 ! R35   R(20,40)                1.0871         estimate D2E/DX2                !
 ! R36   R(21,41)                1.0868         estimate D2E/DX2                !
 ! R37   R(21,42)                1.1138         estimate D2E/DX2                !
 ! R38   R(22,23)                1.4169         estimate D2E/DX2                !
 ! R39   R(22,30)                1.4051         estimate D2E/DX2                !
 ! R40   R(23,24)                1.3574         estimate D2E/DX2                !
 ! R41   R(23,43)                1.0888         estimate D2E/DX2                !
 ! R42   R(24,25)                1.3509         estimate D2E/DX2                !
 ! R43   R(25,26)                1.4094         estimate D2E/DX2                !
 ! R44   R(25,44)                1.0774         estimate D2E/DX2                !
 ! R45   R(26,27)                1.3407         estimate D2E/DX2                !
 ! R46   R(26,30)                1.499          estimate D2E/DX2                !
 ! R47   R(27,28)                1.659          estimate D2E/DX2                !
 ! R48   R(28,29)                1.6519         estimate D2E/DX2                !
 ! R49   R(29,30)                1.3455         estimate D2E/DX2                !
 ! A1    A(2,1,5)              100.3786         estimate D2E/DX2                !
 ! A2    A(2,1,31)             112.314          estimate D2E/DX2                !
 ! A3    A(2,1,32)             110.8108         estimate D2E/DX2                !
 ! A4    A(5,1,31)             109.5674         estimate D2E/DX2                !
 ! A5    A(5,1,32)             112.6407         estimate D2E/DX2                !
 ! A6    A(31,1,32)            110.7601         estimate D2E/DX2                !
 ! A7    A(1,2,3)              111.3638         estimate D2E/DX2                !
 ! A8    A(1,2,33)             123.8525         estimate D2E/DX2                !
 ! A9    A(3,2,33)             124.7658         estimate D2E/DX2                !
 ! A10   A(2,3,4)              108.9668         estimate D2E/DX2                !
 ! A11   A(2,3,34)             125.5245         estimate D2E/DX2                !
 ! A12   A(4,3,34)             125.3891         estimate D2E/DX2                !
 ! A13   A(3,4,5)              109.0057         estimate D2E/DX2                !
 ! A14   A(3,4,8)              136.308          estimate D2E/DX2                !
 ! A15   A(5,4,8)              114.6853         estimate D2E/DX2                !
 ! A16   A(1,5,4)              109.9993         estimate D2E/DX2                !
 ! A17   A(1,5,6)              138.2266         estimate D2E/DX2                !
 ! A18   A(4,5,6)              111.7731         estimate D2E/DX2                !
 ! A19   A(5,6,7)              110.287          estimate D2E/DX2                !
 ! A20   A(5,6,15)             138.6278         estimate D2E/DX2                !
 ! A21   A(7,6,15)             109.9749         estimate D2E/DX2                !
 ! A22   A(6,7,8)               93.6045         estimate D2E/DX2                !
 ! A23   A(4,8,7)              109.0628         estimate D2E/DX2                !
 ! A24   A(4,8,9)              134.8911         estimate D2E/DX2                !
 ! A25   A(7,8,9)              115.8064         estimate D2E/DX2                !
 ! A26   A(8,9,10)             122.3189         estimate D2E/DX2                !
 ! A27   A(8,9,14)             119.7441         estimate D2E/DX2                !
 ! A28   A(10,9,14)            117.8243         estimate D2E/DX2                !
 ! A29   A(9,10,11)            119.6428         estimate D2E/DX2                !
 ! A30   A(9,10,35)            122.0179         estimate D2E/DX2                !
 ! A31   A(11,10,35)           118.3321         estimate D2E/DX2                !
 ! A32   A(10,11,12)           117.3035         estimate D2E/DX2                !
 ! A33   A(10,11,36)           120.7188         estimate D2E/DX2                !
 ! A34   A(12,11,36)           121.971          estimate D2E/DX2                !
 ! A35   A(11,12,13)           124.6536         estimate D2E/DX2                !
 ! A36   A(11,12,37)           120.6221         estimate D2E/DX2                !
 ! A37   A(13,12,37)           114.7241         estimate D2E/DX2                !
 ! A38   A(12,13,14)           116.3588         estimate D2E/DX2                !
 ! A39   A(9,14,13)            123.6868         estimate D2E/DX2                !
 ! A40   A(9,14,38)            120.4593         estimate D2E/DX2                !
 ! A41   A(13,14,38)           115.8276         estimate D2E/DX2                !
 ! A42   A(6,15,16)            103.8795         estimate D2E/DX2                !
 ! A43   A(6,15,21)            135.876          estimate D2E/DX2                !
 ! A44   A(6,15,39)             98.3225         estimate D2E/DX2                !
 ! A45   A(16,15,21)           107.9613         estimate D2E/DX2                !
 ! A46   A(16,15,39)           114.0943         estimate D2E/DX2                !
 ! A47   A(21,15,39)            95.742          estimate D2E/DX2                !
 ! A48   A(15,16,17)           105.0124         estimate D2E/DX2                !
 ! A49   A(15,16,18)           120.6968         estimate D2E/DX2                !
 ! A50   A(15,16,19)            91.688          estimate D2E/DX2                !
 ! A51   A(17,16,18)           112.7037         estimate D2E/DX2                !
 ! A52   A(17,16,19)           111.8512         estimate D2E/DX2                !
 ! A53   A(18,16,19)           113.0477         estimate D2E/DX2                !
 ! A54   A(16,19,20)           112.5678         estimate D2E/DX2                !
 ! A55   A(16,19,22)           116.3966         estimate D2E/DX2                !
 ! A56   A(20,19,22)           125.5788         estimate D2E/DX2                !
 ! A57   A(19,20,21)           115.7268         estimate D2E/DX2                !
 ! A58   A(19,20,40)           123.6087         estimate D2E/DX2                !
 ! A59   A(21,20,40)           116.7897         estimate D2E/DX2                !
 ! A60   A(15,21,20)           110.5751         estimate D2E/DX2                !
 ! A61   A(15,21,41)           118.1915         estimate D2E/DX2                !
 ! A62   A(15,21,42)           103.8589         estimate D2E/DX2                !
 ! A63   A(20,21,41)           117.3137         estimate D2E/DX2                !
 ! A64   A(20,21,42)            99.3952         estimate D2E/DX2                !
 ! A65   A(41,21,42)           104.37           estimate D2E/DX2                !
 ! A66   A(19,22,23)           123.8048         estimate D2E/DX2                !
 ! A67   A(19,22,30)           122.6487         estimate D2E/DX2                !
 ! A68   A(23,22,30)           112.7689         estimate D2E/DX2                !
 ! A69   A(22,23,24)           128.9193         estimate D2E/DX2                !
 ! A70   A(22,23,43)           121.7984         estimate D2E/DX2                !
 ! A71   A(24,23,43)           109.2262         estimate D2E/DX2                !
 ! A72   A(23,24,25)           119.2231         estimate D2E/DX2                !
 ! A73   A(24,25,26)           118.9431         estimate D2E/DX2                !
 ! A74   A(24,25,44)           116.2957         estimate D2E/DX2                !
 ! A75   A(26,25,44)           124.7611         estimate D2E/DX2                !
 ! A76   A(25,26,27)           126.4825         estimate D2E/DX2                !
 ! A77   A(25,26,30)           120.4003         estimate D2E/DX2                !
 ! A78   A(27,26,30)           113.1113         estimate D2E/DX2                !
 ! A79   A(26,27,28)           106.6185         estimate D2E/DX2                !
 ! A80   A(27,28,29)           100.6352         estimate D2E/DX2                !
 ! A81   A(28,29,30)           106.767          estimate D2E/DX2                !
 ! A82   A(22,30,26)           119.6854         estimate D2E/DX2                !
 ! A83   A(22,30,29)           127.4391         estimate D2E/DX2                !
 ! A84   A(26,30,29)           112.8648         estimate D2E/DX2                !
 ! D1    D(5,1,2,3)             -4.7908         estimate D2E/DX2                !
 ! D2    D(5,1,2,33)           173.7333         estimate D2E/DX2                !
 ! D3    D(31,1,2,3)          -121.0999         estimate D2E/DX2                !
 ! D4    D(31,1,2,33)           57.4242         estimate D2E/DX2                !
 ! D5    D(32,1,2,3)           114.4367         estimate D2E/DX2                !
 ! D6    D(32,1,2,33)          -67.0392         estimate D2E/DX2                !
 ! D7    D(2,1,5,4)              5.2334         estimate D2E/DX2                !
 ! D8    D(2,1,5,6)           -174.358          estimate D2E/DX2                !
 ! D9    D(31,1,5,4)           123.5768         estimate D2E/DX2                !
 ! D10   D(31,1,5,6)           -56.0147         estimate D2E/DX2                !
 ! D11   D(32,1,5,4)          -112.6543         estimate D2E/DX2                !
 ! D12   D(32,1,5,6)            67.7543         estimate D2E/DX2                !
 ! D13   D(1,2,3,4)              2.6092         estimate D2E/DX2                !
 ! D14   D(1,2,3,34)           178.7996         estimate D2E/DX2                !
 ! D15   D(33,2,3,4)          -175.8988         estimate D2E/DX2                !
 ! D16   D(33,2,3,34)            0.2917         estimate D2E/DX2                !
 ! D17   D(2,3,4,5)              0.9239         estimate D2E/DX2                !
 ! D18   D(2,3,4,8)           -179.4809         estimate D2E/DX2                !
 ! D19   D(34,3,4,5)          -175.273          estimate D2E/DX2                !
 ! D20   D(34,3,4,8)             4.3222         estimate D2E/DX2                !
 ! D21   D(3,4,5,1)             -4.1693         estimate D2E/DX2                !
 ! D22   D(3,4,5,6)            175.5376         estimate D2E/DX2                !
 ! D23   D(8,4,5,1)            176.1385         estimate D2E/DX2                !
 ! D24   D(8,4,5,6)             -4.1546         estimate D2E/DX2                !
 ! D25   D(3,4,8,7)           -171.8368         estimate D2E/DX2                !
 ! D26   D(3,4,8,9)              2.0868         estimate D2E/DX2                !
 ! D27   D(5,4,8,7)              7.742          estimate D2E/DX2                !
 ! D28   D(5,4,8,9)           -178.3344         estimate D2E/DX2                !
 ! D29   D(1,5,6,7)            178.2037         estimate D2E/DX2                !
 ! D30   D(1,5,6,15)           -15.6942         estimate D2E/DX2                !
 ! D31   D(4,5,6,7)             -1.3829         estimate D2E/DX2                !
 ! D32   D(4,5,6,15)           164.7192         estimate D2E/DX2                !
 ! D33   D(5,6,7,8)              4.9964         estimate D2E/DX2                !
 ! D34   D(15,6,7,8)          -165.2788         estimate D2E/DX2                !
 ! D35   D(5,6,15,16)          -82.8712         estimate D2E/DX2                !
 ! D36   D(5,6,15,21)           52.4469         estimate D2E/DX2                !
 ! D37   D(5,6,15,39)          159.6681         estimate D2E/DX2                !
 ! D38   D(7,6,15,16)           83.2592         estimate D2E/DX2                !
 ! D39   D(7,6,15,21)         -141.4227         estimate D2E/DX2                !
 ! D40   D(7,6,15,39)          -34.2015         estimate D2E/DX2                !
 ! D41   D(6,7,8,4)             -7.1261         estimate D2E/DX2                !
 ! D42   D(6,7,8,9)            177.6522         estimate D2E/DX2                !
 ! D43   D(4,8,9,10)           153.3592         estimate D2E/DX2                !
 ! D44   D(4,8,9,14)           -30.5864         estimate D2E/DX2                !
 ! D45   D(7,8,9,10)           -33.0213         estimate D2E/DX2                !
 ! D46   D(7,8,9,14)           143.033          estimate D2E/DX2                !
 ! D47   D(8,9,10,11)          177.9269         estimate D2E/DX2                !
 ! D48   D(8,9,10,35)           -1.0816         estimate D2E/DX2                !
 ! D49   D(14,9,10,11)           1.8005         estimate D2E/DX2                !
 ! D50   D(14,9,10,35)        -177.208          estimate D2E/DX2                !
 ! D51   D(8,9,14,13)          177.0461         estimate D2E/DX2                !
 ! D52   D(8,9,14,38)           -4.9005         estimate D2E/DX2                !
 ! D53   D(10,9,14,13)          -6.7239         estimate D2E/DX2                !
 ! D54   D(10,9,14,38)         171.3295         estimate D2E/DX2                !
 ! D55   D(9,10,11,12)           4.4607         estimate D2E/DX2                !
 ! D56   D(9,10,11,36)        -176.4688         estimate D2E/DX2                !
 ! D57   D(35,10,11,12)       -176.4944         estimate D2E/DX2                !
 ! D58   D(35,10,11,36)          2.5761         estimate D2E/DX2                !
 ! D59   D(10,11,12,13)         -6.8672         estimate D2E/DX2                !
 ! D60   D(10,11,12,37)        172.9471         estimate D2E/DX2                !
 ! D61   D(36,11,12,13)        174.0748         estimate D2E/DX2                !
 ! D62   D(36,11,12,37)         -6.111          estimate D2E/DX2                !
 ! D63   D(11,12,13,14)          2.3714         estimate D2E/DX2                !
 ! D64   D(37,12,13,14)       -177.4527         estimate D2E/DX2                !
 ! D65   D(12,13,14,9)           4.6859         estimate D2E/DX2                !
 ! D66   D(12,13,14,38)       -173.45           estimate D2E/DX2                !
 ! D67   D(6,15,16,17)         -93.4759         estimate D2E/DX2                !
 ! D68   D(6,15,16,18)          35.1282         estimate D2E/DX2                !
 ! D69   D(6,15,16,19)         153.3566         estimate D2E/DX2                !
 ! D70   D(21,15,16,17)        117.4973         estimate D2E/DX2                !
 ! D71   D(21,15,16,18)       -113.8986         estimate D2E/DX2                !
 ! D72   D(21,15,16,19)          4.3298         estimate D2E/DX2                !
 ! D73   D(39,15,16,17)         12.4163         estimate D2E/DX2                !
 ! D74   D(39,15,16,18)        141.0205         estimate D2E/DX2                !
 ! D75   D(39,15,16,19)       -100.7512         estimate D2E/DX2                !
 ! D76   D(6,15,21,20)        -132.3113         estimate D2E/DX2                !
 ! D77   D(6,15,21,41)           6.9153         estimate D2E/DX2                !
 ! D78   D(6,15,21,42)         121.8932         estimate D2E/DX2                !
 ! D79   D(16,15,21,20)          1.8311         estimate D2E/DX2                !
 ! D80   D(16,15,21,41)        141.0577         estimate D2E/DX2                !
 ! D81   D(16,15,21,42)       -103.9645         estimate D2E/DX2                !
 ! D82   D(39,15,21,20)        119.4711         estimate D2E/DX2                !
 ! D83   D(39,15,21,41)       -101.3023         estimate D2E/DX2                !
 ! D84   D(39,15,21,42)         13.6756         estimate D2E/DX2                !
 ! D85   D(15,16,19,20)        -10.4148         estimate D2E/DX2                !
 ! D86   D(15,16,19,22)        145.0468         estimate D2E/DX2                !
 ! D87   D(17,16,19,20)       -117.3337         estimate D2E/DX2                !
 ! D88   D(17,16,19,22)         38.1279         estimate D2E/DX2                !
 ! D89   D(18,16,19,20)        114.1653         estimate D2E/DX2                !
 ! D90   D(18,16,19,22)        -90.3731         estimate D2E/DX2                !
 ! D91   D(16,19,20,21)         13.7124         estimate D2E/DX2                !
 ! D92   D(16,19,20,40)        170.7811         estimate D2E/DX2                !
 ! D93   D(22,19,20,21)       -139.0687         estimate D2E/DX2                !
 ! D94   D(22,19,20,40)         17.9999         estimate D2E/DX2                !
 ! D95   D(16,19,22,23)        -18.025          estimate D2E/DX2                !
 ! D96   D(16,19,22,30)        172.8127         estimate D2E/DX2                !
 ! D97   D(20,19,22,23)        133.8415         estimate D2E/DX2                !
 ! D98   D(20,19,22,30)        -35.3208         estimate D2E/DX2                !
 ! D99   D(19,20,21,15)        -10.1332         estimate D2E/DX2                !
 ! D100  D(19,20,21,41)       -149.7553         estimate D2E/DX2                !
 ! D101  D(19,20,21,42)         98.617          estimate D2E/DX2                !
 ! D102  D(40,20,21,15)       -168.8171         estimate D2E/DX2                !
 ! D103  D(40,20,21,41)         51.5608         estimate D2E/DX2                !
 ! D104  D(40,20,21,42)        -60.0669         estimate D2E/DX2                !
 ! D105  D(19,22,23,24)       -167.8655         estimate D2E/DX2                !
 ! D106  D(19,22,23,43)          9.1064         estimate D2E/DX2                !
 ! D107  D(30,22,23,24)          2.248          estimate D2E/DX2                !
 ! D108  D(30,22,23,43)        179.2198         estimate D2E/DX2                !
 ! D109  D(19,22,30,26)        167.8564         estimate D2E/DX2                !
 ! D110  D(19,22,30,29)        -10.8618         estimate D2E/DX2                !
 ! D111  D(23,22,30,26)         -2.3881         estimate D2E/DX2                !
 ! D112  D(23,22,30,29)        178.8937         estimate D2E/DX2                !
 ! D113  D(22,23,24,25)         -0.2177         estimate D2E/DX2                !
 ! D114  D(43,23,24,25)       -177.4922         estimate D2E/DX2                !
 ! D115  D(23,24,25,26)         -1.5876         estimate D2E/DX2                !
 ! D116  D(23,24,25,44)        178.5373         estimate D2E/DX2                !
 ! D117  D(24,25,26,27)       -179.7066         estimate D2E/DX2                !
 ! D118  D(24,25,26,30)          1.2397         estimate D2E/DX2                !
 ! D119  D(44,25,26,27)          0.1571         estimate D2E/DX2                !
 ! D120  D(44,25,26,30)       -178.8967         estimate D2E/DX2                !
 ! D121  D(25,26,27,28)       -179.4601         estimate D2E/DX2                !
 ! D122  D(30,26,27,28)         -0.3474         estimate D2E/DX2                !
 ! D123  D(25,26,30,22)          0.8979         estimate D2E/DX2                !
 ! D124  D(25,26,30,29)        179.7934         estimate D2E/DX2                !
 ! D125  D(27,26,30,22)       -178.2749         estimate D2E/DX2                !
 ! D126  D(27,26,30,29)          0.6206         estimate D2E/DX2                !
 ! D127  D(26,27,28,29)          0.0281         estimate D2E/DX2                !
 ! D128  D(27,28,29,30)          0.3228         estimate D2E/DX2                !
 ! D129  D(28,29,30,22)        178.2408         estimate D2E/DX2                !
 ! D130  D(28,29,30,26)         -0.5507         estimate D2E/DX2                !
 --------------------------------------------------------------------------------
 Trust Radius=3.00D-01 FncErr=1.00D-07 GrdErr=1.00D-06
 Number of steps in this run=    264 maximum allowed number of steps=    264.
 GradGradGradGradGradGradGradGradGradGradGradGradGradGradGradGradGradGrad

                          Input orientation:                          
 ---------------------------------------------------------------------
 Center     Atomic      Atomic             Coordinates (Angstroms)
 Number     Number       Type             X           Y           Z
 ---------------------------------------------------------------------
      1          6           0       -1.438100    1.256060    0.035680
      2          6           0       -2.252250   -0.036000   -0.024390
      3          6           0       -1.441420   -1.134440   -0.042640
      4          6           0       -0.100700   -0.715530    0.061030
      5          6           0       -0.065490    0.701670    0.169710
      6          6           0        1.189530    1.157600    0.369530
      7         16           0        2.308740   -0.174250    0.460020
      8          6           0        1.133970   -1.325380    0.088230
      9          6           0        1.598300   -2.682850   -0.016150
     10          6           0        2.883700   -3.004400   -0.493850
     11          6           0        3.288020   -4.323470   -0.530650
     12          6           0        2.357190   -5.282030   -0.176820
     13          7           0        1.130520   -5.014190    0.325930
     14          6           0        0.801460   -3.716350    0.436250
     15          6           0        1.924110    2.425840    0.301490
     16         14           0        2.353610    2.601110   -1.520660
     17          1           0        3.703510    2.015470   -1.653720
     18          1           0        1.412940    2.123390   -2.573490
     19          6           0        2.412560    4.421120   -1.387200
     20          6           0        1.929900    4.871030   -0.206090
     21          6           0        1.748000    3.818590    0.876710
     22          6           0        3.402060    5.097520   -2.209060
     23          6           0        4.519860    4.449500   -2.790530
     24          7           0        5.613400    4.998550   -3.378190
     25          6           0        5.714040    6.343330   -3.457920
     26          6           0        4.662240    7.136880   -2.957520
     27          7           0        4.601550    8.476160   -2.963800
     28         16           0        3.164520    8.889370   -2.245160
     29          7           0        2.557770    7.393490   -1.894550
     30          6           0        3.465050    6.496630   -2.322160
     31          1           0       -1.677460    1.856180    0.915360
     32          1           0       -1.568780    1.841240   -0.880710
     33          1           0       -3.324950   -0.067140   -0.025860
     34          1           0       -1.774750   -2.157340   -0.065040
     35          1           0        3.585210   -2.239020   -0.824950
     36          1           0        4.292270   -4.586030   -0.840900
     37          1           0        2.578020   -6.334470   -0.294500
     38          1           0       -0.136510   -3.507540    0.941260
     39          1           0        2.772480    2.151750    0.936100
     40          1           0        2.011850    5.903760    0.123250
     41          1           0        0.952120    3.978820    1.599200
     42          1           0        2.684650    3.988840    1.454930
     43          1           0        4.627190    3.366160   -2.774810
     44          1           0        6.612170    6.728690   -3.911390
 ---------------------------------------------------------------------
                    Distance matrix (angstroms):
                    1          2          3          4          5
     1  C    0.000000
     2  C    1.528355   0.000000
     3  C    2.391785   1.365412   0.000000
     4  C    2.382530   2.257925   1.408461   0.000000
     5  C    1.486395   2.315977   2.304252   1.421797   0.000000
     6  C    2.650583   3.664110   3.513578   2.295317   1.350139
     7  S    4.032947   4.588725   3.903631   2.501515   2.547250
     8  C    3.644467   3.625144   2.585772   1.377341   2.356751
     9  C    4.973673   4.672539   3.411477   2.600559   3.775939
    10  C    6.091788   5.950611   4.733604   3.801771   4.782571
    11  C    7.334037   7.023766   5.725004   4.985052   6.081823
    12  C    7.562804   6.985056   5.625828   5.191408   6.464838
    13  N    6.782189   6.028950   4.669387   4.479347   5.841738
    14  C    5.468176   4.804405   3.453419   3.155884   4.510160
    15  C    3.569803   4.858893   4.911294   3.745114   2.636027
    16  Si   4.313748   5.514265   5.526403   4.418765   3.509597
    17  H    5.465064   6.506483   6.244022   4.987057   4.388203
    18  H    3.960866   4.959284   5.016575   4.158277   3.425228
    19  C    5.183606   6.594211   6.893856   5.899069   4.732759
    20  C    4.946704   6.449987   6.888990   5.950155   4.637496
    21  C    4.174341   5.627774   5.962391   4.963997   3.674750
    22  C    6.574407   7.943364   8.184742   7.156409   6.083251
    23  C    7.326855   8.580951   8.617897   7.493898   6.620777
    24  N    8.682419   9.922858   9.925218   8.782362   7.956165
    25  C    9.446622  10.767858  10.898706   9.799067   8.853869
    26  C    8.986514  10.385742  10.684846   9.667346   8.575717
    27  N    9.879479  11.316871  11.722384  10.758621   9.593896
    28  S    9.200748  10.674055  11.249113  10.403570   9.127047
    29  N    7.573692   9.046055   9.599410   8.754882   7.478176
    30  C    7.554063   8.980118   9.354298   8.391032   7.228810
    31  H    1.091455   2.189488   3.149172   3.135242   2.118333
    32  H    1.095118   2.173579   3.094067   3.095029   2.159139
    33  H    2.305395   1.073153   2.164970   3.289946   3.354608
    34  H    3.431440   2.174797   1.076074   2.212951   3.339254
    35  H    6.179799   6.290480   5.205681   4.085574   4.792141
    36  H    8.230161   8.012503   6.739873   5.923887   6.926123
    37  H    8.593857   7.941989   6.577206   6.234936   7.530664
    38  H    5.020567   4.178567   2.881398   2.927697   4.279928
    39  H    4.397954   5.563875   5.432672   4.152373   3.277828
    40  H    5.788863   7.313350   7.841483   6.948506   5.601718
    41  H    3.946032   5.387282   5.879634   5.050873   3.717349
    42  H    5.145816   6.539167   6.746493   5.642006   4.474433
    43  H    7.009930   8.152680   8.034188   6.859674   6.147434
    44  H   10.504089  11.808799  11.901947  10.782354   9.877828
                    6          7          8          9         10
     6  C    0.000000
     7  S    1.742023   0.000000
     8  C    2.499481   1.686242   0.000000
     9  C    3.881353   2.650384   1.438479   0.000000
    10  C    4.575793   3.041413   2.493889   1.408490   0.000000
    11  C    5.937686   4.376807   3.743192   2.410705   1.380136
    12  C    6.567402   5.147556   4.149891   2.712465   2.359093
    13  N    6.172226   4.983092   3.696462   2.402287   2.790150
    14  C    4.889830   3.849536   2.438938   1.381210   2.389076
    15  C    1.467198   2.633162   3.839460   5.128914   5.571435
    16  Si   2.647947   3.409946   4.415130   5.545654   5.723380
    17  H    3.339098   3.347858   4.560505   5.402569   5.216942
    18  H    3.105484   3.909449   4.365386   5.447411   5.725580
    19  C    3.902879   4.953829   6.069098   7.280741   7.493890
    20  C    3.830019   5.103143   6.254249   7.563540   7.938195
    21  C    2.765861   4.053496   5.240149   6.564170   7.051343
    22  C    5.202633   6.009234   7.188562   8.282304   8.297695
    23  C    5.649220   6.069118   7.287026   8.191649   7.969466
    24  N    6.954777   7.239509   8.489608   9.296679   8.934086
    25  C    7.874793   8.332177   9.610480  10.500334  10.206693
    26  C    7.673380   8.406614   9.661011  10.698901  10.586710
    27  N    8.735805   9.581707  10.835552  11.926091  11.868232
    28  S    8.397467   9.497345  10.672814  11.888558  12.025295
    29  N    6.773807   7.929483   9.054133  10.294736  10.496871
    30  C    6.397533   7.319714   8.510450   9.647035   9.692794
    31  H    3.000929   4.496640   4.325576   5.674602   6.812877
    32  H    3.104632   4.571096   4.274481   5.589745   6.592000
    33  H    4.694342   5.655618   4.634453   5.574982   6.884319
    34  H    4.468180   4.569817   3.029241   3.414091   4.754213
    35  H    4.324707   2.746598   2.770778   2.190651   1.089748
    36  H    6.639384   5.009050   4.633571   3.399968   2.146175
    37  H    7.648526   6.212095   5.227116   3.790997   3.350007
    38  H    4.883522   4.161930   2.665258   2.146232   3.381473
    39  H    1.953220   2.419087   3.936246   5.065455   5.351916
    40  H    4.823163   6.094568   7.282332   8.597693   8.971970
    41  H    3.086703   4.515101   5.518210   6.885111   7.541699
    42  H    3.380739   4.296798   5.702053   6.917780   7.262422
    43  H    5.155785   5.326710   6.512306   7.305813   6.987601
    44  H    8.875153   9.234680  10.529752  11.352924  10.968779
                   11         12         13         14         15
    11  C    0.000000
    12  C    1.382200   0.000000
    13  N    2.421906   1.352485   0.000000
    14  C    2.736142   2.290743   1.343443   0.000000
    15  C    6.935841   7.734830   7.482274   6.245398   0.000000
    16  Si   7.057128   7.996863   7.930866   6.793303   1.880271
    17  H    6.451053   7.566196   7.743088   6.756007   2.675353
    18  H    7.017915   7.840656   7.709179   6.598106   2.935691
    19  C    8.829947   9.778507   9.674891   8.493470   2.659210
    20  C    9.299928  10.162089   9.931748   8.684991   2.497324
    21  C    8.405086   9.181630   8.871451   7.606922   1.517117
    22  C    9.570011  10.628114  10.669243   9.562693   3.952856
    23  C    9.142729  10.305887  10.524323   9.535183   4.515939
    24  N   10.020775  11.249089  11.578933  10.660872   5.811174
    25  C   11.324094  12.537267  12.818714  11.853066   6.621439
    26  C   11.794821  12.933479  13.072972  12.008992   6.349205
    27  N   13.094889  14.215914  14.312928  13.215836   7.378155
    28  S   13.324186  14.344281  14.284840  13.102602   7.057001
    29  N   11.818656  12.792953  12.685350  11.486766   5.468241
    30  C   10.968838  12.023588  12.039991  10.909102   5.082260
    31  H    8.058226   8.271959   7.445412   6.117817   3.697655
    32  H    7.855870   8.163925   7.465864   6.183788   3.733582
    33  H    7.880516   7.713921   6.666954   5.527887   5.820201
    34  H    5.526351   5.181613   4.093292   3.052648   5.900970
    35  H    2.125998   3.344849   3.879639   3.394465   5.078291
    36  H    1.083379   2.161007   3.397275   3.817487   7.488629
    37  H    2.145691   1.081778   2.055074   3.247262   8.804876
    38  H    3.815713   3.258444   2.062520   1.085553   6.313514
    39  H    6.659250   7.528090   7.376926   6.210424   1.094343
    40  H   10.327266  11.195142  10.955339   9.701007   3.483589
    41  H    8.883733   9.533720   9.084452   7.784009   2.245120
    42  H    8.567443   9.419069   9.205678   7.997129   2.086100
    43  H    8.121579   9.310942   9.595392   8.666549   4.201722
    44  H   12.026205  13.278150  13.634464  12.718694   7.631565
                   16         17         18         19         20
    16  Si   0.000000
    17  H    1.477467   0.000000
    18  H    1.490479   2.470695   0.000000
    19  C    1.825849   2.743125   2.772379   0.000000
    20  C    2.657096   3.659993   3.663517   1.352923   0.000000
    21  C    2.756157   3.671285   3.858737   2.435153   1.520912
    22  C    2.793780   3.146157   3.596506   1.453300   2.496085
    23  C    3.117973   2.807716   3.887267   2.531966   3.683057
    24  N    4.452456   3.939574   5.153441   3.813508   4.862782
    25  C    5.389775   5.101739   6.090121   4.345405   5.202094
    26  C    5.288435   5.371024   5.986695   3.860352   4.491116
    27  N    6.453844   6.653067   7.118796   4.870390   5.266844
    28  S    6.381590   6.920319   6.996736   4.611594   4.672168
    29  N    4.811276   5.503982   5.435582   3.018853   3.099665
    30  C    4.129501   4.537011   4.837308   2.507913   3.078476
    31  H    4.768505   5.964929   4.668410   5.348735   4.833220
    32  H    4.046243   5.331505   3.440315   4.771099   4.677125
    33  H    6.449808   7.509091   5.808308   7.410583   7.213283
    34  H    6.465681   7.067360   5.897316   7.909349   7.946214
    35  H    5.042590   4.336074   5.177525   6.785919   7.326380
    36  H    7.474989   6.677359   7.503914   9.217402   9.768304
    37  H    9.022107   8.534384   8.836662  10.812219  11.224576
    38  H    7.041119   7.209946   6.816277   8.647724   8.705567
    39  H    2.532399   2.755459   3.763825   3.267615   3.067413
    40  H    3.704961   4.597623   4.682125   2.154124   1.087066
    41  H    3.687246   4.691096   4.589806   3.353670   2.238563
    42  H    3.299927   3.820467   4.617934   2.887664   2.026547
    43  H    2.706910   1.983530   3.452015   2.818331   4.017254
    44  H    6.394360   5.980955   7.073242   5.416008   6.253303
                   21         22         23         24         25
    21  C    0.000000
    22  C    3.727406   0.000000
    23  C    4.640033   1.416868   0.000000
    24  N    5.868373   2.503335   1.357435   0.000000
    25  C    6.394748   2.908083   2.336251   1.350895   0.000000
    26  C    5.848518   2.511421   2.696325   2.377840   1.409399
    27  N    6.677217   3.663825   4.031214   3.645453   2.455759
    28  S    6.120900   3.799455   4.674058   4.734897   3.801731
    29  N    4.595163   2.466419   3.649610   4.156176   3.675459
    30  C    4.511422   1.405087   2.350050   2.823978   2.524165
    31  H    3.947952   6.787474   7.672399   9.025835   9.689910
    32  H    4.242578   6.089099   6.893618   8.233451   8.941493
    33  H    6.453553   8.757439   9.464908  10.807101  11.600711
    34  H    7.000600   9.166743   9.523694  10.805947  11.826031
    35  H    6.554817   7.468208   7.033731   7.938199   9.226114
    36  H    8.947689   9.820157   9.246278  10.002370  11.327892
    37  H   10.254038  11.620455  11.238101  12.130953  13.437576
    38  H    7.564901   9.823088   9.945980  11.138792  12.272789
    39  H    1.957407   4.354993   4.713890   5.898152   6.747557
    40  H    2.232768   2.832380   4.110365   5.103984   5.169547
    41  H    1.086780   4.664391   5.676270   6.895056   7.337660
    42  H    1.113839   3.894698   4.648025   5.740744   6.233532
    43  H    4.672047   2.195136   1.088757   2.000344   3.242133
    44  H    7.419888   3.982895   3.290713   2.067662   1.077393
                   26         27         28         29         30
    26  C    0.000000
    27  N    1.340669   0.000000
    28  S    2.412850   1.658988   0.000000
    29  N    2.371613   2.548040   1.651887   0.000000
    30  C    1.498955   2.371049   2.412769   1.345498   0.000000
    31  H    9.114647   9.914534   9.104912   7.516287   7.645961
    32  H    8.436975   9.297010   8.598953   6.991693   7.006417
    33  H   11.148441  12.018688  11.280850   9.682944   9.719062
    34  H   11.669782  12.733080  12.295492  10.645947  10.365389
    35  H    9.675503  10.973728  11.226533   9.746021   8.863840
    36  H   11.918204  13.237189  13.595226  12.150209  11.211770
    37  H   13.889310  15.184683  15.359504  13.820906  13.020574
    38  H   12.309840  13.465057  13.218678  11.581598  11.122255
    39  H    6.601741   7.651985   7.461209   5.961084   5.474842
    40  H    4.246916   4.780551   3.981442   2.566874   2.905738
    41  H    6.670984   7.373288   6.617199   5.142409   5.294455
    42  H    5.769812   6.582987   6.159232   4.777735   4.600483
    43  H    3.775307   5.113558   5.738099   4.612672   3.369763
    44  H    2.208781   2.827397   4.396720   4.576873   3.533252
                   31         32         33         34         35
    31  H    0.000000
    32  H    1.799417   0.000000
    33  H    2.701718   2.730717   0.000000
    34  H    4.132674   4.086121   2.602612   0.000000
    35  H    6.891664   6.573830   7.287381   5.414176   0.000000
    36  H    8.956796   8.698465   8.894195   6.580975   2.451254
    37  H    9.309115   9.185958   8.613748   6.037191   4.250708
    38  H    5.580743   5.829273   4.789345   2.349364   4.310434
    39  H    4.459793   4.716328   6.559534   6.344118   4.800072
    40  H    5.533656   5.507533   8.009701   8.908149   8.347419
    41  H    3.447888   4.132086   6.107695   6.917946   7.174343
    42  H    4.885425   5.306512   7.399933   7.744165   6.692914
    43  H    7.459625   6.656053   9.087398   8.879006   6.025423
    44  H   10.759035  10.000007  12.650178  12.810010   9.955321
                   36         37         38         39         40
    36  H    0.000000
    37  H    2.508834   0.000000
    38  H    4.894214   4.109417   0.000000
    39  H    7.131982   8.577186   6.363161   0.000000
    40  H   10.778014  12.258439   9.687990   3.913676   0.000000
    41  H    9.511432  10.611013   7.593654   2.663005   2.647046
    42  H    9.021290  10.471036   8.026114   1.910968   2.427540
    43  H    8.190818  10.220238   9.151490   4.322684   4.655982
    44  H   11.951265  14.142221  13.186102   7.693488   6.174283
                   41         42         43         44
    41  H    0.000000
    42  H    1.738555   0.000000
    43  H    5.745734   4.695944   0.000000
    44  H    8.364482   7.192328   4.066764   0.000000
 Stoichiometry    C21H16N4S2Si
 Framework group  C1[X(C21H16N4S2Si)]
 Deg. of freedom   126
 Full point group                 C1      NOp   1
 Largest Abelian subgroup         C1      NOp   1
 Largest concise Abelian subgroup C1      NOp   1
                         Standard orientation:                         
 ---------------------------------------------------------------------
 Center     Atomic      Atomic             Coordinates (Angstroms)
 Number     Number       Type             X           Y           Z
 ---------------------------------------------------------------------
      1          6           0       -1.977574    3.229199   -0.643019
      2          6           0       -3.384215    3.501506   -1.175068
      3          6           0       -4.196317    2.415968   -1.012443
      4          6           0       -3.479793    1.404268   -0.343997
      5          6           0       -2.170592    1.877674   -0.055230
      6          6           0       -1.464673    0.985834    0.672213
      7         16           0       -2.440721   -0.413239    1.025155
      8          6           0       -3.735179    0.120837    0.085711
      9          6           0       -4.859377   -0.772759    0.002713
     10          6           0       -4.711498   -2.173253    0.027097
     11          6           0       -5.831508   -2.978710   -0.012810
     12          6           0       -7.055157   -2.355732   -0.171103
     13          7           0       -7.243955   -1.016570   -0.156428
     14          6           0       -6.141721   -0.260229   -0.022758
     15          6           0       -0.070519    0.733445    1.053404
     16         14           0        0.639573   -0.192730   -0.420837
     17          1           0        0.475047   -1.623146   -0.089552
     18          1           0        0.198434    0.131120   -1.807216
     19          6           0        2.325921    0.401072   -0.050227
     20          6           0        2.339652    1.368155    0.895798
     21          6           0        1.049576    1.540287    1.682720
     22          6           0        3.412399   -0.522315   -0.331306
     23          6           0        3.235897   -1.917075   -0.507384
     24          7           0        4.174523   -2.896766   -0.550006
     25          6           0        5.477912   -2.567627   -0.416730
     26          6           0        5.827085   -1.209976   -0.270900
     27          7           0        7.065794   -0.715741   -0.134059
     28         16           0        6.906752    0.928970    0.013832
     29          7           0        5.265588    1.086934   -0.087939
     30          6           0        4.764762   -0.153024   -0.236400
     31          1           0       -1.688090    3.930948    0.141213
     32          1           0       -1.245756    3.234009   -1.457698
     33          1           0       -3.692470    4.438491   -1.597792
     34          1           0       -5.234842    2.364926   -1.289562
     35          1           0       -3.733748   -2.649932    0.092907
     36          1           0       -5.741589   -4.055735    0.062304
     37          1           0       -7.954240   -2.937774   -0.323164
     38          1           0       -6.311071    0.805095    0.099023
     39          1           0       -0.257157    0.103861    1.928834
     40          1           0        3.248740    1.746399    1.356453
     41          1           0        0.819969    2.536176    2.052281
     42          1           0        1.315098    0.960868    2.596180
     43          1           0        2.246545   -2.364785   -0.585696
     44          1           0        6.180503   -3.384247   -0.433242
 ---------------------------------------------------------------------
 Rotational constants (GHZ):      0.3763543      0.0596631      0.0534221
 Standard basis: 6-31++G(d,p) (6D, 7F)
 There are   640 symmetry adapted basis functions of A   symmetry.
 Integral buffers will be    131072 words long.
 Raffenetti 2 integral format.
 Two-electron integral symmetry is turned on.
   640 basis functions,  1096 primitive gaussians,   640 cartesian basis functions
   108 alpha electrons      108 beta electrons
       nuclear repulsion energy      2777.5811659737 Hartrees.
 NAtoms=   44 NActive=   44 NUniq=   44 SFac= 1.00D+00 NAtFMM=   60 NAOKFM=F Big=F
 One-electron integrals computed using PRISM.
 NBasis=   640 RedAO= T  NBF=   640
 NBsUse=   634 1.00D-06 NBFU=   634
 Harris functional with IExCor=  402 diagonalized for initial guess.
 ExpMin= 3.31D-02 ExpMax= 2.19D+04 ExpMxC= 3.30D+03 IAcc=3 IRadAn=         5 AccDes= 0.00D+00
 HarFok:  IExCor=  402 AccDes= 0.00D+00 IRadAn=         5 IDoV= 1
 ScaDFX=  1.000000  1.000000  1.000000  1.000000
 FoFCou: FMM=F IPFlag=           0 FMFlag=      100000 FMFlg1=           0
         NFxFlg=           0 DoJE=T BraDBF=F KetDBF=T FulRan=T
         Omega=  0.000000  0.000000  1.000000  0.000000  0.000000 ICntrl=     500 IOpCl=  0
         NMat0=    1 NMatS0=    1 NMatT0=    0 NMatD0=    1 NMtDS0=    0 NMtDT0=    0
         I1Cent=           4 NGrid=           0.
 Petite list used in FoFCou.
 Initial guess orbital symmetries:
       Occupied  (A) (A) (A) (A) (A) (A) (A) (A) (A) (A) (A) (A)
                 (A) (A) (A) (A) (A) (A) (A) (A) (A) (A) (A) (A)
                 (A) (A) (A) (A) (A) (A) (A) (A) (A) (A) (A) (A)
                 (A) (A) (A) (A) (A) (A) (A) (A) (A) (A) (A) (A)
                 (A) (A) (A) (A) (A) (A) (A) (A) (A) (A) (A) (A)
                 (A) (A) (A) (A) (A) (A) (A) (A) (A) (A) (A) (A)
                 (A) (A) (A) (A) (A) (A) (A) (A) (A) (A) (A) (A)
                 (A) (A) (A) (A) (A) (A) (A) (A) (A) (A) (A) (A)
                 (A) (A) (A) (A) (A) (A) (A) (A) (A) (A) (A) (A)
       Virtual   (A) (A) (A) (A) (A) (A) (A) (A) (A) (A) (A) (A)
                 (A) (A) (A) (A) (A) (A) (A) (A) (A) (A) (A) (A)
                 (A) (A) (A) (A) (A) (A) (A) (A) (A) (A) (A) (A)
                 (A) (A) (A) (A) (A) (A) (A) (A) (A) (A) (A) (A)
                 (A) (A) (A) (A) (A) (A) (A) (A) (A) (A) (A) (A)
                 (A) (A) (A) (A) (A) (A) (A) (A) (A) (A) (A) (A)
                 (A) (A) (A) (A) (A) (A) (A) (A) (A) (A) (A) (A)
                 (A) (A) (A) (A) (A) (A) (A) (A) (A) (A) (A) (A)
                 (A) (A) (A) (A) (A) (A) (A) (A) (A) (A) (A) (A)
                 (A) (A) (A) (A) (A) (A) (A) (A) (A) (A) (A) (A)
                 (A) (A) (A) (A) (A) (A) (A) (A) (A) (A) (A) (A)
                 (A) (A) (A) (A) (A) (A) (A) (A) (A) (A) (A) (A)
                 (A) (A) (A) (A) (A) (A) (A) (A) (A) (A) (A) (A)
                 (A) (A) (A) (A) (A) (A) (A) (A) (A) (A) (A) (A)
                 (A) (A) (A) (A) (A) (A) (A) (A) (A) (A) (A) (A)
                 (A) (A) (A) (A) (A) (A) (A) (A) (A) (A) (A) (A)
                 (A) (A) (A) (A) (A) (A) (A) (A) (A) (A) (A) (A)
                 (A) (A) (A) (A) (A) (A) (A) (A) (A) (A) (A) (A)
                 (A) (A) (A) (A) (A) (A) (A) (A) (A) (A) (A) (A)
                 (A) (A) (A) (A) (A) (A) (A) (A) (A) (A) (A) (A)
                 (A) (A) (A) (A) (A) (A) (A) (A) (A) (A) (A) (A)
                 (A) (A) (A) (A) (A) (A) (A) (A) (A) (A) (A) (A)
                 (A) (A) (A) (A) (A) (A) (A) (A) (A) (A) (A) (A)
                 (A) (A) (A) (A) (A) (A) (A) (A) (A) (A) (A) (A)
                 (A) (A) (A) (A) (A) (A) (A) (A) (A) (A) (A) (A)
                 (A) (A) (A) (A) (A) (A) (A) (A) (A) (A) (A) (A)
                 (A) (A) (A) (A) (A) (A) (A) (A) (A) (A) (A) (A)
                 (A) (A) (A) (A) (A) (A) (A) (A) (A) (A) (A) (A)
                 (A) (A) (A) (A) (A) (A) (A) (A) (A) (A) (A) (A)
                 (A) (A) (A) (A) (A) (A) (A) (A) (A) (A) (A) (A)
                 (A) (A) (A) (A) (A) (A) (A) (A) (A) (A) (A) (A)
                 (A) (A) (A) (A) (A) (A) (A) (A) (A) (A) (A) (A)
                 (A) (A) (A) (A) (A) (A) (A) (A) (A) (A) (A) (A)
                 (A) (A) (A) (A) (A) (A) (A) (A) (A) (A) (A) (A)
                 (A) (A) (A) (A) (A) (A) (A) (A) (A) (A) (A) (A)
                 (A) (A) (A) (A) (A) (A) (A) (A) (A) (A) (A) (A)
                 (A) (A) (A) (A) (A) (A) (A) (A) (A) (A) (A) (A)
                 (A) (A) (A) (A) (A) (A) (A) (A) (A) (A) (A) (A)
                 (A) (A) (A) (A) (A) (A) (A) (A) (A) (A) (A) (A)
                 (A) (A) (A) (A) (A) (A) (A) (A) (A) (A) (A) (A)
                 (A) (A) (A) (A) (A) (A) (A) (A) (A) (A) (A) (A)
                 (A) (A) (A) (A) (A) (A) (A) (A) (A) (A) (A) (A)
                 (A) (A) (A) (A) (A) (A) (A) (A) (A) (A) (A) (A)
                 (A) (A) (A) (A) (A) (A) (A) (A) (A) (A)
 The electronic state of the initial guess is 1-A.
 Requested convergence on RMS density matrix=1.00D-08 within 128 cycles.
 Requested convergence on MAX density matrix=1.00D-06.
 Requested convergence on             energy=1.00D-06.
 No special actions if energy rises.
 SCF Done:  E(RB3LYP) =  -2114.65385286     A.U. after   19 cycles
             Convg  =    0.4029D-08             -V/T =  2.0060

 **********************************************************************

            Population analysis using the SCF density.

 **********************************************************************

 Orbital symmetries:
       Occupied  (A) (A) (A) (A) (A) (A) (A) (A) (A) (A) (A) (A)
                 (A) (A) (A) (A) (A) (A) (A) (A) (A) (A) (A) (A)
                 (A) (A) (A) (A) (A) (A) (A) (A) (A) (A) (A) (A)
                 (A) (A) (A) (A) (A) (A) (A) (A) (A) (A) (A) (A)
                 (A) (A) (A) (A) (A) (A) (A) (A) (A) (A) (A) (A)
                 (A) (A) (A) (A) (A) (A) (A) (A) (A) (A) (A) (A)
                 (A) (A) (A) (A) (A) (A) (A) (A) (A) (A) (A) (A)
                 (A) (A) (A) (A) (A) (A) (A) (A) (A) (A) (A) (A)
                 (A) (A) (A) (A) (A) (A) (A) (A) (A) (A) (A) (A)
       Virtual   (A) (A) (A) (A) (A) (A) (A) (A) (A) (A) (A) (A)
                 (A) (A) (A) (A) (A) (A) (A) (A) (A) (A) (A) (A)
                 (A) (A) (A) (A) (A) (A) (A) (A) (A) (A) (A) (A)
                 (A) (A) (A) (A) (A) (A) (A) (A) (A) (A) (A) (A)
                 (A) (A) (A) (A) (A) (A) (A) (A) (A) (A) (A) (A)
                 (A) (A) (A) (A) (A) (A) (A) (A) (A) (A) (A) (A)
                 (A) (A) (A) (A) (A) (A) (A) (A) (A) (A) (A) (A)
                 (A) (A) (A) (A) (A) (A) (A) (A) (A) (A) (A) (A)
                 (A) (A) (A) (A) (A) (A) (A) (A) (A) (A) (A) (A)
                 (A) (A) (A) (A) (A) (A) (A) (A) (A) (A) (A) (A)
                 (A) (A) (A) (A) (A) (A) (A) (A) (A) (A) (A) (A)
                 (A) (A) (A) (A) (A) (A) (A) (A) (A) (A) (A) (A)
                 (A) (A) (A) (A) (A) (A) (A) (A) (A) (A) (A) (A)
                 (A) (A) (A) (A) (A) (A) (A) (A) (A) (A) (A) (A)
                 (A) (A) (A) (A) (A) (A) (A) (A) (A) (A) (A) (A)
                 (A) (A) (A) (A) (A) (A) (A) (A) (A) (A) (A) (A)
                 (A) (A) (A) (A) (A) (A) (A) (A) (A) (A) (A) (A)
                 (A) (A) (A) (A) (A) (A) (A) (A) (A) (A) (A) (A)
                 (A) (A) (A) (A) (A) (A) (A) (A) (A) (A) (A) (A)
                 (A) (A) (A) (A) (A) (A) (A) (A) (A) (A) (A) (A)
                 (A) (A) (A) (A) (A) (A) (A) (A) (A) (A) (A) (A)
                 (A) (A) (A) (A) (A) (A) (A) (A) (A) (A) (A) (A)
                 (A) (A) (A) (A) (A) (A) (A) (A) (A) (A) (A) (A)
                 (A) (A) (A) (A) (A) (A) (A) (A) (A) (A) (A) (A)
                 (A) (A) (A) (A) (A) (A) (A) (A) (A) (A) (A) (A)
                 (A) (A) (A) (A) (A) (A) (A) (A) (A) (A) (A) (A)
                 (A) (A) (A) (A) (A) (A) (A) (A) (A) (A) (A) (A)
                 (A) (A) (A) (A) (A) (A) (A) (A) (A) (A) (A) (A)
                 (A) (A) (A) (A) (A) (A) (A) (A) (A) (A) (A) (A)
                 (A) (A) (A) (A) (A) (A) (A) (A) (A) (A) (A) (A)
                 (A) (A) (A) (A) (A) (A) (A) (A) (A) (A) (A) (A)
                 (A) (A) (A) (A) (A) (A) (A) (A) (A) (A) (A) (A)
                 (A) (A) (A) (A) (A) (A) (A) (A) (A) (A) (A) (A)
                 (A) (A) (A) (A) (A) (A) (A) (A) (A) (A) (A) (A)
                 (A) (A) (A) (A) (A) (A) (A) (A) (A) (A) (A) (A)
                 (A) (A) (A) (A) (A) (A) (A) (A) (A) (A) (A) (A)
                 (A) (A) (A) (A) (A) (A) (A) (A) (A) (A) (A) (A)
                 (A) (A) (A) (A) (A) (A) (A) (A) (A) (A) (A) (A)
                 (A) (A) (A) (A) (A) (A) (A) (A) (A) (A) (A) (A)
                 (A) (A) (A) (A) (A) (A) (A) (A) (A) (A) (A) (A)
                 (A) (A) (A) (A) (A) (A) (A) (A) (A) (A) (A) (A)
                 (A) (A) (A) (A) (A) (A) (A) (A) (A) (A) (A) (A)
                 (A) (A) (A) (A) (A) (A) (A) (A) (A) (A) (A) (A)
                 (A) (A) (A) (A) (A) (A) (A) (A) (A) (A)
 The electronic state is 1-A.
 Alpha  occ. eigenvalues --  -88.99883 -88.91100 -66.13796 -14.39916 -14.39553
 Alpha  occ. eigenvalues --  -14.36371 -14.34212 -10.26796 -10.26716 -10.25422
 Alpha  occ. eigenvalues --  -10.24454 -10.23950 -10.23113 -10.22693 -10.22654
 Alpha  occ. eigenvalues --  -10.22646 -10.22047 -10.21916 -10.21835 -10.21527
 Alpha  occ. eigenvalues --  -10.21023 -10.20632 -10.20538 -10.20056 -10.20041
 Alpha  occ. eigenvalues --  -10.19936 -10.19863 -10.19484  -8.05157  -7.97215
 Alpha  occ. eigenvalues --   -6.01714  -6.01128  -6.00924  -5.93651  -5.93247
 Alpha  occ. eigenvalues --   -5.92898  -5.28773  -3.64742  -3.64571  -3.64513
 Alpha  occ. eigenvalues --   -1.03496  -0.95619  -0.94807  -0.91962  -0.91566
 Alpha  occ. eigenvalues --   -0.85984  -0.85072  -0.82994  -0.81472  -0.79467
 Alpha  occ. eigenvalues --   -0.78706  -0.75942  -0.73626  -0.71821  -0.70750
 Alpha  occ. eigenvalues --   -0.68435  -0.66577  -0.64674  -0.63941  -0.63053
 Alpha  occ. eigenvalues --   -0.61559  -0.58665  -0.57758  -0.55951  -0.54478
 Alpha  occ. eigenvalues --   -0.54360  -0.52987  -0.52099  -0.51462  -0.50634
 Alpha  occ. eigenvalues --   -0.49065  -0.48548  -0.48333  -0.47086  -0.46638
 Alpha  occ. eigenvalues --   -0.46212  -0.44643  -0.42935  -0.42750  -0.42377
 Alpha  occ. eigenvalues --   -0.42158  -0.41238  -0.40852  -0.40653  -0.40199
 Alpha  occ. eigenvalues --   -0.39992  -0.39537  -0.38468  -0.37747  -0.37535
 Alpha  occ. eigenvalues --   -0.36899  -0.36399  -0.36002  -0.34455  -0.33584
 Alpha  occ. eigenvalues --   -0.33204  -0.32550  -0.31912  -0.30637  -0.30175
 Alpha  occ. eigenvalues --   -0.29282  -0.28889  -0.28167  -0.27626  -0.26612
 Alpha  occ. eigenvalues --   -0.24094  -0.23843  -0.20236
 Alpha virt. eigenvalues --   -0.11914  -0.05883  -0.05233  -0.04028  -0.03161
 Alpha virt. eigenvalues --   -0.02240  -0.02087  -0.01150  -0.00820  -0.00491
 Alpha virt. eigenvalues --   -0.00341   0.00017   0.00117   0.00681   0.00975
 Alpha virt. eigenvalues --    0.01222   0.01510   0.01587   0.02009   0.02295
 Alpha virt. eigenvalues --    0.02627   0.02760   0.03239   0.03619   0.03993
 Alpha virt. eigenvalues --    0.04456   0.04579   0.04843   0.05428   0.05683
 Alpha virt. eigenvalues --    0.05920   0.06166   0.06521   0.06613   0.06757
 Alpha virt. eigenvalues --    0.07528   0.07583   0.08204   0.08492   0.08726
 Alpha virt. eigenvalues --    0.09054   0.09205   0.09366   0.09834   0.09988
 Alpha virt. eigenvalues --    0.10343   0.10374   0.10703   0.11085   0.11127
 Alpha virt. eigenvalues --    0.11258   0.11621   0.11885   0.12141   0.12162
 Alpha virt. eigenvalues --    0.12413   0.12605   0.12687   0.12745   0.12876
 Alpha virt. eigenvalues --    0.13027   0.13136   0.13497   0.13625   0.13782
 Alpha virt. eigenvalues --    0.14108   0.14201   0.14668   0.14855   0.14976
 Alpha virt. eigenvalues --    0.15339   0.15490   0.15561   0.15880   0.15933
 Alpha virt. eigenvalues --    0.16467   0.16710   0.16886   0.17148   0.17298
 Alpha virt. eigenvalues --    0.17410   0.17600   0.17926   0.18052   0.18144
 Alpha virt. eigenvalues --    0.18505   0.18677   0.18823   0.19349   0.19420
 Alpha virt. eigenvalues --    0.19700   0.19802   0.20265   0.20458   0.20627
 Alpha virt. eigenvalues --    0.20962   0.21096   0.21418   0.21934   0.21959
 Alpha virt. eigenvalues --    0.22460   0.22657   0.22746   0.22987   0.23237
 Alpha virt. eigenvalues --    0.23345   0.23649   0.23746   0.24180   0.24203
 Alpha virt. eigenvalues --    0.24578   0.24857   0.25015   0.25201   0.25483
 Alpha virt. eigenvalues --    0.26010   0.26144   0.26341   0.26710   0.26829
 Alpha virt. eigenvalues --    0.26881   0.27130   0.27146   0.27426   0.27684
 Alpha virt. eigenvalues --    0.27895   0.28116   0.28302   0.28821   0.28957
 Alpha virt. eigenvalues --    0.29266   0.29593   0.29817   0.30119   0.30273
 Alpha virt. eigenvalues --    0.30647   0.30785   0.31045   0.31377   0.31614
 Alpha virt. eigenvalues --    0.31744   0.32210   0.32515   0.32727   0.32856
 Alpha virt. eigenvalues --    0.33157   0.33323   0.33572   0.34154   0.34507
 Alpha virt. eigenvalues --    0.34686   0.35190   0.35443   0.36050   0.36093
 Alpha virt. eigenvalues --    0.36634   0.36921   0.37441   0.37691   0.38190
 Alpha virt. eigenvalues --    0.38321   0.38784   0.38872   0.39924   0.40170
 Alpha virt. eigenvalues --    0.40769   0.40849   0.41667   0.42097   0.42572
 Alpha virt. eigenvalues --    0.43125   0.43295   0.45167   0.45334   0.46069
 Alpha virt. eigenvalues --    0.46991   0.47815   0.48109   0.50865   0.51386
 Alpha virt. eigenvalues --    0.52620   0.54068   0.55394   0.55880   0.56713
 Alpha virt. eigenvalues --    0.57409   0.59083   0.60626   0.61810   0.62706
 Alpha virt. eigenvalues --    0.63243   0.63402   0.63918   0.64254   0.65049
 Alpha virt. eigenvalues --    0.66439   0.66800   0.67161   0.68548   0.68948
 Alpha virt. eigenvalues --    0.69430   0.69606   0.70096   0.70491   0.71356
 Alpha virt. eigenvalues --    0.71744   0.72036   0.72509   0.73338   0.73923
 Alpha virt. eigenvalues --    0.74111   0.74497   0.74763   0.75094   0.75391
 Alpha virt. eigenvalues --    0.75643   0.76360   0.76515   0.77091   0.77490
 Alpha virt. eigenvalues --    0.78290   0.78804   0.78933   0.79208   0.79914
 Alpha virt. eigenvalues --    0.80416   0.81279   0.81519   0.82488   0.82619
 Alpha virt. eigenvalues --    0.83053   0.83529   0.84318   0.85115   0.86691
 Alpha virt. eigenvalues --    0.87391   0.88704   0.88996   0.89620   0.90668
 Alpha virt. eigenvalues --    0.91098   0.91647   0.92370   0.92883   0.93591
 Alpha virt. eigenvalues --    0.93947   0.94414   0.95038   0.95579   0.96033
 Alpha virt. eigenvalues --    0.96414   0.97229   0.98084   0.98392   0.98801
 Alpha virt. eigenvalues --    0.99242   1.00186   1.00484   1.00971   1.01651
 Alpha virt. eigenvalues --    1.02287   1.03070   1.03795   1.04075   1.04665
 Alpha virt. eigenvalues --    1.05078   1.05611   1.06257   1.06575   1.07023
 Alpha virt. eigenvalues --    1.07654   1.08058   1.09274   1.10050   1.10202
 Alpha virt. eigenvalues --    1.10732   1.11475   1.11798   1.12958   1.14083
 Alpha virt. eigenvalues --    1.14351   1.14955   1.15488   1.15991   1.16852
 Alpha virt. eigenvalues --    1.17214   1.17342   1.17726   1.18520   1.18887
 Alpha virt. eigenvalues --    1.19501   1.19691   1.20393   1.20972   1.21476
 Alpha virt. eigenvalues --    1.22577   1.23127   1.23876   1.24611   1.25797
 Alpha virt. eigenvalues --    1.26325   1.26634   1.27529   1.28809   1.29272
 Alpha virt. eigenvalues --    1.29920   1.30939   1.31733   1.33041   1.33514
 Alpha virt. eigenvalues --    1.34103   1.34625   1.35392   1.35543   1.36842
 Alpha virt. eigenvalues --    1.37119   1.37941   1.38821   1.39261   1.40992
 Alpha virt. eigenvalues --    1.41893   1.42671   1.43254   1.44891   1.45750
 Alpha virt. eigenvalues --    1.45899   1.46696   1.48012   1.48552   1.50466
 Alpha virt. eigenvalues --    1.51127   1.51670   1.54546   1.55424   1.56631
 Alpha virt. eigenvalues --    1.58852   1.62259   1.63849   1.64486   1.67628
 Alpha virt. eigenvalues --    1.71722   1.72964   1.73284   1.74765   1.75332
 Alpha virt. eigenvalues --    1.76526   1.77742   1.78439   1.78906   1.79197
 Alpha virt. eigenvalues --    1.79775   1.80922   1.82163   1.82611   1.83257
 Alpha virt. eigenvalues --    1.83630   1.84044   1.84845   1.85458   1.88664
 Alpha virt. eigenvalues --    1.89262   1.90583   1.90801   1.92122   1.92362
 Alpha virt. eigenvalues --    1.92781   1.93494   1.94026   1.94621   1.96016
 Alpha virt. eigenvalues --    1.97166   1.98272   1.99237   1.99932   2.01118
 Alpha virt. eigenvalues --    2.03149   2.05323   2.06274   2.06880   2.07136
 Alpha virt. eigenvalues --    2.07941   2.08834   2.09607   2.09897   2.11604
 Alpha virt. eigenvalues --    2.12529   2.13200   2.13598   2.14808   2.15713
 Alpha virt. eigenvalues --    2.16468   2.18419   2.19326   2.20486   2.21988
 Alpha virt. eigenvalues --    2.22499   2.23039   2.23268   2.24579   2.26217
 Alpha virt. eigenvalues --    2.26881   2.27946   2.28528   2.29236   2.30130
 Alpha virt. eigenvalues --    2.30927   2.31752   2.32188   2.32743   2.33736
 Alpha virt. eigenvalues --    2.34439   2.34686   2.35345   2.37540   2.37824
 Alpha virt. eigenvalues --    2.38579   2.38922   2.39916   2.41167   2.42086
 Alpha virt. eigenvalues --    2.43913   2.44338   2.45233   2.46183   2.46952
 Alpha virt. eigenvalues --    2.47911   2.48394   2.49860   2.50820   2.51423
 Alpha virt. eigenvalues --    2.52202   2.53922   2.54510   2.55512   2.57122
 Alpha virt. eigenvalues --    2.57709   2.58574   2.59475   2.60715   2.61536
 Alpha virt. eigenvalues --    2.61750   2.62299   2.63985   2.64594   2.65451
 Alpha virt. eigenvalues --    2.65840   2.66223   2.66960   2.67392   2.68550
 Alpha virt. eigenvalues --    2.68702   2.69544   2.70024   2.71668   2.72465
 Alpha virt. eigenvalues --    2.72592   2.73810   2.74246   2.75577   2.77060
 Alpha virt. eigenvalues --    2.78606   2.79700   2.80225   2.83681   2.84470
 Alpha virt. eigenvalues --    2.86557   2.87222   2.87672   2.91238   2.92109
 Alpha virt. eigenvalues --    2.94305   2.97849   3.00574   3.03106   3.04138
 Alpha virt. eigenvalues --    3.06683   3.09130   3.10624   3.14474   3.17115
 Alpha virt. eigenvalues --    3.23591   3.24506   3.28091   3.28250   3.29888
 Alpha virt. eigenvalues --    3.32942   3.33873   3.35364   3.41171   3.43734
 Alpha virt. eigenvalues --    3.44387   3.45293   3.47291   3.47794   3.52555
 Alpha virt. eigenvalues --    3.54978   3.63461   3.71530   3.83723   3.94133
 Alpha virt. eigenvalues --    4.01989   4.08973   4.19584   4.27540   4.28570
 Alpha virt. eigenvalues --    4.31568   4.33378   4.34315   4.34948   4.36724
 Alpha virt. eigenvalues --    4.38043   4.40076   4.40893   4.42236   4.45079
 Alpha virt. eigenvalues --    4.48221   4.51909   4.54204   4.54889   4.58311
 Alpha virt. eigenvalues --    4.61222   4.72434   4.75402   4.78291   4.81954
 Alpha virt. eigenvalues --    4.86494
          Condensed to atoms (all electrons):
              1          2          3          4          5          6
     1  C   18.539619  -4.857599   4.681171  -1.681624 -10.420258  -0.917832
     2  C   -4.857599  10.029370  -4.580037   2.200053   4.194034   0.675799
     3  C    4.681171  -4.580037  16.849131  -4.870779  -7.303558  -2.690898
     4  C   -1.681624   2.200053  -4.870779  19.437883   3.306122  -0.629516
     5  C  -10.420258   4.194034  -7.303558   3.306122  21.135993   2.744061
     6  C   -0.917832   0.675799  -2.690898  -0.629516   2.744061  20.855421
     7  S    1.701095  -0.587369   0.339532  -3.539635  -1.311745  -1.737429
     8  C   -1.225080   0.076943   1.779575   0.211314  -1.761672  -0.125058
     9  C    1.164073  -1.144282   1.899683  -1.663794  -1.387260  -0.239494
    10  C    0.162996  -0.390528   0.077012  -3.691027  -0.340277   0.008774
    11  C   -0.100252   0.109621   0.045161   1.220677  -0.147150   0.119365
    12  C    0.020624  -0.039669   0.015745  -0.548792  -0.028344  -0.006281
    13  N   -0.002704   0.006133  -0.023172   0.058777   0.002026   0.004220
    14  C   -0.178106   0.529361  -0.398428   1.884618   0.320845  -0.199713
    15  C   -0.460254  -0.563189   0.462148  -6.050039  -3.145842 -10.124571
    16  Si  -0.221401   0.030426   0.003462  -0.071286   0.040013  -1.469979
    17  H    0.048537   0.002552  -0.009454   0.028223   0.033184   0.233468
    18  H   -0.059119  -0.018601   0.042612  -0.023683   0.003004  -0.029013
    19  C   -0.176439   0.035789  -0.049482  -0.131382  -0.397036   1.186272
    20  C    0.116167   0.031506  -0.023646   1.029370   2.006409   4.509529
    21  C   -0.821563   0.176033  -0.142937  -0.262630  -0.955142  -2.381372
    22  C    0.137699  -0.073040   0.055001  -0.600220  -0.893756  -3.107455
    23  C    0.015193  -0.000283   0.003191  -0.024443  -0.066725  -0.391284
    24  N    0.000069  -0.000047   0.000055  -0.000581  -0.001905  -0.014399
    25  C   -0.002412   0.000314  -0.000295   0.001379   0.003670   0.032880
    26  C    0.004257   0.000033   0.000099   0.001653   0.003538   0.040867
    27  N    0.000033  -0.000002   0.000001  -0.000008  -0.000085  -0.000160
    28  S    0.000797  -0.000105   0.000061  -0.000622  -0.002675  -0.010305
    29  N   -0.001914  -0.000013  -0.000123   0.000829   0.005148   0.012843
    30  C    0.071487  -0.009740   0.006949  -0.052369  -0.156370  -0.425430
    31  H    0.719058  -0.087772   0.022809   0.127196  -0.376515   0.002708
    32  H    0.705239  -0.251945   0.227356   0.033464  -0.296686  -0.152010
    33  H   -0.304131   0.520715  -0.249282   0.115451   0.234764   0.021061
    34  H    0.156903  -0.275401   0.519358  -0.237912  -0.030198   0.090814
    35  H    0.009254  -0.003782  -0.015895  -0.141274  -0.028492   0.024364
    36  H    0.000281   0.000067   0.002726   0.021494   0.002772  -0.000202
    37  H    0.000830  -0.001044   0.001878  -0.017183  -0.000171  -0.000969
    38  H   -0.054549   0.118869  -0.159406   0.150685   0.069462  -0.015796
    39  H    0.002468   0.019295   0.018931   0.271774   0.204441   0.288431
    40  H   -0.010820   0.002902  -0.001391   0.026301   0.056615   0.145131
    41  H    0.011607   0.003964   0.003810  -0.024779  -0.027988  -0.069394
    42  H    0.006452  -0.004854  -0.002216  -0.063195  -0.090141  -0.264576
    43  H   -0.003455  -0.000184   0.002347  -0.005853  -0.018080  -0.118904
    44  H    0.000001   0.000002  -0.000003   0.000003  -0.000021   0.000267
              7          8          9         10         11         12
     1  C    1.701095  -1.225080   1.164073   0.162996  -0.100252   0.020624
     2  C   -0.587369   0.076943  -1.144282  -0.390528   0.109621  -0.039669
     3  C    0.339532   1.779575   1.899683   0.077012   0.045161   0.015745
     4  C   -3.539635   0.211314  -1.663794  -3.691027   1.220677  -0.548792
     5  C   -1.311745  -1.761672  -1.387260  -0.340277  -0.147150  -0.028344
     6  C   -1.737429  -0.125058  -0.239494   0.008774   0.119365  -0.006281
     7  S   21.083783  -1.614774   0.133012   1.276017  -0.802032   0.148886
     8  C   -1.614774  10.918642  -0.342179  -1.431120   0.857470  -0.589457
     9  C    0.133012  -0.342179  12.999079  -4.085068   2.522476  -1.354226
    10  C    1.276017  -1.431120  -4.085068  26.992961 -10.215128   4.470102
    11  C   -0.802032   0.857470   2.522476 -10.215128  12.960281  -2.822022
    12  C    0.148886  -0.589457  -1.354226   4.470102  -2.822022   7.420722
    13  N    0.005479   0.100174   0.375372  -0.344962   0.247242   0.009539
    14  C   -0.362097   0.168614  -2.059695  -7.071804   2.023697  -1.009454
    15  C    2.113920  -0.581191  -0.756340  -0.050110  -0.059729  -0.008057
    16  Si   0.048296  -0.299141   0.046173  -0.177201   0.029071  -0.011178
    17  H   -0.070433   0.120354  -0.018345   0.023303  -0.013266   0.001317
    18  H    0.053155   0.020763  -0.011107   0.040941   0.001453   0.002108
    19  C    0.131998   0.109347   0.018355   0.037096  -0.000833   0.001347
    20  C   -0.842561  -0.030490   0.012567  -0.030713   0.004029  -0.000891
    21  C   -0.615332   0.291546  -0.055362  -0.046006   0.014023  -0.002698
    22  C    0.391025  -0.021441  -0.018327   0.011727  -0.008715   0.000611
    23  C    0.114152  -0.008877  -0.010644   0.003489   0.000382   0.000030
    24  N    0.001735  -0.000366  -0.000072   0.000103   0.000030  -0.000000
    25  C   -0.007822   0.000428  -0.000019   0.000162   0.000065  -0.000001
    26  C    0.003612  -0.000014   0.000084  -0.000067  -0.000011  -0.000001
    27  N    0.000090   0.000002  -0.000000   0.000000  -0.000000   0.000000
    28  S    0.001715  -0.000107   0.000000   0.000003  -0.000002   0.000000
    29  N   -0.002312  -0.000132   0.000041  -0.000021  -0.000000  -0.000000
    30  C    0.116511   0.004065  -0.002197   0.003350  -0.000803   0.000082
    31  H    0.013490   0.000500   0.000275  -0.005134  -0.001061   0.000144
    32  H    0.023608  -0.018457   0.023897   0.007171  -0.000268   0.000117
    33  H   -0.006922  -0.012585  -0.039240  -0.009372   0.001866  -0.001027
    34  H   -0.007570  -0.062185   0.143766   0.079970  -0.014576   0.005872
    35  H    0.125294  -0.172679  -0.298976   0.960282  -0.298703   0.138032
    36  H   -0.020755   0.037615   0.150923  -0.447910   0.648016  -0.196881
    37  H    0.004186  -0.016261  -0.073453   0.240654  -0.396286   0.603177
    38  H   -0.041940  -0.083035  -0.475667  -0.091957   0.028890   0.032877
    39  H   -0.231690  -0.035364   0.038458  -0.096149   0.012701  -0.004990
    40  H   -0.032467   0.002793  -0.000383  -0.000503   0.000130  -0.000020
    41  H   -0.012443  -0.003056  -0.000981   0.000514   0.000207  -0.000035
    42  H    0.083621  -0.002641  -0.000660   0.004438  -0.001652   0.000267
    43  H    0.024838  -0.010308  -0.005530   0.002533   0.002164   0.000034
    44  H    0.000001  -0.000002  -0.000001  -0.000000   0.000000  -0.000000
             13         14         15         16         17         18
     1  C   -0.002704  -0.178106  -0.460254  -0.221401   0.048537  -0.059119
     2  C    0.006133   0.529361  -0.563189   0.030426   0.002552  -0.018601
     3  C   -0.023172  -0.398428   0.462148   0.003462  -0.009454   0.042612
     4  C    0.058777   1.884618  -6.050039  -0.071286   0.028223  -0.023683
     5  C    0.002026   0.320845  -3.145842   0.040013   0.033184   0.003004
     6  C    0.004220  -0.199713 -10.124571  -1.469979   0.233468  -0.029013
     7  S    0.005479  -0.362097   2.113920   0.048296  -0.070433   0.053155
     8  C    0.100174   0.168614  -0.581191  -0.299141   0.120354   0.020763
     9  C    0.375372  -2.059695  -0.756340   0.046173  -0.018345  -0.011107
    10  C   -0.344962  -7.071804  -0.050110  -0.177201   0.023303   0.040941
    11  C    0.247242   2.023697  -0.059729   0.029071  -0.013266   0.001453
    12  C    0.009539  -1.009454  -0.008057  -0.011178   0.001317   0.002108
    13  N    6.825567   0.106344  -0.000263  -0.000060   0.000028  -0.000033
    14  C    0.106344  12.209644  -0.176108   0.076797  -0.010887  -0.011136
    15  C   -0.000263  -0.176108  30.183518   1.845836  -0.035720  -0.148743
    16  Si  -0.000060   0.076797   1.845836  15.308052  -0.046990   0.255463
    17  H    0.000028  -0.010887  -0.035720  -0.046990   1.092297  -0.135906
    18  H   -0.000033  -0.011136  -0.148743   0.255463  -0.135906   0.920535
    19  C   -0.000007  -0.004278  -3.944982  -0.786440   0.032010  -0.000768
    20  C    0.000027   0.007607  -3.387798  -2.798313   0.209687   0.122235
    21  C    0.000267   0.006018  -1.683669  -0.305227  -0.102620   0.015202
    22  C   -0.000007  -0.008009   3.304921   1.747507  -0.026632  -0.002206
    23  C   -0.000004  -0.000545   0.621006  -0.388772  -0.045382  -0.043011
    24  N   -0.000000  -0.000005   0.011100   0.075455  -0.002143  -0.002848
    25  C    0.000000   0.000002  -0.067344  -0.182501  -0.023397   0.017902
    26  C   -0.000000   0.000004  -0.099473  -0.013252   0.035690  -0.004040
    27  N    0.000000  -0.000000  -0.001202  -0.002724  -0.000531   0.000500
    28  S   -0.000000  -0.000002   0.017492   0.034378  -0.002764  -0.000168
    29  N    0.000000   0.000003  -0.010234  -0.015059   0.000002   0.000280
    30  C   -0.000000  -0.000863  -0.068581   0.393795  -0.070556   0.082681
    31  H    0.000174   0.009267  -0.090869  -0.010201   0.001375   0.000281
    32  H   -0.000187  -0.012164   0.030450  -0.002806  -0.002492   0.004001
    33  H    0.000198   0.017102  -0.010089   0.002040   0.000000  -0.000203
    34  H    0.001942  -0.184515   0.063080   0.000504  -0.000809   0.000804
    35  H   -0.003848  -0.070193  -0.019916   0.001691  -0.013314   0.004529
    36  H    0.016483   0.075025  -0.000155   0.001462   0.000232  -0.000384
    37  H   -0.134074  -0.000060  -0.000348  -0.000264   0.000058   0.000017
    38  H   -0.142949   0.801295  -0.029334   0.000806   0.000263   0.000015
    39  H    0.000338   0.021238  -0.428666  -0.309579   0.015684  -0.010386
    40  H    0.000001   0.000129  -0.206072  -0.093553   0.011409   0.001790
    41  H   -0.000002  -0.001001  -0.244607  -0.001146  -0.004360   0.006126
[...]
 194,0.00000157,-0.00003113,-0.00018353,-0.00020287,-0.04533942,0.12557
 587,0.12480874,-0.00028857,-0.00094528,-0.00022678,0.00014288,-0.00006
 522,-0.00011598,-0.00011434,-0.00004734,-0.00000217,0.00023981,0.00021
 491,0.00001895,0.00015904,0.00034978,-0.00040020,0.00026582,-0.0016013
 4,-0.00036448,0.00012744,-0.00002996,-0.00006820,-0.00005832,-0.000065
 40,0.00002315,0.00005903,0.00004147,0.00002491,-0.00001130,-0.00000937
 ,0.00000218,0.00000216,-0.00000308,0.00000593,0.00000121,-0.00000408,-
 0.00000185,0.00001280,-0.00000249,-0.00000978,-0.00003342,0.00000816,0
 .00000650,-0.01131741,0.00120674,-0.00042690,-0.00081092,0.00055681,-0
 .00094043,-0.00004744,-0.00004219,0.00040159,0.00005831,-0.00009061,0.
 00012224,0.00070456,-0.00061960,-0.00164351,-0.00690923,-0.00448869,0.
 00329880,-0.29613152,-0.02114115,-0.01050253,0.00010586,-0.00064669,0.
 00080784,0.00020527,0.00008140,-0.00032485,-0.00010074,-0.00026889,0.0
 0009055,-0.00000583,0.00013157,0.00003669,-0.00002343,-0.00002381,-0.0
 0005892,-0.00001437,-0.00004080,0.00003393,-0.00001689,0.00000468,0.00
 001844,0.00007913,-0.00004781,-0.00007043,-0.00005905,0.00019017,0.000
 12660,0.00010107,-0.00016958,-0.00023683,-0.00003867,0.00020470,0.0001
 8880,-0.00002161,-0.00002398,0.00000056,0.00001724,-0.00001724,0.00002
 412,0.00000047,-0.00000031,-0.00000229,0.00000072,-0.00000290,0.000000
 15,0.00000133,-0.00000095,0.00000148,0.00000853,0.00000146,-0.00000048
 ,-0.00029951,0.00122761,0.00201582,-0.00008118,-0.00060554,0.00034949,
 0.32380476,-0.00040203,-0.00014271,-0.00033779,-0.00007489,-0.00007403
 ,0.00002737,0.00003260,0.00006729,-0.00004062,-0.00019729,-0.00018354,
 0.00010801,-0.00033492,-0.00020219,-0.00002662,0.00160173,0.00115161,0
 .00033927,-0.00009231,0.00014818,0.00001689,0.00012603,0.00020774,-0.0
 0000056,-0.00005541,-0.00009313,-0.00001186,0.00000346,0.00002155,-0.0
 0002003,-0.00000026,-0.00000143,-0.00000047,-0.00000589,0.00001671,0.0
 0000042,-0.00000022,0.00000013,0.00000728,0.00002038,0.00001141,-0.000
 01319,0.02422085,-0.00134874,0.00032593,-0.00021777,-0.00234645,0.0010
 5459,0.00006116,0.00058632,-0.00045199,-0.00004206,0.00017567,-0.00013
 822,-0.00036638,-0.00157161,-0.00011843,-0.02916363,-0.00287000,0.0016
 9275,-0.02864137,-0.04511496,-0.00228289,0.00170897,0.00035471,0.00142
 838,0.00009094,-0.00037486,0.00007344,-0.00017047,-0.00007197,-0.00017
 050,-0.00009969,-0.00009962,0.00019805,-0.00021643,-0.00001693,0.00006
 294,0.00000026,0.00002028,0.00000695,0.00003976,-0.00013825,-0.0001356
 9,0.00018154,0.00009396,-0.00013618,-0.00015638,0.00019833,0.00027332,
 -0.00043714,-0.00021821,-0.00052534,0.00004656,0.00009003,0.00005594,0
 .00002047,0.00003352,0.00001377,0.00001638,0.00000485,-0.00001665,-0.0
 0000128,0.00000014,0.00000194,-0.00000039,0.00000332,0.00000033,-0.000
 00182,0.00000033,-0.00000192,-0.00000353,-0.00000257,0.00000445,0.0025
 5530,-0.00322591,-0.00292657,0.00139618,-0.00010738,-0.00004530,0.0278
 0970,0.05418971,0.00018057,-0.00017226,-0.00034677,-0.00032640,-0.0000
 8757,0.00001118,0.00012972,0.00019892,-0.00000872,-0.00002891,-0.00009
 747,0.00002036,0.00028415,-0.00014923,0.00023967,0.00024066,0.00067361
 ,0.00089908,-0.00012036,0.00012260,0.00000671,0.00000034,0.00016826,-0
 .00002421,-0.00002424,-0.00008887,-0.00002001,0.00000107,0.00002078,-0
 .00000960,0.00000605,0.00000429,-0.00000372,-0.00000869,0.00001536,0.0
 0000116,0.00001095,0.00000421,-0.00000582,0.00000444,0.00001926,-0.000
 00661,0.01410961,0.00047185,-0.00034156,0.00156532,-0.00002620,0.00086
 419,0.00000732,-0.00001937,-0.00054175,-0.00026528,0.00008381,0.000101
 93,0.00033286,0.00132979,0.00007936,0.01676062,0.00411055,-0.00235506,
 -0.00921952,-0.00329679,-0.04359455,-0.00120237,0.00021541,-0.00106043
 ,-0.00009178,0.00007961,0.00003243,0.00023650,0.00010758,0.00004140,0.
 00001743,-0.00002685,-0.00004582,0.00010407,0.00000077,0.00004631,0.00
 001444,0.00001067,-0.00000827,-0.00001234,0.00001034,0.00002246,-0.000
 07182,-0.00001061,0.00002267,0.00004077,-0.00007416,-0.00010150,-0.000
 67570,-0.00024641,-0.00004944,0.00005757,-0.00007410,-0.00020948,0.000
 02960,0.00003746,0.00001816,0.00000165,0.00002805,-0.00003410,0.000001
 47,-0.00000295,0.00000194,-0.00000227,0.00000474,-0.00000040,-0.000001
 16,0.00000343,-0.00000130,-0.00000308,-0.00000120,0.00001533,0.0012647
 6,-0.00125588,-0.00082437,-0.00028447,-0.00003288,0.00024028,0.0093415
 2,0.00171435,0.04911786,-0.00026663,-0.00015401,0.00012130,0.00017122,
 -0.00001728,-0.00006637,-0.00011086,-0.00008773,-0.00000531,-0.0000281
 3,-0.00005249,-0.00012215,-0.00006805,0.00018598,-0.00019836,-0.000724
 33,-0.00075371,0.00030228,0.00006709,-0.00007687,-0.00003372,0.0000878
 8,0.00013512,0.00003511,-0.00001122,-0.00006597,0.00003043,-0.00000072
 ,0.00001547,-0.00000560,0.00000246,-0.00000661,-0.00000133,-0.00000050
 ,0.00001192,-0.00000076,-0.00000024,-0.00000194,0.00001214,0.00001130,
 0.00001556,-0.00000427,0.00140782,0.00299091,0.01496454,0.00006105,0.0
 0193067,0.00106150,-0.00020715,-0.00033090,0.00021903,-0.00012790,-0.0
 0027946,0.00054622,0.00040861,-0.00112070,0.00018441,0.00162311,-0.001
 80357,0.01183927,-0.06062917,0.00070316,-0.06594616,-0.00091549,-0.000
 43861,0.00025181,0.00002760,0.00006281,-0.00012518,0.00005445,-0.00013
 769,0.00015220,0.00003156,0.00010233,-0.00002788,0.00005360,-0.0000046
 8,-0.00004572,0.00000910,0.00000241,-0.00001872,-0.00000648,0.00000032
 ,0.00003584,-0.00003755,0.00001019,-0.00001507,0.00002608,0.00007308,0
 .00004614,0.00034074,-0.00001923,-0.00004127,0.00000787,0.00005052,0.0
 0007065,-0.00001465,-0.00002162,-0.00000788,0.00000280,-0.00001272,0.0
 0002746,-0.00000053,-0.00000185,-0.00000031,-0.00000167,0.00000310,-0.
 00000013,-0.00000059,0.00000091,-0.00000339,-0.00000321,-0.00000224,-0
 .00000945,0.00122940,-0.00005634,0.00078913,0.00025211,0.00039750,-0.0
 0053366,-0.00973583,0.00068525,-0.03227630,0.06707885,0.00012122,-0.00
 008589,0.00002247,0.00003483,0.00001745,0.00000387,-0.00002977,-0.0000
 5116,-0.00000758,0.00011167,0.00019612,-0.00009653,-0.00079325,-0.0003
 5068,0.00020703,0.00113845,0.00163029,-0.00041385,0.00014966,-0.000107
 45,0.00003232,-0.00011803,-0.00034291,0.00006146,-0.00000232,0.0001743
 6,0.00000203,0.00002121,-0.00002931,0.00002081,-0.00000851,0.00000657,
 0.00000861,0.00000551,-0.00003193,-0.00000137,-0.00001645,0.00000396,-
 0.00000508,-0.00001585,-0.00004889,0.00001167,-0.00263662,-0.00367992,
 -0.02431957,0.00081667,-0.00442524,0.00001132,0.00021941,0.00067081,-0
 .00039738,0.00001583,0.00077338,-0.00040582,-0.00102026,-0.00348743,0.
 00162837,0.00809182,0.00126727,0.02891517,-0.00030162,-0.04696402,0.00
 167322,-0.00204791,0.00087290,-0.00020180,-0.00015157,-0.00049917,0.00
 008731,0.00018837,-0.00000287,0.00007319,-0.00005464,-0.00008669,0.000
 17118,0.00009180,-0.00002597,0.00013059,0.00000028,0.00000507,0.000019
 11,0.00003985,-0.00011182,-0.00010524,-0.00000615,0.00008192,-0.000154
 02,-0.00004717,0.00009739,0.00023827,0.00004716,0.00006624,0.00003106,
 -0.00003451,-0.00000667,0.00001315,-0.00001527,-0.00001067,-0.00000603
 ,-0.00000561,-0.00000739,0.00000302,-0.00000333,0.00000327,-0.00000448
 ,0.00000394,-0.00000688,-0.00000157,0.00000198,-0.00000411,0.00000382,
 0.00000376,0.00000227,-0.00000447,-0.00069393,0.00100489,0.00028604,-0
 .00011875,0.00056317,-0.00089993,-0.00101458,0.00082112,-0.00378473,-0
 .00190765,0.05208663,0.00011349,-0.00005630,-0.00003818,0.00003283,0.0
 0005564,0.00003223,0.00001952,-0.00004721,0.00002706,0.00009741,-0.000
 09613,-0.00000253,-0.00010741,-0.00011840,0.00000858,0.00030618,0.0003
 6136,-0.00005696,0.00003786,-0.00009090,-0.00005657,-0.00025557,-0.000
 31474,0.00000745,-0.00000063,0.00016046,-0.00002734,0.00001332,-0.0000
 3315,0.00001682,-0.00001757,0.00000363,0.00000744,0.00001993,-0.000033
 37,0.00000085,-0.00001776,0.00000144,-0.00000120,-0.00000461,-0.000052
 45,0.00001219,-0.00061194,-0.00216918,-0.01162843,-0.00014155,-0.00146
 792,0.00033404,0.00018475,0.00024018,-0.00032736,0.00007225,0.00003345
 ,-0.00036119,-0.00134162,0.00195620,0.00058806,-0.00100016,0.00200163,
 -0.01306481,-0.06622786,0.00167236,-0.28489016,0.00093338,0.00015049,-
 0.00024350,0.00001124,0.00005407,0.00017914,-0.00004972,0.00021898,-0.
 00012094,0.00001732,-0.00008002,-0.00005857,-0.00006543,0.00003941,0.0
 0001669,0.00001441,0.00003140,-0.00002525,0.00000255,0.00005864,-0.000
 00790,-0.00002003,-0.00000407,0.00011587,0.00005970,-0.00017553,-0.000
 18062,0.00001244,0.00008659,0.00002859,-0.00002624,0.00000475,0.000040
 96,-0.00001063,-0.00000937,-0.00000672,-0.00000301,-0.00001120,-0.0000
 0368,-0.00000538,0.00000512,-0.00000734,0.00000361,-0.00000650,-0.0000
 0053,-0.00000093,-0.00000341,0.00000256,-0.00000055,0.00000509,-0.0000
 0465,0.00015425,0.00000162,0.00142484,0.00046276,0.00045939,0.00062781
 ,-0.00153349,-0.00002021,-0.00214518,0.06883740,-0.00283827,0.30973533
 ,0.00000846,-0.00000895,0.00003543,-0.00001375,-0.00001247,-0.00001624
 ,0.00000392,0.00001147,-0.00000291,0.00000115,0.00001709,-0.00000492,-
 0.00000156,-0.00001505,-0.00000097,-0.00003135,-0.00006661,0.00001254,
 -0.00000810,-0.00001035,-0.00000445,0.00001839,0.00003955,0.00000415,-
 0.00000064,-0.00003166,0.00001624,0.00000012,0.00000616,-0.00000549,0.
 00000483,-0.00000030,-0.00000093,-0.00000178,0.00000528,-0.00000120,0.
 00000186,0.00000473,-0.00000279,0.00000354,0.00000653,-0.00000134,-0.0
 0031992,-0.00001618,-0.00016720,0.00082678,-0.00104968,0.00131633,-0.0
 0023534,0.00018172,-0.00008351,-0.00015161,0.00000311,-0.00027001,-0.0
 0308814,0.00094096,-0.00184463,-0.00013520,-0.00023594,-0.00008401,0.0
 0013352,0.00009792,0.00022063,0.00396817,0.01088067,0.00581665,-0.0495
 1950,0.04015684,0.02370987,0.00057328,-0.01222286,-0.00345702,0.004683
 67,-0.00215695,0.00267255,-0.00049906,-0.00018602,0.00009633,-0.000100
 58,0.00001791,-0.00024130,-0.00117773,0.00016786,-0.00035127,0.0006883
 9,0.00060618,0.00041457,0.00561920,-0.00075791,0.00477562,-0.00000179,
 0.00000197,0.00000338,0.00000469,0.00000622,-0.00001621,0.00000119,0.0
 0000044,0.00000339,-0.00000024,0.00000349,0.00000101,0.00000125,-0.000
 00347,-0.00000105,-0.00000207,0.00000382,0.00000026,-0.00000044,0.0000
 0293,-0.00000098,-0.00000397,-0.00000061,0.00000233,0.00002823,0.00002
 394,-0.00010085,0.00032334,0.00001599,0.00007007,0.00001318,-0.0000201
 1,-0.00007386,-0.00003482,-0.00000153,0.00001382,0.03794331,0.00000395
 ,-0.00000352,-0.00001404,0.00000354,0.00001018,0.00000925,0.00000097,-
 0.00000558,0.00000464,-0.00000728,0.00001474,0.,-0.00001884,-0.0000194
 2,-0.00001322,0.00004871,0.00010819,-0.00001671,0.00000351,-0.00000045
 ,-0.00000791,0.00000135,-0.00001955,0.00001204,-0.00000109,0.00002436,
 -0.00001029,0.00000473,-0.00000390,0.00000282,-0.00000422,-0.00000063,
 0.00000184,0.00000187,-0.00000310,-0.00000081,-0.00000507,-0.00000419,
 0.00000289,-0.00000102,-0.00000513,0.00000079,-0.00009128,0.00009803,0
 .00018595,0.00021710,0.00038052,-0.00055084,-0.00018723,-0.00079055,0.
 00044295,0.00002583,-0.00031438,0.00022421,-0.00051639,0.00079467,0.00
 155740,0.00012938,0.00039479,-0.00020489,0.00000208,-0.00010931,0.0000
 4988,-0.00048194,-0.00132626,0.00046591,0.03929121,-0.27418194,-0.1071
 7625,-0.00110361,-0.03069574,-0.00016754,-0.00122046,-0.00106595,0.002
 32553,-0.00011116,0.00016709,0.00032651,0.00005675,-0.00001175,-0.0001
 0733,0.00012630,-0.00004669,-0.00022186,0.00002822,0.00006981,-0.00011
 323,-0.00010541,0.00091002,-0.00012991,-0.00000305,0.00000093,0.000001
 50,0.00000430,0.00000213,0.00000515,-0.00000160,-0.00000137,-0.0000036
 3,-0.00000025,-0.00000265,-0.00000237,-0.00000158,0.00000213,-0.000000
 28,0.00000101,-0.00000119,-0.00000088,0.00000061,-0.00000224,0.0000004
 5,0.00000191,0.00000066,-0.00000187,0.00000635,0.00000434,-0.00000836,
 -0.00007610,-0.00007052,0.00010408,-0.00000251,0.00001855,0.00000383,-
 0.00002044,0.00002745,0.00001721,-0.03610847,0.30634403,0.00000483,-0.
 00000530,-0.00000634,0.00000187,0.00002252,0.00000283,0.00001239,-0.00
 001659,0.00000619,-0.00000434,0.00001017,0.00000553,-0.00001376,-0.000
 06418,0.00000388,0.00003625,0.00014247,0.00006365,-0.00002924,0.000007
 33,-0.00000826,-0.00000794,-0.00007582,0.00001748,-0.00000445,0.000065
 06,-0.00003044,0.00000527,-0.00001490,0.00000613,-0.00001189,0.0000000
 5,0.00000163,0.00000722,-0.00001193,0.00000073,-0.00001065,-0.00001177
 ,0.00000062,0.00000149,-0.00001588,0.00000367,-0.00023505,-0.00008410,
 -0.00012126,0.00160587,0.00203703,-0.00143554,-0.00024652,-0.00013198,
 0.00028029,-0.00019392,-0.00013098,0.00007813,-0.00205739,-0.00176610,
 0.00060913,-0.00005997,0.00057658,-0.00001788,0.00008124,-0.00008911,0
 .00012642,0.00506079,-0.02538201,-0.00735074,0.02360512,-0.10776916,-0
 .10158642,-0.00263121,0.02469955,0.00731211,0.00271751,0.00438022,0.00
 020786,0.00015525,0.00043834,-0.00075243,-0.00025920,0.00002074,0.0003
 8046,-0.00033661,-0.00032564,-0.00060730,0.00036389,-0.00144103,-0.000
 10376,0.00485972,0.00104319,-0.00313496,-0.00000495,0.00000606,0.00000
 346,0.00001554,0.00000260,0.00001267,-0.00001187,-0.00000512,-0.000002
 73,-0.00000496,-0.00000633,-0.00000124,-0.00000433,0.00000648,0.000001
 40,0.00000377,-0.00000393,0.00000097,0.00000021,-0.00000436,0.00000235
 ,0.00000340,0.00000264,-0.00000216,0.00001456,0.00000079,-0.00001223,0
 .00003147,-0.00006737,0.00023496,-0.00001778,0.00000576,-0.00002280,-0
 .00003366,0.00004129,0.00004030,-0.03252249,0.10336013,0.10546144,0.00
 000080,-0.00000045,0.00000006,-0.00000311,-0.00000062,-0.00000001,0.00
 000218,0.00000131,-0.00000123,-0.00000127,0.00000068,0.00000207,-0.000
 00075,-0.00000358,0.00000075,0.00000151,-0.00000045,0.00000375,-0.0000
 0406,-0.00000038,-0.00000035,0.00000222,0.00000408,-0.00000070,-0.0000
 0164,-0.00000338,0.00000052,0.00000040,0.00000064,-0.00000030,0.000000
 35,0.00000014,-0.00000054,0.00000028,0.00000019,0.,-0.00000080,0.00000
 019,-0.00000047,0.00000188,0.00000092,0.00000017,-0.00001449,-0.000015
 93,-0.00001353,0.00004211,-0.00002813,0.00002269,-0.00000975,0.0000053
 4,-0.00000371,-0.00000901,-0.00000203,-0.00000056,-0.00164736,-0.00000
 935,-0.00087586,-0.00014900,0.00001128,-0.00002160,0.00037544,-0.00000
 575,0.00019625,-0.00055107,0.00027145,-0.00004994,0.01089596,0.0010448
 6,0.00401825,-0.00287192,0.00297101,-0.00752442,-0.06768825,-0.0619604
 4,0.06163081,0.00305410,-0.00928706,0.00794049,-0.00082848,-0.00005804
 ,-0.00145752,-0.00073868,-0.00012087,0.00012156,-0.00004861,-0.0001668
 8,0.00071226,0.00310466,0.00129287,0.00242969,-0.00000192,0.00000079,0
 .00000123,0.00000164,-0.00000046,-0.00000107,-0.00000057,-0.00000039,0
 .00000020,-0.00000001,0.,-0.00000018,-0.00000006,-0.00000049,0.0000000
 2,-0.00000011,0.00000050,0.00000013,-0.00000010,0.00000047,-0.00000003
 ,-0.00000061,0.00000014,0.00000041,-0.00000109,0.00000085,-0.00000172,
 -0.00010124,0.00002624,-0.00006161,0.00000896,0.00008415,-0.00005489,-
 0.00002900,-0.00005817,0.00002166,0.00047713,0.00010935,0.00011453,0.0
 5673337,-0.00000051,-0.00000148,-0.00000254,0.00000300,0.00000791,0.00
 000214,0.00000362,-0.00000406,0.00000043,-0.00000437,-0.00000233,0.000
 00157,-0.00000362,-0.00000795,0.00000262,0.00001192,0.00003103,0.00000
 325,-0.00000451,0.00000009,-0.00000131,0.00000133,-0.00001577,0.000001
 77,-0.00000260,0.00001641,-0.00000518,0.00000051,-0.00000375,0.0000011
 8,-0.00000403,0.00000033,-0.00000033,0.00000416,-0.00000253,0.00000072
 ,-0.00000326,-0.00000357,-0.00000011,0.00000279,-0.00000333,0.00000010
 ,-0.00000942,-0.00001318,0.00001046,0.00007777,0.00016000,-0.00013740,
 -0.00001310,-0.00003911,0.00002990,-0.00001251,-0.00002701,0.00001924,
 -0.00006062,0.00015752,0.00032261,-0.00001199,-0.00005910,0.00004898,-
 0.00003305,0.00000399,0.00001998,-0.00008083,-0.00072437,0.00015735,0.
 00021562,-0.00173352,-0.00172659,-0.00714970,-0.03341299,0.01384262,-0
 .06149801,-0.19497722,0.12595990,0.00253691,0.00819488,-0.00569403,-0.
 00029721,0.00107672,0.00092216,-0.00022403,0.00021318,0.00058360,0.000
 41963,0.00051616,-0.00091982,0.00055602,-0.00095681,-0.00167736,0.0000
 0129,0.00000005,-0.00000045,0.00000293,0.00000057,0.00000319,-0.000002
 42,-0.00000130,-0.00000087,-0.00000094,-0.00000201,-0.00000028,-0.0000
 0200,0.00000150,-0.00000020,0.00000166,-0.00000121,0.00000065,-0.00000
 069,-0.00000108,0.00000076,0.00000038,0.00000111,-0.00000047,-0.000000
 56,-0.00000203,0.00000104,-0.00000660,-0.00001091,0.00001815,-0.000007
 76,-0.00001098,0.00000798,-0.00000291,-0.00000548,0.00000924,-0.000297
 64,-0.00068664,0.00055461,0.06589537,0.22232825,-0.00000166,-0.0000010
 4,0.00000239,0.00000099,-0.00000030,-0.00000186,-0.00000038,-0.0000018
 8,0.00000126,-0.00000113,0.00000643,0.00000199,0.00000275,-0.00000754,
 -0.00000410,0.00000048,0.00000863,0.00000081,-0.00000320,0.00000052,-0
 .00000212,-0.00000009,-0.00000483,0.00000202,0.00000031,0.00000482,-0.
 00000389,0.00000104,-0.00000118,-0.00000016,-0.00000022,-0.00000041,0.
 00000115,-0.00000091,-0.00000044,-0.00000063,-0.00000056,-0.00000083,0
 .00000054,-0.00000162,-0.00000151,0.00000107,-0.00000525,0.00000293,-0
 .00000327,0.00002134,0.00007906,0.00002132,-0.00000237,-0.00000272,-0.
 00000113,-0.00000503,-0.00000428,-0.00000445,-0.00090357,0.00011482,-0
 .00000714,0.00002170,-0.00004303,-0.00011649,0.00009610,0.00000822,0.0
 0013573,0.00001475,-0.00057198,-0.00064156,0.00393745,-0.00354628,0.00
 336495,-0.00847348,-0.00908444,0.01215036,0.06170393,0.12694043,-0.167
 26865,0.00898607,0.02131978,-0.01166576,-0.00146288,0.00034164,0.00189
 673,0.00010771,0.00038471,-0.00087749,0.00078929,0.00037309,-0.0014823
 5,0.00231020,-0.00351264,-0.00146933,0.00000174,0.00000018,0.00000041,
 0.00000096,0.00000032,0.00000052,-0.00000132,-0.00000050,0.,-0.0000006
 0,-0.00000046,0.00000019,0.00000042,0.00000068,0.00000065,-0.00000036,
 0.00000002,-0.00000013,0.00000059,-0.00000047,0.00000010,0.00000055,0.
 00000002,-0.00000020,0.00000106,0.00000104,-0.00000215,-0.00006151,-0.
 00004882,0.00000014,0.00000768,0.00000888,-0.00002102,-0.00000418,-0.0
 0004866,0.00001278,0.00007044,-0.00035276,0.00033220,-0.06714722,-0.13
 235923,0.16564655\\-0.00000258,-0.00000193,-0.00000207,-0.00000138,-0.
 00000029,0.00000274,0.00000506,-0.00000192,-0.00000875,-0.00000412,0.0
 0000294,0.00000609,-0.00000134,0.00000134,0.00000326,0.00000205,-0.000
 00102,-0.00000563,0.00000082,0.00000153,-0.00000009,0.00000272,-0.0000
 0430,-0.00000281,-0.00000216,0.00000251,0.00000003,0.00000081,0.000000
 08,0.00000143,0.00000063,0.00000072,0.00000126,-0.00000143,-0.00000077
 ,-0.00000171,0.00000087,0.00000010,-0.00000047,0.00000021,-0.00000163,
 -0.00000068,-0.00000187,-0.00000066,0.00000992,0.00000181,0.00000129,0
 .00000142,0.00000049,-0.00000074,0.00000080,0.00000039,0.00000091,-0.0
 0000079,-0.00000040,-0.00000175,-0.00000135,-0.00000329,0.00000188,-0.
 00000100,0.00000193,-0.00000169,-0.00000109,0.,0.00000195,-0.00000071,
 0.00000219,-0.00000300,0.00000509,0.00000106,0.00000363,-0.00000015,0.
 00000005,-0.00000248,-0.00000044,-0.00000027,-0.00000231,0.00000243,-0
 .00000106,0.00000037,0.00000161,-0.00000266,0.00000092,0.00000218,-0.0
 0000020,0.00000437,-0.00000084,0.00000003,0.00000015,-0.00000325,-0.00
 000044,-0.00000099,-0.00000434,0.00000401,-0.00000024,-0.00000181,0.00
 000098,0.00000014,-0.00000259,0.00000044,-0.00000009,-0.00000147,0.000
 00026,0.00000015,0.00000129,0.00000054,0.00000052,0.00000135,0.0000001
 2,0.00000013,0.00000082,-0.00000022,-0.00000106,-0.00000127,-0.0000011
 1,0.00000058,0.00000071,-0.00000094,-0.00000102,0.00000021,-0.00000198
 ,-0.00000033,-0.00000198,-0.00000174,0.00000074,0.00000058,0.00000077,
 0.00000064,0.00000086,0.00000097,0.00000062,0.00000121\\\@


 ACHIEVEMENT--  THE MAN WHO ROWS THE BOAT GENERALLY 
                DOESN'T HAVE TIME TO ROCK IT.

                   -- FROM THE BACK OF A SUGAR PACKET
 Job cpu time:  0 days 20 hours 31 minutes 48.5 seconds.
 File lengths (MBytes):  RWF=   1864 Int=      0 D2E=      0 Chk=     31 Scr=      1
 Normal termination of Gaussian 09 at Sun Dec 29 06:45:09 2013.
