 Entering Gaussian System, Link 0=g09
 Initial command:
 /opt/gaussian/g09/l1.exe /panfs/panfs.cluster/home/shuo/Gau-27074.inp -scrdir=/panfs/panfs.cluster/home/shuo/
 Default is to use a total of  12 processors:
                               12 via shared-memory
                                1 via Linda
 Entering Link 1 = /opt/gaussian/g09/l1.exe PID=     27075.
  
 Copyright (c) 1988,1990,1992,1993,1995,1998,2003,2009,2011,
            Gaussian, Inc.  All Rights Reserved.
  
 This is part of the Gaussian(R) 09 program.  It is based on
 the Gaussian(R) 03 system (copyright 2003, Gaussian, Inc.),
 the Gaussian(R) 98 system (copyright 1998, Gaussian, Inc.),
 the Gaussian(R) 94 system (copyright 1995, Gaussian, Inc.),
 the Gaussian 92(TM) system (copyright 1992, Gaussian, Inc.),
 the Gaussian 90(TM) system (copyright 1990, Gaussian, Inc.),
 the Gaussian 88(TM) system (copyright 1988, Gaussian, Inc.),
 the Gaussian 86(TM) system (copyright 1986, Carnegie Mellon
 University), and the Gaussian 82(TM) system (copyright 1983,
 Carnegie Mellon University). Gaussian is a federally registered
 trademark of Gaussian, Inc.
  
 This software contains proprietary and confidential information,
 including trade secrets, belonging to Gaussian, Inc.
  
 This software is provided under written license and may be
 used, copied, transmitted, or stored only in accord with that
 written license.
  
 The following legend is applicable only to US Government
 contracts under FAR:
  
                    RESTRICTED RIGHTS LEGEND
  
 Use, reproduction and disclosure by the US Government is
 subject to restrictions as set forth in subparagraphs (a)
 and (c) of the Commercial Computer Software - Restricted
 Rights clause in FAR 52.227-19.
  
 Gaussian, Inc.
 340 Quinnipiac St., Bldg. 40, Wallingford CT 06492
  
  
 ---------------------------------------------------------------
 Warning -- This program may not be used in any manner that
 competes with the business of Gaussian, Inc. or will provide
 assistance to any competitor of Gaussian, Inc.  The licensee
 of this program is prohibited from giving any competitor of
 Gaussian, Inc. access to this program.  By using this program,
 the user acknowledges that Gaussian, Inc. is engaged in the
 business of creating and licensing software in the field of
 computational chemistry and represents and warrants to the
 licensee that it is not a competitor of Gaussian, Inc. and that
 it will not use this program in any manner prohibited above.
 ---------------------------------------------------------------
  

 Cite this work as:
 Gaussian 09, Revision C.01,
 M. J. Frisch, G. W. Trucks, H. B. Schlegel, G. E. Scuseria, 
 M. A. Robb, J. R. Cheeseman, G. Scalmani, V. Barone, B. Mennucci, 
 G. A. Petersson, H. Nakatsuji, M. Caricato, X. Li, H. P. Hratchian, 
 A. F. Izmaylov, J. Bloino, G. Zheng, J. L. Sonnenberg, M. Hada, 
 M. Ehara, K. Toyota, R. Fukuda, J. Hasegawa, M. Ishida, T. Nakajima, 
 Y. Honda, O. Kitao, H. Nakai, T. Vreven, J. A. Montgomery, Jr., 
 J. E. Peralta, F. Ogliaro, M. Bearpark, J. J. Heyd, E. Brothers, 
 K. N. Kudin, V. N. Staroverov, T. Keith, R. Kobayashi, J. Normand, 
 K. Raghavachari, A. Rendell, J. C. Burant, S. S. Iyengar, J. Tomasi, 
 M. Cossi, N. Rega, J. M. Millam, M. Klene, J. E. Knox, J. B. Cross, 
 V. Bakken, C. Adamo, J. Jaramillo, R. Gomperts, R. E. Stratmann, 
 O. Yazyev, A. J. Austin, R. Cammi, C. Pomelli, J. W. Ochterski, 
 R. L. Martin, K. Morokuma, V. G. Zakrzewski, G. A. Voth, 
 P. Salvador, J. J. Dannenberg, S. Dapprich, A. D. Daniels, 
 O. Farkas, J. B. Foresman, J. V. Ortiz, J. Cioslowski, 
 and D. J. Fox, Gaussian, Inc., Wallingford CT, 2010.
 
 ******************************************
 Gaussian 09:  EM64L-G09RevC.01 23-Sep-2011
                29-Dec-2013 
 ******************************************
 %chk=85_C23H12N4S3Se.chk
 %NProcShared=12
 Will use up to   12 processors via shared memory.
 %Mem=8000MB
 Default route:  MaxDisk=100GB
 --------------------------------------------
 #B3LYP/6-31++G(d,p) opt scf=direct freq test
 --------------------------------------------
 1/14=-1,18=20,19=15,26=3,38=1/1,3;
 2/9=110,12=2,17=6,18=5,40=1/2;
 3/5=1,6=6,7=1111,11=2,16=1,25=1,30=1,71=1,74=-5/1,2,3;
 4//1;
 5/5=2,38=5/2;
 6/7=2,8=2,9=2,10=2,28=1/1;
 7//1,2,3,16;
 1/14=-1,18=20,19=15/3(2);
 2/9=110/2;
 99//99;
 2/9=110/2;
 3/5=1,6=6,7=1111,11=2,16=1,25=1,30=1,71=1,74=-5/1,2,3;
 4/5=5,16=3/1;
 5/5=2,38=5/2;
 7//1,2,3,16;
 1/14=-1,18=20,19=15/3(-5);
 2/9=110/2;
 6/7=2,8=2,9=2,10=2,19=2,28=1/1;
 99/9=1/99;
 ----------------------------------------------------------------------
 Geom opt of No.85 candidate from the CEPDB database with SMILE code of
  C1cccc1-c1cnc(s1)-c1ncc(-c2scc3ccCc23)c2nsnc12, HPC, 20131227, Shuo D
 ai, Gaussian09
 ----------------------------------------------------------------------
 Charge =  0 Multiplicity = 1
 Symbolic Z-Matrix:
 C                     0.15585   1.14857  -0.0869 
 C                     1.31732   0.21976  -0.17672 
 C                     0.88008  -1.04878  -0.22268 
 C                    -0.56014  -1.07829  -0.12101 
 C                    -0.97914   0.15238   0.12143 
 C                    -2.06609   0.35976   1.00028 
 C                    -2.65989  -0.4008    1.98729 
 N                    -3.18644   0.33929   3.03721 
 C                    -3.05979   1.6211    2.74786 
 S                    -2.69043   1.91329   1.09926 
 C                    -3.24619   2.75798   3.61842 
 N                    -3.83925   2.57027   4.83091 
 C                    -4.05597   3.63281   5.65207 
 C                    -3.71957   4.97117   5.40797 
 C                    -3.91505   6.0649    6.33616 
 S                    -4.38389   5.72078   7.97203 
 C                    -4.29808   7.36351   8.44335 
 C                    -3.95915   8.13026   7.37517 
 C                    -3.73259   9.50716   7.14209 
 C                    -3.40845   9.70273   5.84703 
 C                    -3.36547   8.38807   5.09758 
 C                    -3.75085   7.42119   6.17802 
 C                    -3.08911   5.18255   4.15925 
 N                    -2.64477   6.3354    3.64023 
 S                    -1.99399   6.08065   2.17025 
 N                    -2.20354   4.46632   2.12164 
 C                    -2.83368   4.06383   3.24549 
 H                     0.02606   1.75147  -0.99345 
 H                     0.27577   1.8219    0.7697 
 H                     2.34073   0.54676  -0.07502 
 H                     1.48887  -1.93019  -0.12221 
 H                    -1.12906  -1.98406   0.07429 
 H                    -2.59678  -1.47594   2.09233 
 H                    -4.54395   3.33745   6.58122 
 H                    -4.50072   7.63949   9.464 
 H                    -3.79049   10.27114   7.89757 
 H                    -3.15132   10.63715   5.37442 
 H                    -2.33275   8.25806   4.7599 
 H                    -4.07049   8.37949   4.25852 
 

 GradGradGradGradGradGradGradGradGradGradGradGradGradGradGradGradGradGrad
 Berny optimization.
 Initialization pass.
                           ----------------------------
                           !    Initial Parameters    !
                           ! (Angstroms and Degrees)  !
 --------------------------                            --------------------------
 ! Name  Definition              Value          Derivative Info.                !
 --------------------------------------------------------------------------------
 ! R1    R(1,2)                  1.4899         estimate D2E/DX2                !
 ! R2    R(1,5)                  1.5245         estimate D2E/DX2                !
 ! R3    R(1,28)                 1.0964         estimate D2E/DX2                !
 ! R4    R(1,29)                 1.0961         estimate D2E/DX2                !
 ! R5    R(2,3)                  1.3426         estimate D2E/DX2                !
 ! R6    R(2,30)                 1.0792         estimate D2E/DX2                !
 ! R7    R(3,4)                  1.4441         estimate D2E/DX2                !
 ! R8    R(3,31)                 1.0759         estimate D2E/DX2                !
 ! R9    R(4,5)                  1.3225         estimate D2E/DX2                !
 ! R10   R(4,32)                 1.0873         estimate D2E/DX2                !
 ! R11   R(5,6)                  1.4131         estimate D2E/DX2                !
 ! R12   R(6,7)                  1.3803         estimate D2E/DX2                !
 ! R13   R(6,10)                 1.6772         estimate D2E/DX2                !
 ! R14   R(7,8)                  1.3883         estimate D2E/DX2                !
 ! R15   R(7,33)                 1.0821         estimate D2E/DX2                !
 ! R16   R(8,9)                  1.3202         estimate D2E/DX2                !
 ! R17   R(9,10)                 1.7146         estimate D2E/DX2                !
 ! R18   R(9,11)                 1.444          estimate D2E/DX2                !
 ! R19   R(11,12)                1.3627         estimate D2E/DX2                !
 ! R20   R(11,27)                1.4193         estimate D2E/DX2                !
 ! R21   R(12,13)                1.3602         estimate D2E/DX2                !
 ! R22   R(13,14)                1.4014         estimate D2E/DX2                !
 ! R23   R(13,34)                1.0903         estimate D2E/DX2                !
 ! R24   R(14,15)                1.4478         estimate D2E/DX2                !
 ! R25   R(14,23)                1.4147         estimate D2E/DX2                !
 ! R26   R(15,16)                1.7362         estimate D2E/DX2                !
 ! R27   R(15,22)                1.3753         estimate D2E/DX2                !
 ! R28   R(16,17)                1.7112         estimate D2E/DX2                !
 ! R29   R(17,18)                1.3579         estimate D2E/DX2                !
 ! R30   R(17,35)                1.0765         estimate D2E/DX2                !
 ! R31   R(18,19)                1.4147         estimate D2E/DX2                !
 ! R32   R(18,22)                1.4069         estimate D2E/DX2                !
 ! R33   R(19,20)                1.3493         estimate D2E/DX2                !
 ! R34   R(19,36)                1.076          estimate D2E/DX2                !
 ! R35   R(20,21)                1.5139         estimate D2E/DX2                !
 ! R36   R(20,37)                1.0782         estimate D2E/DX2                !
 ! R37   R(21,22)                1.5002         estimate D2E/DX2                !
 ! R38   R(21,38)                1.0943         estimate D2E/DX2                !
 ! R39   R(21,39)                1.096          estimate D2E/DX2                !
 ! R40   R(23,24)                1.3401         estimate D2E/DX2                !
 ! R41   R(23,27)                1.4669         estimate D2E/DX2                !
 ! R42   R(24,25)                1.6277         estimate D2E/DX2                !
 ! R43   R(25,26)                1.6286         estimate D2E/DX2                !
 ! R44   R(26,27)                1.3499         estimate D2E/DX2                !
 ! A1    A(2,1,5)              100.4433         estimate D2E/DX2                !
 ! A2    A(2,1,28)             112.6581         estimate D2E/DX2                !
 ! A3    A(2,1,29)             110.1678         estimate D2E/DX2                !
 ! A4    A(5,1,28)             112.5931         estimate D2E/DX2                !
 ! A5    A(5,1,29)             112.0903         estimate D2E/DX2                !
 ! A6    A(28,1,29)            108.7422         estimate D2E/DX2                !
 ! A7    A(1,2,3)              109.7072         estimate D2E/DX2                !
 ! A8    A(1,2,30)             123.0042         estimate D2E/DX2                !
 ! A9    A(3,2,30)             126.7531         estimate D2E/DX2                !
 ! A10   A(2,3,4)              109.9803         estimate D2E/DX2                !
 ! A11   A(2,3,31)             125.9141         estimate D2E/DX2                !
 ! A12   A(4,3,31)             122.7514         estimate D2E/DX2                !
 ! A13   A(3,4,5)              108.0516         estimate D2E/DX2                !
 ! A14   A(3,4,32)             123.47           estimate D2E/DX2                !
 ! A15   A(5,4,32)             125.2058         estimate D2E/DX2                !
 ! A16   A(1,5,4)              110.3145         estimate D2E/DX2                !
 ! A17   A(1,5,6)              124.1784         estimate D2E/DX2                !
 ! A18   A(4,5,6)              119.6232         estimate D2E/DX2                !
 ! A19   A(5,6,7)              134.0084         estimate D2E/DX2                !
 ! A20   A(5,6,10)             117.3205         estimate D2E/DX2                !
 ! A21   A(7,6,10)             107.9409         estimate D2E/DX2                !
 ! A22   A(6,7,8)              114.218          estimate D2E/DX2                !
 ! A23   A(6,7,33)             126.2839         estimate D2E/DX2                !
 ! A24   A(8,7,33)             118.5795         estimate D2E/DX2                !
 ! A25   A(7,8,9)              108.3891         estimate D2E/DX2                !
 ! A26   A(8,9,10)             113.3835         estimate D2E/DX2                !
 ! A27   A(8,9,11)             128.3108         estimate D2E/DX2                !
 ! A28   A(10,9,11)            118.2506         estimate D2E/DX2                !
 ! A29   A(6,10,9)              88.8016         estimate D2E/DX2                !
 ! A30   A(9,11,12)            118.956          estimate D2E/DX2                !
 ! A31   A(9,11,27)            121.9004         estimate D2E/DX2                !
 ! A32   A(12,11,27)           119.1432         estimate D2E/DX2                !
 ! A33   A(11,12,13)           119.9248         estimate D2E/DX2                !
 ! A34   A(12,13,14)           127.0562         estimate D2E/DX2                !
 ! A35   A(12,13,34)           111.973          estimate D2E/DX2                !
 ! A36   A(14,13,34)           120.9705         estimate D2E/DX2                !
 ! A37   A(13,14,15)           125.2674         estimate D2E/DX2                !
 ! A38   A(13,14,23)           113.7913         estimate D2E/DX2                !
 ! A39   A(15,14,23)           120.8763         estimate D2E/DX2                !
 ! A40   A(14,15,16)           119.3937         estimate D2E/DX2                !
 ! A41   A(14,15,22)           130.933          estimate D2E/DX2                !
 ! A42   A(16,15,22)           109.6362         estimate D2E/DX2                !
 ! A43   A(15,16,17)            93.1933         estimate D2E/DX2                !
 ! A44   A(16,17,18)           109.751          estimate D2E/DX2                !
 ! A45   A(16,17,35)           119.8547         estimate D2E/DX2                !
 ! A46   A(18,17,35)           130.3942         estimate D2E/DX2                !
 ! A47   A(17,18,19)           135.9838         estimate D2E/DX2                !
 ! A48   A(17,18,22)           114.945          estimate D2E/DX2                !
 ! A49   A(19,18,22)           109.0635         estimate D2E/DX2                !
 ! A50   A(18,19,20)           109.7352         estimate D2E/DX2                !
 ! A51   A(18,19,36)           124.5228         estimate D2E/DX2                !
 ! A52   A(20,19,36)           125.7275         estimate D2E/DX2                !
 ! A53   A(19,20,21)           110.8617         estimate D2E/DX2                !
 ! A54   A(19,20,37)           127.1288         estimate D2E/DX2                !
 ! A55   A(21,20,37)           121.9249         estimate D2E/DX2                !
 ! A56   A(20,21,22)           101.2945         estimate D2E/DX2                !
 ! A57   A(20,21,38)           106.4234         estimate D2E/DX2                !
 ! A58   A(20,21,39)           111.5639         estimate D2E/DX2                !
 ! A59   A(22,21,38)           112.8361         estimate D2E/DX2                !
 ! A60   A(22,21,39)           112.3998         estimate D2E/DX2                !
 ! A61   A(38,21,39)           111.7105         estimate D2E/DX2                !
 ! A62   A(15,22,18)           112.4271         estimate D2E/DX2                !
 ! A63   A(15,22,21)           138.5078         estimate D2E/DX2                !
 ! A64   A(18,22,21)           109.0278         estimate D2E/DX2                !
 ! A65   A(14,23,24)           128.181          estimate D2E/DX2                !
 ! A66   A(14,23,27)           120.8959         estimate D2E/DX2                !
 ! A67   A(24,23,27)           110.9216         estimate D2E/DX2                !
 ! A68   A(23,24,25)           110.3471         estimate D2E/DX2                !
 ! A69   A(24,25,26)            97.5074         estimate D2E/DX2                !
 ! A70   A(25,26,27)           109.3158         estimate D2E/DX2                !
 ! A71   A(11,27,23)           119.1694         estimate D2E/DX2                !
 ! A72   A(11,27,26)           128.9593         estimate D2E/DX2                !
 ! A73   A(23,27,26)           111.8709         estimate D2E/DX2                !
 ! D1    D(5,1,2,3)              8.2065         estimate D2E/DX2                !
 ! D2    D(5,1,2,30)          -163.9098         estimate D2E/DX2                !
 ! D3    D(28,1,2,3)          -111.8114         estimate D2E/DX2                !
 ! D4    D(28,1,2,30)           76.0723         estimate D2E/DX2                !
 ! D5    D(29,1,2,3)           126.5708         estimate D2E/DX2                !
 ! D6    D(29,1,2,30)          -45.5455         estimate D2E/DX2                !
 ! D7    D(2,1,5,4)            -12.294          estimate D2E/DX2                !
 ! D8    D(2,1,5,6)            140.3907         estimate D2E/DX2                !
 ! D9    D(28,1,5,4)           107.7708         estimate D2E/DX2                !
 ! D10   D(28,1,5,6)           -99.5446         estimate D2E/DX2                !
 ! D11   D(29,1,5,4)          -129.2404         estimate D2E/DX2                !
 ! D12   D(29,1,5,6)            23.4443         estimate D2E/DX2                !
 ! D13   D(1,2,3,4)             -2.0451         estimate D2E/DX2                !
 ! D14   D(1,2,3,31)          -168.9725         estimate D2E/DX2                !
 ! D15   D(30,2,3,4)           169.7006         estimate D2E/DX2                !
 ! D16   D(30,2,3,31)            2.7732         estimate D2E/DX2                !
 ! D17   D(2,3,4,5)             -6.2401         estimate D2E/DX2                !
 ! D18   D(2,3,4,32)          -166.694          estimate D2E/DX2                !
 ! D19   D(31,3,4,5)           161.1792         estimate D2E/DX2                !
 ! D20   D(31,3,4,32)            0.7254         estimate D2E/DX2                !
 ! D21   D(3,4,5,1)             11.7153         estimate D2E/DX2                !
 ! D22   D(3,4,5,6)           -142.3902         estimate D2E/DX2                !
 ! D23   D(32,4,5,1)           171.7432         estimate D2E/DX2                !
 ! D24   D(32,4,5,6)            17.6377         estimate D2E/DX2                !
 ! D25   D(1,5,6,7)           -130.67           estimate D2E/DX2                !
 ! D26   D(1,5,6,10)            38.1633         estimate D2E/DX2                !
 ! D27   D(4,5,6,7)             19.6569         estimate D2E/DX2                !
 ! D28   D(4,5,6,10)          -171.5098         estimate D2E/DX2                !
 ! D29   D(5,6,7,8)            147.8458         estimate D2E/DX2                !
 ! D30   D(5,6,7,33)           -20.9481         estimate D2E/DX2                !
 ! D31   D(10,6,7,8)           -21.7346         estimate D2E/DX2                !
 ! D32   D(10,6,7,33)          169.4715         estimate D2E/DX2                !
 ! D33   D(5,6,10,9)          -147.3986         estimate D2E/DX2                !
 ! D34   D(7,6,10,9)            24.1825         estimate D2E/DX2                !
 ! D35   D(6,7,8,9)              4.7779         estimate D2E/DX2                !
 ! D36   D(33,7,8,9)           174.5017         estimate D2E/DX2                !
 ! D37   D(7,8,9,10)            14.5022         estimate D2E/DX2                !
 ! D38   D(7,8,9,11)          -168.2751         estimate D2E/DX2                !
 ! D39   D(8,9,10,6)           -23.3666         estimate D2E/DX2                !
 ! D40   D(11,9,10,6)          159.1072         estimate D2E/DX2                !
 ! D41   D(8,9,11,12)          -12.3682         estimate D2E/DX2                !
 ! D42   D(8,9,11,27)          167.8396         estimate D2E/DX2                !
 ! D43   D(10,9,11,12)         164.7377         estimate D2E/DX2                !
 ! D44   D(10,9,11,27)         -15.0544         estimate D2E/DX2                !
 ! D45   D(9,11,12,13)        -178.3003         estimate D2E/DX2                !
 ! D46   D(27,11,12,13)          1.4976         estimate D2E/DX2                !
 ! D47   D(9,11,27,23)         178.1562         estimate D2E/DX2                !
 ! D48   D(9,11,27,26)          -2.0819         estimate D2E/DX2                !
 ! D49   D(12,11,27,23)         -1.6356         estimate D2E/DX2                !
 ! D50   D(12,11,27,26)        178.1264         estimate D2E/DX2                !
 ! D51   D(11,12,13,14)         -0.6824         estimate D2E/DX2                !
 ! D52   D(11,12,13,34)        179.4934         estimate D2E/DX2                !
 ! D53   D(12,13,14,15)       -177.0933         estimate D2E/DX2                !
 ! D54   D(12,13,14,23)         -0.0192         estimate D2E/DX2                !
 ! D55   D(34,13,14,15)          2.7166         estimate D2E/DX2                !
 ! D56   D(34,13,14,23)        179.7907         estimate D2E/DX2                !
 ! D57   D(13,14,15,16)          9.4938         estimate D2E/DX2                !
 ! D58   D(13,14,15,22)       -172.9745         estimate D2E/DX2                !
 ! D59   D(23,14,15,16)       -167.3867         estimate D2E/DX2                !
 ! D60   D(23,14,15,22)         10.145          estimate D2E/DX2                !
 ! D61   D(13,14,23,24)       -179.6469         estimate D2E/DX2                !
 ! D62   D(13,14,23,27)         -0.1365         estimate D2E/DX2                !
 ! D63   D(15,14,23,24)         -2.4301         estimate D2E/DX2                !
 ! D64   D(15,14,23,27)        177.0803         estimate D2E/DX2                !
 ! D65   D(14,15,16,17)        175.9421         estimate D2E/DX2                !
 ! D66   D(22,15,16,17)         -2.0782         estimate D2E/DX2                !
 ! D67   D(14,15,22,18)       -175.6614         estimate D2E/DX2                !
 ! D68   D(14,15,22,21)          1.769          estimate D2E/DX2                !
 ! D69   D(16,15,22,18)          2.0553         estimate D2E/DX2                !
 ! D70   D(16,15,22,21)        179.4857         estimate D2E/DX2                !
 ! D71   D(15,16,17,18)          1.5484         estimate D2E/DX2                !
 ! D72   D(15,16,17,35)       -178.3696         estimate D2E/DX2                !
 ! D73   D(16,17,18,19)       -179.4981         estimate D2E/DX2                !
 ! D74   D(16,17,18,22)         -0.6425         estimate D2E/DX2                !
 ! D75   D(35,17,18,19)          0.4085         estimate D2E/DX2                !
 ! D76   D(35,17,18,22)        179.2642         estimate D2E/DX2                !
 ! D77   D(17,18,19,20)        179.7454         estimate D2E/DX2                !
 ! D78   D(17,18,19,36)          1.0642         estimate D2E/DX2                !
 ! D79   D(22,18,19,20)          0.8432         estimate D2E/DX2                !
 ! D80   D(22,18,19,36)       -177.838          estimate D2E/DX2                !
 ! D81   D(17,18,22,15)         -0.9552         estimate D2E/DX2                !
 ! D82   D(17,18,22,21)       -179.1547         estimate D2E/DX2                !
 ! D83   D(19,18,22,15)        178.2035         estimate D2E/DX2                !
 ! D84   D(19,18,22,21)          0.004          estimate D2E/DX2                !
 ! D85   D(18,19,20,21)         -1.3484         estimate D2E/DX2                !
 ! D86   D(18,19,20,37)       -178.0253         estimate D2E/DX2                !
 ! D87   D(36,19,20,21)        177.3132         estimate D2E/DX2                !
 ! D88   D(36,19,20,37)          0.6364         estimate D2E/DX2                !
 ! D89   D(19,20,21,22)          1.2664         estimate D2E/DX2                !
 ! D90   D(19,20,21,38)       -116.863          estimate D2E/DX2                !
 ! D91   D(19,20,21,39)        121.0528         estimate D2E/DX2                !
 ! D92   D(37,20,21,22)        178.145          estimate D2E/DX2                !
 ! D93   D(37,20,21,38)         60.0156         estimate D2E/DX2                !
 ! D94   D(37,20,21,39)        -62.0686         estimate D2E/DX2                !
 ! D95   D(20,21,22,15)       -178.2147         estimate D2E/DX2                !
 ! D96   D(20,21,22,18)         -0.7272         estimate D2E/DX2                !
 ! D97   D(38,21,22,15)        -64.8277         estimate D2E/DX2                !
 ! D98   D(38,21,22,18)        112.6598         estimate D2E/DX2                !
 ! D99   D(39,21,22,15)         62.5955         estimate D2E/DX2                !
 ! D100  D(39,21,22,18)       -119.917          estimate D2E/DX2                !
 ! D101  D(14,23,24,25)       -179.826          estimate D2E/DX2                !
 ! D102  D(27,23,24,25)          0.6238         estimate D2E/DX2                !
 ! D103  D(14,23,27,11)          0.9607         estimate D2E/DX2                !
 ! D104  D(14,23,27,26)       -178.8399         estimate D2E/DX2                !
 ! D105  D(24,23,27,11)       -179.4514         estimate D2E/DX2                !
 ! D106  D(24,23,27,26)          0.7481         estimate D2E/DX2                !
 ! D107  D(23,24,25,26)         -1.464          estimate D2E/DX2                !
 ! D108  D(24,25,26,27)          1.8854         estimate D2E/DX2                !
 ! D109  D(25,26,27,11)        178.4726         estimate D2E/DX2                !
 ! D110  D(25,26,27,23)         -1.7514         estimate D2E/DX2                !
 --------------------------------------------------------------------------------
 Trust Radius=3.00D-01 FncErr=1.00D-07 GrdErr=1.00D-06
 Number of steps in this run=    234 maximum allowed number of steps=    234.
 GradGradGradGradGradGradGradGradGradGradGradGradGradGradGradGradGradGrad

                          Input orientation:                          
 ---------------------------------------------------------------------
 Center     Atomic      Atomic             Coordinates (Angstroms)
 Number     Number       Type             X           Y           Z
 ---------------------------------------------------------------------
      1          6           0        0.155850    1.148570   -0.086900
      2          6           0        1.317320    0.219760   -0.176720
      3          6           0        0.880080   -1.048780   -0.222680
      4          6           0       -0.560140   -1.078290   -0.121010
      5          6           0       -0.979140    0.152380    0.121430
      6          6           0       -2.066090    0.359760    1.000280
      7          6           0       -2.659890   -0.400800    1.987290
      8          7           0       -3.186440    0.339290    3.037210
      9          6           0       -3.059790    1.621100    2.747860
     10         16           0       -2.690430    1.913290    1.099260
     11          6           0       -3.246190    2.757980    3.618420
     12          7           0       -3.839250    2.570270    4.830910
     13          6           0       -4.055970    3.632810    5.652070
     14          6           0       -3.719570    4.971170    5.407970
     15          6           0       -3.915050    6.064900    6.336160
     16         16           0       -4.383890    5.720780    7.972030
     17          6           0       -4.298080    7.363510    8.443350
     18          6           0       -3.959150    8.130260    7.375170
     19          6           0       -3.732590    9.507160    7.142090
     20          6           0       -3.408450    9.702730    5.847030
     21          6           0       -3.365470    8.388070    5.097580
     22          6           0       -3.750850    7.421190    6.178020
     23          6           0       -3.089110    5.182550    4.159250
     24          7           0       -2.644770    6.335400    3.640230
     25         16           0       -1.993990    6.080650    2.170250
     26          7           0       -2.203540    4.466320    2.121640
     27          6           0       -2.833680    4.063830    3.245490
     28          1           0        0.026060    1.751470   -0.993450
     29          1           0        0.275770    1.821900    0.769700
     30          1           0        2.340730    0.546760   -0.075020
     31          1           0        1.488870   -1.930190   -0.122210
     32          1           0       -1.129060   -1.984060    0.074290
     33          1           0       -2.596780   -1.475940    2.092330
     34          1           0       -4.543950    3.337450    6.581220
     35          1           0       -4.500720    7.639490    9.464000
     36          1           0       -3.790490   10.271140    7.897570
     37          1           0       -3.151320   10.637150    5.374420
     38          1           0       -2.332750    8.258060    4.759900
     39          1           0       -4.070490    8.379490    4.258520
 ---------------------------------------------------------------------
                    Distance matrix (angstroms):
                    1          2          3          4          5
     1  C    0.000000
     2  C    1.489889   0.000000
     3  C    2.317605   1.342567   0.000000
     4  C    2.339383   2.283176   1.444106   0.000000
     5  C    1.524467   2.316714   2.240066   1.322455   0.000000
     6  C    2.596382   3.585023   3.487052   2.364987   1.413097
     7  C    3.825076   4.570146   4.223178   3.051700   2.571451
     8  N    4.646063   5.534211   5.393534   4.345266   3.661814
     9  C    4.312713   5.447570   5.610253   4.665337   3.658467
    10  S    3.176961   4.534118   4.823891   3.869980   2.643004
    11  C    5.281427   6.455329   6.802321   5.992927   4.915039
    12  N    6.493605   7.562504   7.804381   6.970370   6.017111
    13  C    7.539672   8.631104   8.988580   8.230659   7.222759
    14  C    7.734646   8.895781   9.439322   8.783370   7.660170
    15  C    9.055287  10.196125  10.798893  10.196844   9.066440
    16  S   10.317979  11.365172  11.861264  11.240361  10.209374
    17  C   11.455485  12.524835  13.140778  12.593032  11.500874
    18  C   11.016338  12.142825  12.860803  12.350845  11.186768
    19  C   11.715131  12.857775  13.672762  13.223797  12.015950
    20  C   11.004063  12.187911  13.070112  12.647560  11.397071
    21  C    9.575431  10.792036  11.635463  11.167611   9.913790
    22  C    9.687997  10.859542  11.582524  11.049867   9.859019
    23  C    6.695711   7.927581   8.589834   7.994650   6.786647
    24  N    6.974108   8.226075   9.048357   8.570613   7.306573
    25  S    5.834548   7.129030   8.050787   7.652204   6.353894
    26  N    4.631613   5.975967   6.739501   6.202656   4.910201
    27  C    5.342364   6.612049   7.208259   6.553145   5.338400
    28  H    1.096434   2.163455   3.027348   3.018663   2.193279
    29  H    1.096138   2.132461   3.096904   3.146937   2.186859
    30  H    2.266278   1.079185   2.168190   3.325350   3.348980
    31  H    3.355138   2.157472   1.075920   2.219049   3.238446
    32  H    3.389741   3.302212   2.235975   1.087305   2.142212
    33  H    4.383385   4.831580   4.198844   3.033958   3.025332
    34  H    8.446487   9.473343   9.744340   8.960435   8.036257
    35  H   12.451320  13.485009  14.080867  13.542536  12.479662
    36  H   12.749378  13.867737  14.693307  14.266827  13.067568
    37  H   11.436631  12.621645  13.569844  13.197178  11.926553
    38  H    8.957089  10.114717  11.034747  10.683298   9.436616
    39  H    9.435615  10.736901  11.553423  10.997838   9.713768
                    6          7          8          9         10
     6  C    0.000000
     7  C    1.380304   0.000000
     8  N    2.324798   1.388280   0.000000
     9  C    2.373279   2.196922   1.320152   0.000000
    10  S    1.677216   2.478819   2.545418   1.714551   0.000000
    11  C    3.741491   3.603085   2.488260   1.443993   2.714505
    12  N    4.764890   4.278355   2.936119   2.418177   3.959371
    13  C    6.025913   5.625803   4.294281   3.670666   5.054654
    14  C    6.589904   6.456163   5.230587   4.328333   5.382819
    15  C    8.027384   7.892615   6.648049   5.775355   6.794165
    16  S    9.094945   8.732871   7.399106   6.771453   8.037397
    17  C   10.461051  10.229804   8.933183   8.182129   9.285747
    18  C   10.227589  10.173314   8.950653   8.036791   8.924540
    19  C   11.143338  11.220086  10.059730   9.052727   9.760571
    20  C   10.610561  10.841552   9.778465   8.662515   9.150533
    21  C    9.106592   9.349651   8.310237   7.169833   7.639700
    22  C    8.916905   8.940690   7.767661   6.773818   7.566720
    23  C    5.855336   6.006283   4.972486   3.831032   4.495614
    24  N    6.558390   6.936053   6.050651   4.815931   5.100360
    25  S    5.839744   6.518136   5.927628   4.621380   4.358777
    26  N    4.259129   4.890313   4.340131   3.036543   2.792899
    27  C    4.398897   4.641788   3.747001   2.503136   3.041652
    28  H    3.207633   4.553175   5.344215   4.851481   3.432920
    29  H    2.770438   3.878275   4.396207   3.883220   2.985851
    30  H    4.539967   5.491557   6.346545   6.187768   5.344054
    31  H    4.375111   4.899105   6.082023   6.445097   5.807829
    32  H    2.688675   2.917143   4.290648   4.885987   4.321779
    33  H    2.200909   1.082101   2.129685   3.199337   3.532965
    34  H    6.793623   6.215174   4.836507   4.454575   5.959501
    35  H   11.426130  11.132660   9.814473   9.132570  10.297349
    36  H   12.197607  12.251529  11.073826  10.093395  10.829626
    37  H   11.222102  11.556405  10.559816   9.391291   9.726004
    38  H    8.751514   9.097815   8.148826   6.973244   7.333780
    39  H    8.885371   9.178332   8.180340   6.998532   7.327840
                   11         12         13         14         15
    11  C    0.000000
    12  N    1.362750   0.000000
    13  C    2.357287   1.360244   0.000000
    14  C    2.885271   2.472174   1.401413   0.000000
    15  C    4.332344   3.805780   2.530395   1.447755   0.000000
    16  S    5.387621   4.482073   3.138370   2.752751   1.736174
    17  C    6.752579   6.019584   4.665617   3.907876   2.504666
    18  C    6.594155   6.115646   4.817209   3.729226   2.312401
    19  C    7.629172   7.312549   6.068997   4.856186   3.540052
    20  C    7.295381   7.217345   6.107473   4.762061   3.705361
    21  C    5.822375   5.843148   4.837018   3.449193   2.689468
    22  C    5.343385   5.035270   3.836867   2.568376   1.375315
    23  C    2.489118   2.799615   2.359030   1.414731   2.489911
    24  N    3.627687   4.125616   3.652804   2.478149   2.992461
    25  S    3.834754   4.775653   4.729350   3.832937   4.587540
    26  N    2.499179   3.689268   4.073103   3.654201   4.821504
    27  C    1.419326   2.399052   2.733386   2.506868   3.837432
    28  H    5.743695   7.038055   8.022802   8.085443   9.373431
    29  H    4.625544   5.829826   6.773544   6.884344   8.157910
    30  H    7.052990   8.145851   9.123653   9.293321  10.520831
    31  H    7.641469   8.554321   9.748565  10.263504  11.611820
    32  H    6.287292   7.121270   8.439648   9.139700  10.571590
    33  H    4.547171   5.041366   6.395335   7.336167   8.752839
    34  H    3.286054   2.036849   1.090267   2.173743   2.809725
    35  H    7.718406   6.899279   5.548162   4.917470   3.550454
    36  H    8.663427   8.289160   7.012858   5.856007   4.488426
    37  H    8.073033   8.114383   7.067974   5.694503   4.734311
    38  H    5.691066   5.884347   5.015814   3.625867   3.130211
    39  H    5.717567   5.841929   4.947036   3.614004   3.114173
                   16         17         18         19         20
    16  S    0.000000
    17  C    1.711160   0.000000
    18  C    2.518380   1.357861   0.000000
    19  C    3.930606   2.570660   1.414747   0.000000
    20  C    4.617687   3.606143   2.260784   1.349257   0.000000
    21  C    4.051429   3.621279   2.367771   2.359483   1.513887
    22  C    2.551589   2.331203   1.406889   2.298050   2.330712
    23  C    4.062442   4.956986   4.448382   5.292793   4.835556
    24  N    4.708162   5.182703   4.347286   4.848344   4.097815
    25  S    6.285044   6.804876   5.929076   6.283541   5.351530
    26  N    6.368254   7.262563   6.641250   7.276880   6.538374
    27  C    5.242978   6.328515   5.903964   6.754359   6.236631
    28  H   10.750949  11.800270  11.251874  11.851801  11.036782
    29  H    9.422699  10.512585  10.067879  10.758138  10.072747
    30  H   11.693845  12.771237  12.357317  13.010022  12.327025
    31  H   12.591401  13.900736  13.678607  14.520560  13.962106
    32  H   11.503598  12.940669  12.791080  13.739734  13.232581
    33  H    9.463478  11.016613  11.047331  12.141607  11.820289
    34  H    2.764097   4.442650   4.893197   6.248056   6.507318
    35  H    2.433325   1.076547   2.212999   3.077252   4.304937
    36  H    4.589493   3.001639   2.210139   1.075996   2.161888
    37  H    5.695393   4.631426   3.307580   2.177018   1.078247
    38  H    4.578509   4.269724   3.082393   3.032265   2.103819
    39  H    4.577894   4.312402   3.128581   3.114609   2.170858
                   21         22         23         24         25
    21  C    0.000000
    22  C    1.500242   0.000000
    23  C    3.351447   3.086234   0.000000
    24  N    2.618536   2.973673   1.340106   0.000000
    25  S    3.971701   4.576661   2.441719   1.627653   0.000000
    26  N    5.058302   5.251632   2.334325   2.448318   1.628599
    27  C    4.734141   4.551132   1.466880   2.313339   2.434909
    28  H    9.625361   9.891449   6.930145   7.043915   5.729869
    29  H    8.666243   8.764453   5.839986   6.094356   5.024968
    30  H   10.991026  11.111510   8.300768   8.495095   7.379361
    31  H   12.541025  12.433659   9.480500   9.978122   9.031016
    32  H   11.739508  11.514688   8.478738   9.177512   8.377392
    33  H   10.340266   9.858177   6.989280   7.963374   7.580995
    34  H    5.394327   4.179535   3.374447   4.609123   5.786545
    35  H    4.573269   3.377518   6.014114   6.249920   7.868448
    36  H    3.400961   3.328759   6.353009   5.909963   7.320506
    37  H    2.276151   3.368621   5.588664   4.665733   5.689272
    38  H    1.094276   2.173114   3.223604   2.246695   3.400318
    39  H    1.095969   2.169099   3.345652   2.567735   3.735959
                   26         27         28         29         30
    26  N    0.000000
    27  C    1.349857   0.000000
    28  H    4.695244   5.611928   0.000000
    29  H    3.868808   4.563383   1.782137   0.000000
    30  H    6.390513   7.083085   2.766322   2.569746   0.000000
    31  H    7.719073   8.121214   4.056290   4.042931   2.619766
    32  H    6.852266   7.038410   4.053215   4.116124   4.297300
    33  H    5.955330   5.663475   5.178562   4.569096   5.759143
    34  H    5.161368   3.818343   8.987544   7.700673   9.974583
    35  H    8.322037   7.364390  12.826487  11.500003  13.715143
    36  H    8.341206   7.815883  12.891899  11.778398  13.989911
    37  H    7.039745   6.916775  11.384236  10.519364  12.715148
    38  H    4.621082   4.487308   9.000041   8.009384  10.231423
    39  H    4.833700   4.602266   9.396572   8.606034  11.010675
                   31         32         33         34         35
    31  H    0.000000
    32  H    2.625847   0.000000
    33  H    4.669375   2.546541   0.000000
    34  H   10.444086   9.073041   6.863696   0.000000
    35  H   14.810449  13.861726  11.876766   5.178787   0.000000
    36  H   15.526138  14.780962  13.157494   7.097643   3.143837
    37  H   14.480412  13.837480  12.562109   7.528705   5.247048
    38  H   11.926450  11.327172  10.096356   5.693770   5.216443
    39  H   12.505470  11.556944  10.197730   5.571469   5.275388
                   36         37         38         39
    36  H    0.000000
    37  H    2.628457   0.000000
    38  H    4.002808   2.589935   0.000000
    39  H    4.110891   2.680883   1.812696   0.000000
 Stoichiometry    C20H12N4S3
 Framework group  C1[X(C20H12N4S3)]
 Deg. of freedom   111
 Full point group                 C1      NOp   1
 Largest Abelian subgroup         C1      NOp   1
 Largest concise Abelian subgroup C1      NOp   1
                         Standard orientation:                         
 ---------------------------------------------------------------------
 Center     Atomic      Atomic             Coordinates (Angstroms)
 Number     Number       Type             X           Y           Z
 ---------------------------------------------------------------------
      1          6           0        5.208114    1.520335    0.709138
      2          6           0        6.284835    1.461139    1.737212
      3          6           0        7.111170    0.437575    1.468940
      4          6           0        6.645252   -0.281052    0.306212
      5          6           0        5.473037    0.221394   -0.043567
      6          6           0        4.459832   -0.638485   -0.524056
      7          6           0        4.232907   -1.997064   -0.434574
      8          7           0        2.890431   -2.349414   -0.404095
      9          6           0        2.169165   -1.257076   -0.575488
     10         16           0        3.079398    0.075458   -1.154723
     11          6           0        0.747476   -1.084902   -0.390368
     12          7           0       -0.036661   -2.189132   -0.239066
     13          6           0       -1.382561   -2.051505   -0.098088
     14          6           0       -2.111125   -0.854606   -0.073894
     15          6           0       -3.539434   -0.749557    0.137984
     16         16           0       -4.433230   -2.153784    0.631517
     17          6           0       -5.898532   -1.284010    0.787882
     18          6           0       -5.701359    0.013532    0.439605
     19          6           0       -6.497276    1.181247    0.372785
     20          6           0       -5.747396    2.220161   -0.050100
     21          6           0       -4.312647    1.792951   -0.275578
     22          6           0       -4.384817    0.332425    0.059655
     23          6           0       -1.310951    0.303546   -0.214854
     24          7           0       -1.702874    1.585022   -0.224798
     25         16           0       -0.419863    2.567753   -0.418130
     26          7           0        0.727979    1.413208   -0.460796
     27          6           0        0.144425    0.199707   -0.365965
     28          1           0        5.287253    2.404090    0.065026
     29          1           0        4.224149    1.523539    1.192170
     30          1           0        6.285196    2.075977    2.624125
     31          1           0        7.873064    0.053135    2.124171
     32          1           0        7.019122   -1.260177    0.016787
     33          1           0        4.972575   -2.757062   -0.219549
     34          1           0       -1.882617   -3.014882    0.004527
     35          1           0       -6.788260   -1.788885    1.123202
     36          1           0       -7.537705    1.226384    0.643412
     37          1           0       -6.063491    3.243740   -0.172526
     38          1           0       -3.705100    2.362164    0.434580
     39          1           0       -3.997894    1.968839   -1.310538
 ---------------------------------------------------------------------
 Rotational constants (GHZ):      0.4400426      0.0732014      0.0656937
 Standard basis: 6-31++G(d,p) (6D, 7F)
 There are   597 symmetry adapted basis functions of A   symmetry.
 Integral buffers will be    131072 words long.
 Raffenetti 2 integral format.
 Two-electron integral symmetry is turned on.
   597 basis functions,  1032 primitive gaussians,   597 cartesian basis functions
   104 alpha electrons      104 beta electrons
       nuclear repulsion energy      2686.4354055289 Hartrees.
 NAtoms=   39 NActive=   39 NUniq=   39 SFac= 1.00D+00 NAtFMM=   60 NAOKFM=F Big=F
 One-electron integrals computed using PRISM.
 NBasis=   597 RedAO= T  NBF=   597
 NBsUse=   591 1.00D-06 NBFU=   591
 Harris functional with IExCor=  402 diagonalized for initial guess.
 ExpMin= 3.60D-02 ExpMax= 2.19D+04 ExpMxC= 3.30D+03 IAcc=3 IRadAn=         5 AccDes= 0.00D+00
 HarFok:  IExCor=  402 AccDes= 0.00D+00 IRadAn=         5 IDoV= 1
 ScaDFX=  1.000000  1.000000  1.000000  1.000000
 FoFCou: FMM=F IPFlag=           0 FMFlag=      100000 FMFlg1=           0
         NFxFlg=           0 DoJE=T BraDBF=F KetDBF=T FulRan=T
         Omega=  0.000000  0.000000  1.000000  0.000000  0.000000 ICntrl=     500 IOpCl=  0
         NMat0=    1 NMatS0=    1 NMatT0=    0 NMatD0=    1 NMtDS0=    0 NMtDT0=    0
         I1Cent=           4 NGrid=           0.
 Petite list used in FoFCou.
 Initial guess orbital symmetries:
       Occupied  (A) (A) (A) (A) (A) (A) (A) (A) (A) (A) (A) (A)
                 (A) (A) (A) (A) (A) (A) (A) (A) (A) (A) (A) (A)
                 (A) (A) (A) (A) (A) (A) (A) (A) (A) (A) (A) (A)
                 (A) (A) (A) (A) (A) (A) (A) (A) (A) (A) (A) (A)
                 (A) (A) (A) (A) (A) (A) (A) (A) (A) (A) (A) (A)
                 (A) (A) (A) (A) (A) (A) (A) (A) (A) (A) (A) (A)
                 (A) (A) (A) (A) (A) (A) (A) (A) (A) (A) (A) (A)
                 (A) (A) (A) (A) (A) (A) (A) (A) (A) (A) (A) (A)
                 (A) (A) (A) (A) (A) (A) (A) (A)
       Virtual   (A) (A) (A) (A) (A) (A) (A) (A) (A) (A) (A) (A)
                 (A) (A) (A) (A) (A) (A) (A) (A) (A) (A) (A) (A)
                 (A) (A) (A) (A) (A) (A) (A) (A) (A) (A) (A) (A)
                 (A) (A) (A) (A) (A) (A) (A) (A) (A) (A) (A) (A)
                 (A) (A) (A) (A) (A) (A) (A) (A) (A) (A) (A) (A)
                 (A) (A) (A) (A) (A) (A) (A) (A) (A) (A) (A) (A)
                 (A) (A) (A) (A) (A) (A) (A) (A) (A) (A) (A) (A)
                 (A) (A) (A) (A) (A) (A) (A) (A) (A) (A) (A) (A)
                 (A) (A) (A) (A) (A) (A) (A) (A) (A) (A) (A) (A)
                 (A) (A) (A) (A) (A) (A) (A) (A) (A) (A) (A) (A)
                 (A) (A) (A) (A) (A) (A) (A) (A) (A) (A) (A) (A)
                 (A) (A) (A) (A) (A) (A) (A) (A) (A) (A) (A) (A)
                 (A) (A) (A) (A) (A) (A) (A) (A) (A) (A) (A) (A)
                 (A) (A) (A) (A) (A) (A) (A) (A) (A) (A) (A) (A)
                 (A) (A) (A) (A) (A) (A) (A) (A) (A) (A) (A) (A)
                 (A) (A) (A) (A) (A) (A) (A) (A) (A) (A) (A) (A)
                 (A) (A) (A) (A) (A) (A) (A) (A) (A) (A) (A) (A)
                 (A) (A) (A) (A) (A) (A) (A) (A) (A) (A) (A) (A)
                 (A) (A) (A) (A) (A) (A) (A) (A) (A) (A) (A) (A)
                 (A) (A) (A) (A) (A) (A) (A) (A) (A) (A) (A) (A)
                 (A) (A) (A) (A) (A) (A) (A) (A) (A) (A) (A) (A)
                 (A) (A) (A) (A) (A) (A) (A) (A) (A) (A) (A) (A)
                 (A) (A) (A) (A) (A) (A) (A) (A) (A) (A) (A) (A)
                 (A) (A) (A) (A) (A) (A) (A) (A) (A) (A) (A) (A)
                 (A) (A) (A) (A) (A) (A) (A) (A) (A) (A) (A) (A)
                 (A) (A) (A) (A) (A) (A) (A) (A) (A) (A) (A) (A)
                 (A) (A) (A) (A) (A) (A) (A) (A) (A) (A) (A) (A)
                 (A) (A) (A) (A) (A) (A) (A) (A) (A) (A) (A) (A)
                 (A) (A) (A) (A) (A) (A) (A) (A) (A) (A) (A) (A)
                 (A) (A) (A) (A) (A) (A) (A) (A) (A) (A) (A) (A)
                 (A) (A) (A) (A) (A) (A) (A) (A) (A) (A) (A) (A)
                 (A) (A) (A) (A) (A) (A) (A) (A) (A) (A) (A) (A)
                 (A) (A) (A) (A) (A) (A) (A) (A) (A) (A) (A) (A)
                 (A) (A) (A) (A) (A) (A) (A) (A) (A) (A) (A) (A)
                 (A) (A) (A) (A) (A) (A) (A) (A) (A) (A) (A) (A)
                 (A) (A) (A) (A) (A) (A) (A) (A) (A) (A) (A) (A)
                 (A) (A) (A) (A) (A) (A) (A) (A) (A) (A) (A) (A)
                 (A) (A) (A) (A) (A) (A) (A) (A) (A) (A) (A) (A)
                 (A) (A) (A) (A) (A) (A) (A) (A) (A) (A) (A) (A)
                 (A) (A) (A) (A) (A) (A) (A) (A) (A) (A) (A) (A)
                 (A) (A) (A) (A) (A) (A) (A)
 The electronic state of the initial guess is 1-A.
 Requested convergence on RMS density matrix=1.00D-08 within 128 cycles.
 Requested convergence on MAX density matrix=1.00D-06.
 Requested convergence on             energy=1.00D-06.
 No special actions if energy rises.
 EnCoef did     3 forward-backward iterations
 EnCoef did     2 forward-backward iterations
 Restarting incremental Fock formation.
 SCF Done:  E(RB3LYP) =  -2182.81194534     A.U. after   25 cycles
             Convg  =    0.3664D-08             -V/T =  2.0057

 **********************************************************************

            Population analysis using the SCF density.

 **********************************************************************

 Orbital symmetries:
       Occupied  (A) (A) (A) (A) (A) (A) (A) (A) (A) (A) (A) (A)
                 (A) (A) (A) (A) (A) (A) (A) (A) (A) (A) (A) (A)
                 (A) (A) (A) (A) (A) (A) (A) (A) (A) (A) (A) (A)
                 (A) (A) (A) (A) (A) (A) (A) (A) (A) (A) (A) (A)
                 (A) (A) (A) (A) (A) (A) (A) (A) (A) (A) (A) (A)
                 (A) (A) (A) (A) (A) (A) (A) (A) (A) (A) (A) (A)
                 (A) (A) (A) (A) (A) (A) (A) (A) (A) (A) (A) (A)
                 (A) (A) (A) (A) (A) (A) (A) (A) (A) (A) (A) (A)
                 (A) (A) (A) (A) (A) (A) (A) (A)
       Virtual   (A) (A) (A) (A) (A) (A) (A) (A) (A) (A) (A) (A)
                 (A) (A) (A) (A) (A) (A) (A) (A) (A) (A) (A) (A)
                 (A) (A) (A) (A) (A) (A) (A) (A) (A) (A) (A) (A)
                 (A) (A) (A) (A) (A) (A) (A) (A) (A) (A) (A) (A)
                 (A) (A) (A) (A) (A) (A) (A) (A) (A) (A) (A) (A)
                 (A) (A) (A) (A) (A) (A) (A) (A) (A) (A) (A) (A)
                 (A) (A) (A) (A) (A) (A) (A) (A) (A) (A) (A) (A)
                 (A) (A) (A) (A) (A) (A) (A) (A) (A) (A) (A) (A)
                 (A) (A) (A) (A) (A) (A) (A) (A) (A) (A) (A) (A)
                 (A) (A) (A) (A) (A) (A) (A) (A) (A) (A) (A) (A)
                 (A) (A) (A) (A) (A) (A) (A) (A) (A) (A) (A) (A)
                 (A) (A) (A) (A) (A) (A) (A) (A) (A) (A) (A) (A)
                 (A) (A) (A) (A) (A) (A) (A) (A) (A) (A) (A) (A)
                 (A) (A) (A) (A) (A) (A) (A) (A) (A) (A) (A) (A)
                 (A) (A) (A) (A) (A) (A) (A) (A) (A) (A) (A) (A)
                 (A) (A) (A) (A) (A) (A) (A) (A) (A) (A) (A) (A)
                 (A) (A) (A) (A) (A) (A) (A) (A) (A) (A) (A) (A)
                 (A) (A) (A) (A) (A) (A) (A) (A) (A) (A) (A) (A)
                 (A) (A) (A) (A) (A) (A) (A) (A) (A) (A) (A) (A)
                 (A) (A) (A) (A) (A) (A) (A) (A) (A) (A) (A) (A)
                 (A) (A) (A) (A) (A) (A) (A) (A) (A) (A) (A) (A)
                 (A) (A) (A) (A) (A) (A) (A) (A) (A) (A) (A) (A)
                 (A) (A) (A) (A) (A) (A) (A) (A) (A) (A) (A) (A)
                 (A) (A) (A) (A) (A) (A) (A) (A) (A) (A) (A) (A)
                 (A) (A) (A) (A) (A) (A) (A) (A) (A) (A) (A) (A)
                 (A) (A) (A) (A) (A) (A) (A) (A) (A) (A) (A) (A)
                 (A) (A) (A) (A) (A) (A) (A) (A) (A) (A) (A) (A)
                 (A) (A) (A) (A) (A) (A) (A) (A) (A) (A) (A) (A)
                 (A) (A) (A) (A) (A) (A) (A) (A) (A) (A) (A) (A)
                 (A) (A) (A) (A) (A) (A) (A) (A) (A) (A) (A) (A)
                 (A) (A) (A) (A) (A) (A) (A) (A) (A) (A) (A) (A)
                 (A) (A) (A) (A) (A) (A) (A) (A) (A) (A) (A) (A)
                 (A) (A) (A) (A) (A) (A) (A) (A) (A) (A) (A) (A)
                 (A) (A) (A) (A) (A) (A) (A) (A) (A) (A) (A) (A)
                 (A) (A) (A) (A) (A) (A) (A) (A) (A) (A) (A) (A)
                 (A) (A) (A) (A) (A) (A) (A) (A) (A) (A) (A) (A)
                 (A) (A) (A) (A) (A) (A) (A) (A) (A) (A) (A) (A)
                 (A) (A) (A) (A) (A) (A) (A) (A) (A) (A) (A) (A)
                 (A) (A) (A) (A) (A) (A) (A) (A) (A) (A) (A) (A)
                 (A) (A) (A) (A) (A) (A) (A) (A) (A) (A) (A) (A)
                 (A) (A) (A) (A) (A) (A) (A)
 The electronic state is 1-A.
 Alpha  occ. eigenvalues --  -89.00050 -88.91840 -88.91001 -14.38871 -14.38187
 Alpha  occ. eigenvalues --  -14.35414 -14.34546 -10.26557 -10.26454 -10.25959
 Alpha  occ. eigenvalues --  -10.25349 -10.24159 -10.23617 -10.23577 -10.22846
 Alpha  occ. eigenvalues --  -10.22772 -10.22138 -10.21079 -10.21041 -10.20456
 Alpha  occ. eigenvalues --  -10.20226 -10.20070 -10.20028 -10.19803 -10.19726
 Alpha  occ. eigenvalues --  -10.19683 -10.19399  -8.05299  -7.97843  -7.97249
 Alpha  occ. eigenvalues --   -6.01870  -6.01271  -6.01071  -5.94275  -5.93874
 Alpha  occ. eigenvalues --   -5.93629  -5.93550  -5.93280  -5.92945  -1.04021
 Alpha  occ. eigenvalues --   -0.97767  -0.94783  -0.91892  -0.90538  -0.89361
 Alpha  occ. eigenvalues --   -0.84809  -0.82621  -0.81917  -0.80594  -0.76883
 Alpha  occ. eigenvalues --   -0.74826  -0.72940  -0.72028  -0.71714  -0.69290
 Alpha  occ. eigenvalues --   -0.67698  -0.64939  -0.63308  -0.61117  -0.59225
 Alpha  occ. eigenvalues --   -0.58094  -0.56260  -0.55236  -0.54929  -0.53925
 Alpha  occ. eigenvalues --   -0.53334  -0.52292  -0.51541  -0.50745  -0.47733
 Alpha  occ. eigenvalues --   -0.47326  -0.46533  -0.45570  -0.44954  -0.43971
 Alpha  occ. eigenvalues --   -0.43118  -0.42349  -0.42277  -0.41309  -0.40912
 Alpha  occ. eigenvalues --   -0.40352  -0.39832  -0.39754  -0.39182  -0.38320
 Alpha  occ. eigenvalues --   -0.38191  -0.37650  -0.37368  -0.36805  -0.35379
 Alpha  occ. eigenvalues --   -0.34281  -0.33299  -0.32606  -0.31127  -0.30470
 Alpha  occ. eigenvalues --   -0.29778  -0.29390  -0.28180  -0.27466  -0.26960
 Alpha  occ. eigenvalues --   -0.25712  -0.23937  -0.22096  -0.19754
 Alpha virt. eigenvalues --   -0.12101  -0.07528  -0.04877  -0.03680  -0.02694
 Alpha virt. eigenvalues --   -0.01785  -0.01371  -0.01052  -0.00620  -0.00169
 Alpha virt. eigenvalues --    0.00097   0.00742   0.00891   0.01097   0.01659
 Alpha virt. eigenvalues --    0.02028   0.02122   0.02499   0.02842   0.03201
 Alpha virt. eigenvalues --    0.03594   0.03892   0.04047   0.04431   0.04943
 Alpha virt. eigenvalues --    0.05056   0.05433   0.05608   0.05994   0.06106
 Alpha virt. eigenvalues --    0.06341   0.06853   0.07744   0.07832   0.08108
 Alpha virt. eigenvalues --    0.08245   0.09055   0.09195   0.09516   0.09776
 Alpha virt. eigenvalues --    0.09969   0.10462   0.10498   0.10827   0.11002
 Alpha virt. eigenvalues --    0.11165   0.11581   0.11749   0.11946   0.12149
 Alpha virt. eigenvalues --    0.12351   0.12438   0.12579   0.12660   0.12872
 Alpha virt. eigenvalues --    0.13291   0.13391   0.13532   0.13789   0.14133
 Alpha virt. eigenvalues --    0.14194   0.14440   0.14471   0.14904   0.14965
 Alpha virt. eigenvalues --    0.15297   0.15406   0.15458   0.15767   0.16066
 Alpha virt. eigenvalues --    0.16162   0.16492   0.16764   0.17177   0.17516
 Alpha virt. eigenvalues --    0.17640   0.18150   0.18411   0.18558   0.18984
 Alpha virt. eigenvalues --    0.19018   0.19307   0.19592   0.19802   0.19952
 Alpha virt. eigenvalues --    0.20146   0.20675   0.21079   0.21198   0.21298
 Alpha virt. eigenvalues --    0.21472   0.21885   0.22268   0.22399   0.22746
 Alpha virt. eigenvalues --    0.22916   0.23396   0.23586   0.23785   0.24139
 Alpha virt. eigenvalues --    0.24361   0.24586   0.24901   0.25117   0.25205
 Alpha virt. eigenvalues --    0.25609   0.26132   0.26261   0.26640   0.26850
 Alpha virt. eigenvalues --    0.27068   0.27260   0.27672   0.27975   0.28137
 Alpha virt. eigenvalues --    0.28389   0.28738   0.28946   0.29137   0.29402
 Alpha virt. eigenvalues --    0.29673   0.29996   0.30496   0.30718   0.31083
 Alpha virt. eigenvalues --    0.31293   0.31666   0.31990   0.32097   0.32715
 Alpha virt. eigenvalues --    0.32871   0.33011   0.33231   0.33581   0.34002
 Alpha virt. eigenvalues --    0.34189   0.34456   0.34962   0.35125   0.35609
 Alpha virt. eigenvalues --    0.35862   0.36199   0.36402   0.37173   0.37422
 Alpha virt. eigenvalues --    0.37610   0.37839   0.38771   0.39153   0.39609
 Alpha virt. eigenvalues --    0.40231   0.40267   0.41009   0.41564   0.41901
 Alpha virt. eigenvalues --    0.42489   0.43725   0.44631   0.45090   0.46327
 Alpha virt. eigenvalues --    0.47253   0.48119   0.49441   0.50087   0.51309
 Alpha virt. eigenvalues --    0.52057   0.52379   0.52649   0.52876   0.54377
 Alpha virt. eigenvalues --    0.56136   0.57496   0.59204   0.60503   0.60887
 Alpha virt. eigenvalues --    0.61054   0.63197   0.63888   0.64040   0.65330
 Alpha virt. eigenvalues --    0.66134   0.66718   0.67569   0.68181   0.68323
 Alpha virt. eigenvalues --    0.68580   0.68964   0.69476   0.70300   0.70899
 Alpha virt. eigenvalues --    0.71425   0.71523   0.72056   0.72382   0.72753
 Alpha virt. eigenvalues --    0.73150   0.73978   0.74424   0.74828   0.75803
 Alpha virt. eigenvalues --    0.75858   0.76482   0.76606   0.77129   0.77271
 Alpha virt. eigenvalues --    0.77795   0.77992   0.79236   0.79498   0.79726
 Alpha virt. eigenvalues --    0.80879   0.81016   0.81430   0.82001   0.82899
 Alpha virt. eigenvalues --    0.83196   0.83599   0.84948   0.85316   0.86247
 Alpha virt. eigenvalues --    0.87477   0.87953   0.88337   0.89531   0.90198
 Alpha virt. eigenvalues --    0.90668   0.91826   0.94075   0.94328   0.94578
 Alpha virt. eigenvalues --    0.94686   0.95105   0.95466   0.96214   0.96558
 Alpha virt. eigenvalues --    0.96924   0.97828   0.98572   0.99944   1.00413
 Alpha virt. eigenvalues --    1.00668   1.00996   1.01360   1.02257   1.02744
 Alpha virt. eigenvalues --    1.03912   1.04675   1.05712   1.06715   1.07305
 Alpha virt. eigenvalues --    1.08219   1.08284   1.09176   1.09597   1.09970
 Alpha virt. eigenvalues --    1.10528   1.11537   1.12029   1.12576   1.12995
 Alpha virt. eigenvalues --    1.14359   1.14575   1.15194   1.15443   1.16044
 Alpha virt. eigenvalues --    1.16417   1.17255   1.18194   1.18529   1.19495
 Alpha virt. eigenvalues --    1.20420   1.21154   1.22071   1.22338   1.23030
 Alpha virt. eigenvalues --    1.23523   1.23844   1.24895   1.25832   1.26712
 Alpha virt. eigenvalues --    1.27312   1.27878   1.28466   1.28731   1.30738
 Alpha virt. eigenvalues --    1.31099   1.31400   1.32501   1.32642   1.33436
 Alpha virt. eigenvalues --    1.34484   1.35379   1.35531   1.36195   1.37630
 Alpha virt. eigenvalues --    1.38547   1.39381   1.39980   1.41988   1.42692
 Alpha virt. eigenvalues --    1.44126   1.45263   1.45757   1.46785   1.49089
 Alpha virt. eigenvalues --    1.50600   1.51795   1.53116   1.53909   1.55643
 Alpha virt. eigenvalues --    1.56729   1.58013   1.58296   1.62162   1.63582
 Alpha virt. eigenvalues --    1.64855   1.67642   1.68298   1.69854   1.71916
 Alpha virt. eigenvalues --    1.73039   1.74457   1.75300   1.76084   1.76879
 Alpha virt. eigenvalues --    1.78263   1.79055   1.79458   1.80836   1.81422
 Alpha virt. eigenvalues --    1.82243   1.82355   1.82947   1.84478   1.85793
 Alpha virt. eigenvalues --    1.86086   1.86922   1.87821   1.90558   1.91581
 Alpha virt. eigenvalues --    1.92481   1.93139   1.94276   1.94962   1.95517
 Alpha virt. eigenvalues --    1.97018   1.97758   1.98141   1.99524   2.01116
 Alpha virt. eigenvalues --    2.01763   2.03194   2.04043   2.05583   2.06275
 Alpha virt. eigenvalues --    2.06523   2.07016   2.09988   2.10287   2.11407
 Alpha virt. eigenvalues --    2.12451   2.13418   2.15449   2.16008   2.16531
 Alpha virt. eigenvalues --    2.18623   2.19751   2.20059   2.21841   2.23168
 Alpha virt. eigenvalues --    2.24618   2.26417   2.26733   2.28268   2.29345
 Alpha virt. eigenvalues --    2.29954   2.31651   2.32412   2.34159   2.34972
 Alpha virt. eigenvalues --    2.35728   2.36661   2.37303   2.37784   2.39009
 Alpha virt. eigenvalues --    2.39611   2.41231   2.42091   2.42763   2.43792
 Alpha virt. eigenvalues --    2.45049   2.45225   2.46727   2.47165   2.47984
 Alpha virt. eigenvalues --    2.48063   2.49325   2.49911   2.50307   2.51186
 Alpha virt. eigenvalues --    2.52293   2.54108   2.55567   2.56038   2.57321
 Alpha virt. eigenvalues --    2.58373   2.59107   2.60000   2.61714   2.64492
 Alpha virt. eigenvalues --    2.64665   2.65376   2.66576   2.67192   2.67501
 Alpha virt. eigenvalues --    2.68566   2.69481   2.70770   2.72019   2.73331
 Alpha virt. eigenvalues --    2.74941   2.75778   2.76701   2.77073   2.77524
 Alpha virt. eigenvalues --    2.79414   2.80810   2.82366   2.82720   2.84146
 Alpha virt. eigenvalues --    2.87157   2.87799   2.89141   2.91321   2.93825
 Alpha virt. eigenvalues --    2.96676   2.98166   3.01117   3.01600   3.06066
 Alpha virt. eigenvalues --    3.07911   3.11172   3.12839   3.17218   3.23643
 Alpha virt. eigenvalues --    3.25647   3.27416   3.28594   3.33398   3.35110
 Alpha virt. eigenvalues --    3.35693   3.40481   3.43411   3.48221   3.50082
 Alpha virt. eigenvalues --    3.54139   3.55943   3.59360   3.73397   3.77441
 Alpha virt. eigenvalues --    3.97387   4.00431   4.01484   4.18613   4.23788
 Alpha virt. eigenvalues --    4.27395   4.30575   4.30684   4.33829   4.34560
 Alpha virt. eigenvalues --    4.36028   4.36409   4.37358   4.40077   4.43052
 Alpha virt. eigenvalues --    4.43575   4.46218   4.48593   4.53701   4.57797
 Alpha virt. eigenvalues --    4.60777   4.67373   4.72801   4.76318   4.78387
 Alpha virt. eigenvalues --    4.80452   4.86607
          Condensed to atoms (all electrons):
              1          2          3          4          5          6
     1  C    9.211899  -1.553296   1.163406  -2.095153   1.455022  -2.408371
     2  C   -1.553296   6.515984  -0.593689   1.825540  -2.000178   1.562603
     3  C    1.163406  -0.593689   7.053775  -3.078431   2.174134  -0.676237
     4  C   -2.095153   1.825540  -3.078431  16.301930  -6.342794   1.285893
     5  C    1.455022  -2.000178   2.174134  -6.342794  26.772105 -10.971287
     6  C   -2.408371   1.562603  -0.676237   1.285893 -10.971287  21.422389
     7  C    0.322501   0.139400   0.208533  -2.193642  -7.731894  -0.220502
     8  N   -0.080304   0.007041  -0.016459   0.179320   0.309124   0.419249
     9  C   -0.017826   0.195614  -0.131011  -0.201271  -3.523350   1.722302
    10  S   -0.121002  -0.407238   0.011256  -0.016461   6.721703  -4.100425
    11  C    0.051207  -0.058798   0.034415   0.023358   1.279831   0.069993
    12  N   -0.001777   0.000073  -0.000269   0.006069  -0.017646  -0.010699
    13  C   -0.000116  -0.001645   0.001513   0.010771   0.078984   0.229216
    14  C   -0.003715   0.002579  -0.001204  -0.000626  -0.121628  -0.115048
    15  C   -0.000787   0.000438  -0.000265   0.000179  -0.021922  -0.043026
    16  S    0.000008  -0.000019   0.000013  -0.000031   0.000156   0.001651
    17  C   -0.000005  -0.000009   0.000003  -0.000006   0.000034   0.000237
    18  C    0.000032   0.000035  -0.000011   0.000045  -0.000197  -0.000783
    19  C    0.000009   0.000002  -0.000000  -0.000000  -0.000017  -0.000096
    20  C   -0.000030   0.000002  -0.000003   0.000011   0.000005   0.000098
    21  C   -0.000194  -0.000006  -0.000022   0.000017  -0.000840  -0.001423
    22  C    0.000175   0.000355  -0.000117   0.000374  -0.004806  -0.008223
    23  C    0.025290   0.016388  -0.004911  -0.031024  -0.619184  -0.250841
    24  N   -0.001058   0.000820  -0.000500   0.002176   0.016355   0.012585
    25  S   -0.000498  -0.002612   0.000690   0.002854   0.015997  -0.042421
    26  N    0.019149  -0.005391   0.002698   0.022970   0.162135   0.086608
    27  C    0.018847   0.078555  -0.038708  -0.199612  -1.936314  -1.031781
    28  H    0.092287   0.138171  -0.155326   0.268531  -0.019738  -0.023640
    29  H    0.566698  -0.091699   0.121643  -0.280523   0.035495  -0.006799
    30  H   -0.035115   0.343475  -0.082331   0.131190  -0.021567  -0.032355
    31  H    0.104680  -0.147786   0.458344  -0.192596   0.148579  -0.064486
    32  H    0.024994   0.038887  -0.111370   0.592476   0.054721  -0.226540
    33  H    0.015212  -0.004697   0.002549  -0.133155  -0.442692  -0.311085
    34  H    0.000008   0.000029  -0.000007  -0.000156   0.000283  -0.003370
    35  H   -0.000000  -0.000000   0.000000   0.000000   0.000001   0.000004
    36  H    0.000000   0.000000   0.000000  -0.000000  -0.000000   0.000000
    37  H   -0.000001   0.000000  -0.000000   0.000000   0.000001  -0.000001
    38  H    0.000030  -0.000013   0.000007  -0.000019  -0.000380  -0.000143
    39  H    0.000028  -0.000005   0.000003  -0.000010   0.000254   0.000290
              7          8          9         10         11         12
     1  C    0.322501  -0.080304  -0.017826  -0.121002   0.051207  -0.001777
     2  C    0.139400   0.007041   0.195614  -0.407238  -0.058798   0.000073
     3  C    0.208533  -0.016459  -0.131011   0.011256   0.034415  -0.000269
     4  C   -2.193642   0.179320  -0.201271  -0.016461   0.023358   0.006069
     5  C   -7.731894   0.309124  -3.523350   6.721703   1.279831  -0.017646
     6  C   -0.220502   0.419249   1.722302  -4.100425   0.069993  -0.010699
     7  C   17.950156  -1.196439   1.892356  -6.594106  -0.553293   0.021964
     8  N   -1.196439   7.047438  -0.017139   0.843335  -0.304103   0.060528
     9  C    1.892356  -0.017139  14.018765  -4.485621   2.782396  -0.314221
    10  S   -6.594106   0.843335  -4.485621  27.587792   1.250978  -0.047293
    11  C   -0.553293  -0.304103   2.782396   1.250978  24.455757   0.062877
    12  N    0.021964   0.060528  -0.314221  -0.047293   0.062877   6.976009
    13  C   -0.241642  -0.059635   0.548919   0.261205   1.521921  -0.767396
    14  C    0.276994  -0.014194  -0.001508  -0.380847  -1.829970   0.573405
    15  C    0.059135   0.002293  -0.206359  -0.124856  -1.192739   0.158744
    16  S    0.000623   0.000625  -0.014329  -0.003269  -0.200920   0.029489
    17  C   -0.000037  -0.000291  -0.000350   0.000933  -0.101632  -0.018432
    18  C    0.000188   0.000600   0.032348  -0.002148   0.421732   0.028410
    19  C    0.000014   0.000007   0.002606   0.000114   0.043630   0.001857
    20  C    0.000125  -0.000012  -0.002566  -0.002340  -0.040750   0.001474
    21  C    0.002096  -0.000580  -0.035350  -0.007504  -0.311229  -0.003260
    22  C    0.012173   0.000137  -0.018199  -0.051220  -0.232423   0.055664
    23  C    0.774096  -0.038044  -1.649370  -1.672682 -11.007345   0.080923
    24  N   -0.018135  -0.000617   0.049535  -0.015323   0.783639  -0.013277
    25  S   -0.010364   0.006487  -0.056956   0.120912  -0.065964   0.008042
    26  N   -0.145326  -0.001206  -0.074245  -0.147452  -0.325587   0.020374
    27  C    2.312023   0.023173  -3.722159  -3.114253  -9.874031   0.335140
    28  H   -0.044864   0.002730   0.003395   0.039100  -0.001468   0.000139
    29  H    0.037526  -0.006539  -0.037019  -0.048805   0.026547   0.000085
    30  H   -0.018718   0.000459  -0.000197   0.009163  -0.000139  -0.000007
    31  H   -0.016939  -0.000213  -0.002992   0.007574   0.001019  -0.000003
    32  H   -0.175503   0.007845  -0.038129   0.079230   0.000258  -0.000100
    33  H    1.199011  -0.157062   0.095308  -0.201479   0.007212  -0.000568
    34  H   -0.004259  -0.003797  -0.035047   0.002891  -0.016102  -0.163576
    35  H   -0.000001  -0.000003   0.000048   0.000004  -0.000897  -0.000277
    36  H   -0.000000  -0.000000  -0.000013  -0.000004  -0.000260  -0.000025
    37  H    0.000000   0.000001   0.000013  -0.000007   0.000316   0.000056
    38  H    0.000519  -0.000003   0.001165  -0.001234  -0.013583  -0.000458
    39  H   -0.000416  -0.000024  -0.000322   0.001285   0.018151  -0.000113
             13         14         15         16         17         18
     1  C   -0.000116  -0.003715  -0.000787   0.000008  -0.000005   0.000032
     2  C   -0.001645   0.002579   0.000438  -0.000019  -0.000009   0.000035
     3  C    0.001513  -0.001204  -0.000265   0.000013   0.000003  -0.000011
     4  C    0.010771  -0.000626   0.000179  -0.000031  -0.000006   0.000045
     5  C    0.078984  -0.121628  -0.021922   0.000156   0.000034  -0.000197
     6  C    0.229216  -0.115048  -0.043026   0.001651   0.000237  -0.000783
     7  C   -0.241642   0.276994   0.059135   0.000623  -0.000037   0.000188
     8  N   -0.059635  -0.014194   0.002293   0.000625  -0.000291   0.000600
     9  C    0.548919  -0.001508  -0.206359  -0.014329  -0.000350   0.032348
    10  S    0.261205  -0.380847  -0.124856  -0.003269   0.000933  -0.002148
    11  C    1.521921  -1.829970  -1.192739  -0.200920  -0.101632   0.421732
    12  N   -0.767396   0.573405   0.158744   0.029489  -0.018432   0.028410
    13  C   16.135049  -6.246498  -3.254056  -0.816935   0.158448  -0.126156
    14  C   -6.246498  14.545921   3.420763   0.094260   1.216353  -2.133130
    15  C   -3.254056   3.420763  12.126955   0.001144   2.340615  -5.566186
    16  S   -0.816935   0.094260   0.001144  16.453857  -0.469606   0.446104
    17  C    0.158448   1.216353   2.340615  -0.469606  12.397765  -8.323435
    18  C   -0.126156  -2.133130  -5.566186   0.446104  -8.323435  19.918279
    19  C    0.018460  -0.469114  -2.864668   0.401930  -1.989761   3.302030
    20  C   -0.053640   0.197442   0.645623  -0.109870   0.013148  -0.641940
    21  C   -0.037317  -0.035756   0.140492   0.436656   0.049858  -0.985655
    22  C   -2.337165  -0.983721   1.356137  -0.008138   1.055697  -1.233474
    23  C    0.674700  -1.395523  -0.553041  -0.139738  -0.775643   1.237103
    24  N    0.215463  -0.255112  -0.002619   0.002603   0.072708  -0.220362
    25  S    0.045976  -0.184034  -0.157322   0.001839  -0.029033   0.070861
    26  N   -0.020132   0.075941   0.143826   0.008153   0.005773  -0.047619
    27  C   -1.060654   0.073387  -0.637986  -0.028206  -0.082593   0.439345
    28  H   -0.000028   0.000187  -0.000005  -0.000008  -0.000000   0.000010
    29  H    0.002926  -0.003357  -0.000638   0.000091  -0.000000  -0.000085
    30  H   -0.000071   0.000029   0.000003  -0.000001  -0.000000   0.000002
    31  H    0.000061  -0.000060  -0.000008   0.000000   0.000000  -0.000000
    32  H    0.000320  -0.000520  -0.000057  -0.000002  -0.000001   0.000001
    33  H   -0.004599   0.005795   0.001141   0.000016   0.000011  -0.000012
    34  H    1.038906  -0.536822  -0.194291  -0.029334  -0.007246   0.018179
    35  H   -0.003844   0.015042   0.098127  -0.058193   0.479283  -0.173782
    36  H    0.000501  -0.009902   0.007914   0.000301  -0.108600   0.118543
    37  H   -0.005904  -0.020193  -0.026072   0.002865  -0.058956   0.070616
    38  H    0.037802   0.115913   0.126619  -0.010593   0.100871  -0.158172
    39  H    0.000577   0.005898  -0.063483  -0.003799   0.012124   0.069937
             19         20         21         22         23         24
     1  C    0.000009  -0.000030  -0.000194   0.000175   0.025290  -0.001058
     2  C    0.000002   0.000002  -0.000006   0.000355   0.016388   0.000820
     3  C   -0.000000  -0.000003  -0.000022  -0.000117  -0.004911  -0.000500
     4  C   -0.000000   0.000011   0.000017   0.000374  -0.031024   0.002176
     5  C   -0.000017   0.000005  -0.000840  -0.004806  -0.619184   0.016355
     6  C   -0.000096   0.000098  -0.001423  -0.008223  -0.250841   0.012585
     7  C    0.000014   0.000125   0.002096   0.012173   0.774096  -0.018135
     8  N    0.000007  -0.000012  -0.000580   0.000137  -0.038044  -0.000617
     9  C    0.002606  -0.002566  -0.035350  -0.018199  -1.649370   0.049535
    10  S    0.000114  -0.002340  -0.007504  -0.051220  -1.672682  -0.015323
    11  C    0.043630  -0.040750  -0.311229  -0.232423 -11.007345   0.783639
    12  N    0.001857   0.001474  -0.003260   0.055664   0.080923  -0.013277
    13  C    0.018460  -0.053640  -0.037317  -2.337165   0.674700   0.215463
    14  C   -0.469114   0.197442  -0.035756  -0.983721  -1.395523  -0.255112
    15  C   -2.864668   0.645623   0.140492   1.356137  -0.553041  -0.002619
    16  S    0.401930  -0.109870   0.436656  -0.008138  -0.139738   0.002603
    17  C   -1.989761   0.013148   0.049858   1.055697  -0.775643   0.072708
    18  C    3.302030  -0.641940  -0.985655  -1.233474   1.237103  -0.220362
    19  C   11.445570  -1.172958   2.199654  -4.957138   0.224593  -0.062626
    20  C   -1.172958   8.465258  -3.251840   1.798801  -0.048029   0.064680
    21  C    2.199654  -3.251840  12.923882  -4.284007  -0.233304  -0.085703
    22  C   -4.957138   1.798801  -4.284007  15.090536   0.135761   0.018148
    23  C    0.224593  -0.048029  -0.233304   0.135761  16.764425  -0.777618
    24  N   -0.062626   0.064680  -0.085703   0.018148  -0.777618   8.018869
    25  S    0.032639  -0.055784   0.029214   0.032187  -0.266289  -0.121682
    26  N   -0.008681   0.016291   0.063368  -0.098556   0.748537  -0.282951
    27  C    0.095149  -0.090155  -0.447115   0.253603   4.428528   0.120469
    28  H    0.000001  -0.000008  -0.000027   0.000054  -0.001244  -0.000068
    29  H   -0.000017   0.000032  -0.000112  -0.000306  -0.008197   0.000315
    30  H    0.000000   0.000000   0.000001   0.000008  -0.000298   0.000050
    31  H   -0.000000  -0.000000  -0.000001  -0.000002  -0.000254  -0.000005
    32  H    0.000000   0.000000   0.000002  -0.000001  -0.002201   0.000092
    33  H    0.000000  -0.000001   0.000021   0.000191   0.016990  -0.000244
    34  H    0.010602  -0.006567   0.000834  -0.113474   0.114398   0.001854
    35  H   -0.197663   0.027779  -0.040468   0.157876  -0.011943   0.000754
    36  H    0.310793  -0.162996   0.133623  -0.023081   0.003933  -0.000683
    37  H   -0.035191   0.383882  -0.102588   0.063156   0.009352  -0.000981
    38  H   -0.136969   0.156190   0.201415  -0.076364  -0.052235  -0.006018
    39  H    0.067744  -0.179428   0.386490  -0.035449  -0.024569   0.002602
             25         26         27         28         29         30
     1  C   -0.000498   0.019149   0.018847   0.092287   0.566698  -0.035115
     2  C   -0.002612  -0.005391   0.078555   0.138171  -0.091699   0.343475
     3  C    0.000690   0.002698  -0.038708  -0.155326   0.121643  -0.082331
     4  C    0.002854   0.022970  -0.199612   0.268531  -0.280523   0.131190
     5  C    0.015997   0.162135  -1.936314  -0.019738   0.035495  -0.021567
     6  C   -0.042421   0.086608  -1.031781  -0.023640  -0.006799  -0.032355
     7  C   -0.010364  -0.145326   2.312023  -0.044864   0.037526  -0.018718
     8  N    0.006487  -0.001206   0.023173   0.002730  -0.006539   0.000459
     9  C   -0.056956  -0.074245  -3.722159   0.003395  -0.037019  -0.000197
    10  S    0.120912  -0.147452  -3.114253   0.039100  -0.048805   0.009163
    11  C   -0.065964  -0.325587  -9.874031  -0.001468   0.026547  -0.000139
    12  N    0.008042   0.020374   0.335140   0.000139   0.000085  -0.000007
    13  C    0.045976  -0.020132  -1.060654  -0.000028   0.002926  -0.000071
    14  C   -0.184034   0.075941   0.073387   0.000187  -0.003357   0.000029
    15  C   -0.157322   0.143826  -0.637986  -0.000005  -0.000638   0.000003
    16  S    0.001839   0.008153  -0.028206  -0.000008   0.000091  -0.000001
    17  C   -0.029033   0.005773  -0.082593  -0.000000  -0.000000  -0.000000
    18  C    0.070861  -0.047619   0.439345   0.000010  -0.000085   0.000002
    19  C    0.032639  -0.008681   0.095149   0.000001  -0.000017   0.000000
    20  C   -0.055784   0.016291  -0.090155  -0.000008   0.000032   0.000000
    21  C    0.029214   0.063368  -0.447115  -0.000027  -0.000112   0.000001
    22  C    0.032187  -0.098556   0.253603   0.000054  -0.000306   0.000008
    23  C   -0.266289   0.748537   4.428528  -0.001244  -0.008197  -0.000298
    24  N   -0.121682  -0.282951   0.120469  -0.000068   0.000315   0.000050
    25  S   15.757481  -0.070369  -0.019320   0.001118  -0.003163  -0.000023
    26  N   -0.070369   7.729898  -0.553532  -0.001486   0.008365  -0.000134
    27  C   -0.019320  -0.553532  20.704730  -0.001020  -0.019597  -0.000271
    28  H    0.001118  -0.001486  -0.001020   0.558328  -0.054737   0.007054
    29  H   -0.003163   0.008365  -0.019597  -0.054737   0.564170  -0.003728
    30  H   -0.000023  -0.000134  -0.000271   0.007054  -0.003728   0.572383
    31  H    0.000034   0.000144  -0.001757  -0.002527  -0.000086  -0.011508
    32  H   -0.000032   0.000746  -0.010346   0.005943  -0.000783   0.001284
    33  H   -0.000169  -0.002974   0.069941  -0.002625   0.001656  -0.000859
    34  H    0.002628  -0.001218   0.054123   0.000001  -0.000041  -0.000000
    35  H   -0.000487   0.000036  -0.000894  -0.000000   0.000000  -0.000000
    36  H    0.000199  -0.000007  -0.000674  -0.000000   0.000000  -0.000000
    37  H    0.000197   0.000196  -0.000086   0.000000   0.000000   0.000000
    38  H   -0.014499   0.002351  -0.006585  -0.000002   0.000010  -0.000002
    39  H   -0.006928  -0.004052   0.027653  -0.000001  -0.000003   0.000000
             31         32         33         34         35         36
     1  C    0.104680   0.024994   0.015212   0.000008  -0.000000   0.000000
     2  C   -0.147786   0.038887  -0.004697   0.000029  -0.000000   0.000000
     3  C    0.458344  -0.111370   0.002549  -0.000007   0.000000   0.000000
     4  C   -0.192596   0.592476  -0.133155  -0.000156   0.000000  -0.000000
     5  C    0.148579   0.054721  -0.442692   0.000283   0.000001  -0.000000
     6  C   -0.064486  -0.226540  -0.311085  -0.003370   0.000004   0.000000
     7  C   -0.016939  -0.175503   1.199011  -0.004259  -0.000001  -0.000000
     8  N   -0.000213   0.007845  -0.157062  -0.003797  -0.000003  -0.000000
     9  C   -0.002992  -0.038129   0.095308  -0.035047   0.000048  -0.000013
    10  S    0.007574   0.079230  -0.201479   0.002891   0.000004  -0.000004
    11  C    0.001019   0.000258   0.007212  -0.016102  -0.000897  -0.000260
    12  N   -0.000003  -0.000100  -0.000568  -0.163576  -0.000277  -0.000025
    13  C    0.000061   0.000320  -0.004599   1.038906  -0.003844   0.000501
    14  C   -0.000060  -0.000520   0.005795  -0.536822   0.015042  -0.009902
    15  C   -0.000008  -0.000057   0.001141  -0.194291   0.098127   0.007914
    16  S    0.000000  -0.000002   0.000016  -0.029334  -0.058193   0.000301
    17  C    0.000000  -0.000001   0.000011  -0.007246   0.479283  -0.108600
    18  C   -0.000000   0.000001  -0.000012   0.018179  -0.173782   0.118543
    19  C   -0.000000   0.000000   0.000000   0.010602  -0.197663   0.310793
    20  C   -0.000000   0.000000  -0.000001  -0.006567   0.027779  -0.162996
    21  C   -0.000001   0.000002   0.000021   0.000834  -0.040468   0.133623
    22  C   -0.000002  -0.000001   0.000191  -0.113474   0.157876  -0.023081
    23  C   -0.000254  -0.002201   0.016990   0.114398  -0.011943   0.003933
    24  N   -0.000005   0.000092  -0.000244   0.001854   0.000754  -0.000683
    25  S    0.000034  -0.000032  -0.000169   0.002628  -0.000487   0.000199
    26  N    0.000144   0.000746  -0.002974  -0.001218   0.000036  -0.000007
    27  C   -0.001757  -0.010346   0.069941   0.054123  -0.000894  -0.000674
    28  H   -0.002527   0.005943  -0.002625   0.000001  -0.000000  -0.000000
    29  H   -0.000086  -0.000783   0.001656  -0.000041   0.000000   0.000000
    30  H   -0.011508   0.001284  -0.000859  -0.000000  -0.000000  -0.000000
    31  H    0.612183  -0.018600  -0.000310   0.000002   0.000000   0.000000
    32  H   -0.018600   0.660948  -0.024176  -0.000006  -0.000000  -0.000000
[...]
 000039,-0.00000289,0.00000021,0.00000257,-0.00000297,-0.00000589,0.000
 00309,0.00000304,-0.00000053,-0.00000224,0.00000492,0.00000274,0.00000
 005,-0.00001451,-0.00000707,-0.00001273,0.00000023,0.00001827,0.000020
 82,-0.00000541,-0.00002299,-0.00000063,0.00001698,0.00000281,0.0000030
 7,-0.00004276,-0.00000988,-0.00000277,0.00000332,0.00000825,-0.0000139
 4,0.00010247,0.00003318,0.00002119,-0.00007130,-0.00012801,0.00005907,
 0.00027256,0.00005156,0.00099750,0.00094453,-0.00146335,0.00115307,-0.
 00613780,0.00053809,0.00569723,-0.00292748,-0.02076165,0.02531846,-0.0
 6105981,-0.05508665,-0.00693845,0.01152475,0.01608451,-0.00082722,0.00
 068095,-0.00107602,-0.00002676,0.00006710,-0.00005084,-0.00015679,0.00
 050646,0.00079322,0.00106244,-0.00201395,0.00321930,-0.00028468,-0.000
 54417,-0.00013718,0.00001745,0.00010536,-0.00001121,0.00001003,-0.0000
 2353,-0.00001411,0.00007842,-0.00004350,-0.00007875,0.00010328,0.00005
 207,-0.00005328,-0.00000031,0.00000087,0.00000133,-0.00000110,0.000000
 78,0.00000070,0.00000162,0.00000005,-0.00000144,0.00000071,-0.00000077
 ,-0.00000110,0.00000006,0.00000097,0.00000035,-0.00000034,-0.00000209,
 -0.00000098,0.00006195,0.00008078,0.00004831,-0.02652351,0.05908566,-0
 .00000118,0.00000285,0.00000543,-0.00000814,0.00000949,0.00000735,-0.0
 0000716,-0.00001277,0.00000685,-0.00000245,-0.00000774,-0.00000350,0.0
 0000994,0.00001418,-0.00000390,0.00002741,0.00003887,-0.00001662,-0.00
 004378,-0.00000076,0.00004755,0.00000428,-0.00003219,-0.00001830,0.000
 01488,0.00000833,-0.00000583,0.00000403,-0.00000935,-0.00000076,-0.000
 01522,0.00003003,0.00002587,-0.00001820,-0.00009341,-0.00007147,0.0000
 1008,0.00013951,0.00009321,0.00056840,-0.00014188,0.00024392,-0.000680
 39,0.00133170,0.00101913,-0.00086830,0.00045645,-0.00001002,0.09585905
 ,-0.05311819,-0.31542729,0.00591219,-0.00934370,-0.01078171,-0.0010648
 1,-0.00080377,0.00080556,0.00006171,-0.00005517,-0.00027537,0.00052871
 ,-0.00058831,-0.00041008,0.00117650,0.00343716,-0.00136786,-0.00005573
 ,0.00000661,-0.00000233,0.00003697,-0.00003753,-0.00001093,-0.00003232
 ,-0.00001912,0.00003454,0.00001011,-0.00004056,-0.00003887,-0.00000505
 ,0.00008769,-0.00004362,0.00000063,0.00000099,-0.00000198,0.00000180,-
 0.00000047,-0.00000090,0.00000219,0.00000013,-0.00000113,-0.00000075,0
 .00000202,0.00000163,0.00000163,0.00000019,-0.00000099,-0.00000076,0.0
 0000146,0.00000150,0.00001886,0.00001432,0.00000545,-0.10142331,0.0578
 5113,0.32665785,-0.00000043,0.00000186,0.00000149,-0.00000498,0.000005
 21,0.00000690,-0.00000548,-0.00000709,0.00000125,0.00000166,-0.0000025
 3,-0.00000338,0.00000402,0.00000916,0.00000201,0.00001489,0.00001573,-
 0.00001304,-0.00002437,-0.00000113,0.00002787,-0.00000335,-0.00002448,
 -0.00000811,-0.00000164,0.00002585,-0.00000346,0.00000404,-0.00000175,
 -0.00000060,0.00002837,-0.00000394,-0.00002861,-0.00002579,-0.00000418
 ,0.00006094,-0.00003149,-0.00000864,-0.00003813,-0.00011772,0.00002753
 ,-0.00006367,0.00021306,0.00009466,0.00023550,-0.00011954,0.00015047,-
 0.00005720,-0.00059347,-0.00026290,-0.00020854,-0.00015886,0.00094996,
 0.00279837,-0.07568725,0.07500741,0.07155760,0.00202329,0.00460397,0.0
 0198709,0.01005586,0.00237140,0.00294808,0.00213968,0.00094380,0.00043
 327,0.00008338,0.00006524,-0.00006038,0.00008648,-0.00009999,-0.000060
 52,-0.00002848,-0.00000458,0.00006667,-0.00001169,-0.00003388,-0.00001
 929,0.00000862,-0.00000281,0.00000479,0.00000119,0.00000035,-0.0000013
 6,0.00000074,-0.00000041,-0.00000130,0.00000061,0.00000009,0.00000045,
 -0.00000010,0.00000121,0.00000140,0.00000078,-0.00000076,-0.00000021,0
 .00000054,0.00000079,0.00000095,-0.00000801,-0.00000614,0.00000160,0.0
 0014900,0.00015194,-0.00003903,0.06752213,0.00000026,-0.00000566,-0.00
 000150,0.00001163,-0.00001116,-0.00001936,0.00000865,0.00001469,-0.000
 00199,-0.00000503,0.00000579,0.00000652,-0.00000503,-0.00002882,-0.000
 00526,-0.00004389,-0.00003577,0.00003110,0.00006141,0.00000011,-0.0000
 7074,-0.00000602,0.00004253,0.00001998,-0.00001485,-0.00004446,0.00000
 881,0.00000072,0.00001694,0.00000962,0.00000375,0.00004998,0.00002424,
 0.00000041,-0.00003176,-0.00004889,0.00006199,-0.00009323,-0.00008373,
 -0.00011992,-0.00020383,0.00033073,0.00049599,-0.00021257,-0.00115720,
 0.00009633,-0.00067393,0.00007371,-0.00043217,0.00126981,-0.00026118,0
 .00776241,-0.00880432,-0.01886268,0.07563543,-0.19100304,-0.12561453,-
 0.00291684,0.00888061,0.00581868,0.00221498,0.00051307,0.00286379,0.00
 121383,-0.00392947,0.00177926,-0.00004361,-0.00001403,0.00001030,0.000
 02807,0.00002975,-0.00002628,0.00000858,0.00001371,0.00000379,0.000013
 90,-0.00003105,-0.00003471,-0.00000726,-0.00004477,-0.00001632,-0.0000
 0181,0.00000140,0.00000311,-0.00000258,0.00000119,0.00000275,0.0000020
 1,-0.00000004,-0.00000211,0.00000170,-0.00000275,-0.00000280,-0.000000
 05,0.00000208,0.00000124,0.00000030,-0.00000413,-0.00000134,0.00001864
 ,0.00001531,0.00000549,0.00001062,-0.00034182,0.00047587,-0.08252310,0
 .19408391,0.00000038,-0.00000322,-0.00000109,0.00000500,-0.00000542,-0
 .00000848,0.00000485,0.00000725,-0.00000172,-0.00000212,0.00000459,0.0
 0000359,-0.00000281,-0.00001611,-0.00000383,-0.00001900,-0.00000504,0.
 00002005,0.00002391,-0.00000269,-0.00002959,-0.00000271,0.00001292,0.0
 0000896,-0.00000970,-0.00002308,-0.00000412,-0.00000296,0.00001123,0.0
 0000709,0.00000901,0.00005402,0.00001030,0.00001418,-0.00000245,0.0000
 0479,-0.00002661,0.00003084,0.00004251,-0.00006700,0.00018249,-0.00006
 335,-0.00013615,0.00022281,0.00063748,-0.00007168,0.00000204,0.0000978
 0,-0.00002659,-0.00095907,0.00035122,-0.00417649,0.00685141,0.00925939
 ,0.07086679,-0.12355007,-0.17518950,0.00979295,-0.02255412,-0.00985183
 ,0.00317278,0.00234315,-0.00287068,0.00012256,0.00291277,-0.00099531,0
 .00007286,0.00008571,-0.00007159,0.00014363,-0.00011909,-0.00000776,-0
 .00008598,-0.00000197,0.00010401,0.00000678,-0.00007185,-0.00005830,-0
 .00000432,-0.00001271,0.00000307,-0.00000059,0.00000070,0.00000204,-0.
 00000172,0.00000093,0.00000120,0.00000084,-0.00000004,-0.00000088,0.00
 000085,-0.00000163,-0.00000146,-0.00000019,0.00000094,0.00000082,-0.00
 000024,-0.00000218,-0.00000005,-0.00000296,0.00000094,-0.00000135,0.00
 010958,-0.00007443,-0.00017374,-0.07835684,0.13581656,0.17906320,-0.00
 000031,0.00000059,0.00000136,-0.00000282,0.00000348,0.00000295,-0.0000
 0325,-0.00000421,0.00000174,0.00000005,-0.00000233,-0.00000219,0.00000
 366,0.00000494,0.00000068,0.00000570,0.00000755,-0.00000799,-0.0000112
 0,0.00000018,0.00001365,-0.00000419,-0.00001356,-0.00000356,0.00000419
 ,0.00001495,0.00000057,0.00000136,-0.00000032,-0.00000131,0.00002100,0
 .00000695,-0.00002431,-0.00001986,0.00000634,0.00002861,-0.00004193,-0
 .00002597,-0.00000036,0.00003301,-0.00003992,-0.00002883,0.00152221,0.
 00038891,-0.00010961,-0.00111972,-0.00040411,-0.00041928,0.00045365,0.
 00001095,-0.00019393,0.00778888,0.00199336,0.00368209,0.00606689,-0.00
 588620,0.00346119,-0.03970276,0.03343648,-0.00940103,0.00028335,0.0061
 0286,-0.00619167,-0.00048037,0.00169433,0.00132473,0.00002053,-0.00002
 932,-0.00002058,-0.00004029,-0.00003722,0.00001084,0.00000567,0.000042
 13,-0.00000364,-0.00000958,0.00003749,0.00002789,-0.00000800,-0.000025
 29,0.00002085,0.00000104,0.00000059,-0.00000067,0.00000040,0.00000003,
 -0.00000089,0.00000067,0.00000022,0.00000021,0.00000009,0.00000054,0.0
 0000067,0.00000056,-0.00000043,0.00000005,0.00000044,0.00000017,0.0000
 0037,0.00000592,0.00000324,0.00000152,0.00017722,0.00005818,0.00003542
 ,-0.00453092,-0.00117622,-0.00163470,0.02927255,0.00000244,-0.00000765
 ,-0.00000261,0.00001322,-0.00001689,-0.00002526,0.00001654,0.00002352,
 -0.00000631,-0.00000762,0.00001066,0.00000716,-0.00000857,-0.00003259,
 -0.00000301,-0.00005162,-0.00003865,0.00004371,0.00007633,-0.00000136,
 -0.00009021,-0.00000598,0.00005344,0.00002504,-0.00002196,-0.00005453,
 0.00000168,-0.00000435,0.00001590,0.00001267,-0.00001077,0.00006979,0.
 00004312,0.00003489,-0.00001010,-0.00004434,-0.00000036,-0.00003391,-0
 .00001766,-0.00009134,0.00014399,0.00020912,0.00027730,0.00020191,0.00
 077434,-0.00044703,-0.00023865,0.00029345,0.00008813,-0.00003109,0.000
 16769,0.00214234,0.00081172,0.00054977,0.00158661,0.00151287,-0.002173
 79,0.03269651,-0.27536101,0.12380363,-0.00057262,-0.01005674,0.0126090
 8,0.00139862,-0.00266367,-0.00233359,-0.00002398,0.00004869,-0.0000229
 8,0.00011370,-0.00000694,-0.00002384,-0.00003046,-0.00002171,0.0000636
 6,0.00001948,-0.00008772,-0.00008971,0.00000521,-0.00003671,-0.0000189
 5,-0.00000212,-0.00000018,0.00000478,-0.00000370,0.00000110,0.00000328
 ,-0.00000129,-0.00000063,0.00000109,0.00000208,-0.00000490,-0.00000393
 ,-0.00000095,0.00000088,0.00000304,0.00000054,-0.00000531,-0.00000014,
 0.00001229,0.00001112,0.00000418,0.00005216,-0.00003152,0.00006968,-0.
 00149296,0.00002411,0.00021344,-0.03581676,0.28562024,-0.00000034,0.00
 000090,0.00000115,-0.00000164,0.00000236,0.00000241,-0.00000373,-0.000
 00432,0.00000113,0.00000104,-0.00000066,-0.00000015,0.00000156,-0.0000
 0048,-0.00000200,0.00000231,0.00000229,-0.00000366,-0.00000733,-0.0000
 0198,0.00000800,0.00000108,-0.00000318,-0.00000228,-0.00000210,0.00000
 031,-0.00000030,0.00000387,0.00000313,0.00000128,0.00000810,0.00000038
 ,-0.00000247,-0.00001124,-0.00001138,-0.00000026,0.00001202,0.00002420
 ,-0.00001078,-0.00000441,0.00002587,0.00001758,0.00020970,-0.00003446,
 0.00090109,-0.00038658,0.00017937,-0.00003520,-0.00039411,0.00102109,0
 .00072409,0.00362396,0.00074789,-0.00490612,-0.00429393,0.02642551,-0.
 00529418,-0.00862157,0.12020753,-0.12305084,0.00057845,-0.01208121,0.0
 1033338,0.00156703,-0.00327734,-0.00220028,0.00000090,0.00006333,-0.00
 000702,0.00004628,-0.00001569,-0.00002212,-0.00001460,-0.00001001,0.00
 004101,-0.00000525,-0.00003041,-0.00003054,-0.00000002,0.00001113,0.00
 000601,0.00000024,0.00000102,-0.00000095,0.00000044,-0.00000022,-0.000
 00028,0.00000208,0.00000001,-0.00000136,0.00000015,0.00000122,0.000000
 94,0.00000093,0.00000053,-0.00000075,0.00000029,0.00000042,-0.00000023
 ,-0.00000876,-0.00001081,0.00000632,0.00004342,0.00001555,-0.00000117,
 -0.00128645,-0.00100952,0.00056907,0.00935060,-0.13361798,0.12257235,0
 .00000004,-0.00000305,0.00000302,0.00000486,-0.00000851,-0.00001405,0.
 00000895,0.00000833,-0.00000114,-0.00000742,0.00000998,0.00000695,-0.0
 0000259,-0.00002408,-0.00001664,-0.00003795,-0.00000657,0.00002133,0.0
 0003998,-0.00000294,-0.00004082,-0.00000690,0.00004121,0.00000620,-0.0
 0006994,-0.00003501,-0.00004676,0.00001750,0.00000971,0.00002750,-0.00
 001796,0.00005649,0.00005830,0.00010709,-0.00000093,-0.00002521,-0.000
 11072,0.00013360,0.00002889,-0.00020183,-0.00020870,0.00000843,0.00019
 923,0.00082127,0.00028519,-0.00006372,0.00002491,0.00001825,-0.0001049
 1,-0.00016477,0.00002253,-0.00061859,-0.00064154,-0.00106139,0.0001411
 7,0.00119202,-0.00101827,-0.00623956,0.00084136,0.00383034,-0.26930676
 ,-0.03390296,0.08767271,0.00304793,-0.00157800,0.00076712,0.00043826,0
 .00025999,-0.00024965,-0.00223637,0.00173105,-0.00004520,-0.00025912,0
 .00025886,0.00031488,0.00000411,-0.00010891,0.00003639,0.00025658,-0.0
 0022778,0.00018131,-0.00000099,0.00000112,0.00000070,-0.00000103,0.000
 00012,0.00000237,0.00000240,-0.00000008,-0.00000207,0.00000127,-0.0000
 0124,-0.00000134,0.00000091,0.00000140,0.00000074,0.00000453,-0.000003
 63,0.00000331,0.00000115,0.00000607,-0.00000446,0.00000746,0.00000767,
 -0.00004187,0.00022305,-0.00000981,0.00015481,0.00016647,0.00051694,0.
 00025379,0.29344888,0.00000092,0.00000679,0.00000044,-0.00000390,0.000
 01023,0.00000927,-0.00001388,-0.00001016,0.00000926,0.00000390,-0.0000
 2051,-0.00001234,0.00000639,0.00004243,0.00002419,0.00002357,-0.000081
 86,-0.00005824,-0.00000403,0.00002608,0.00001653,0.00001554,0.00002219
 ,0.00000390,-0.00000931,0.00006792,0.00003194,0.00000462,-0.00003697,-
 0.00004545,-0.00001144,-0.00029634,-0.00006099,0.00003904,0.00009269,0
 .00000850,0.00012605,-0.00036979,-0.00028750,-0.00070149,0.00038520,0.
 00017042,0.00102906,0.00109341,-0.00001697,0.00031537,0.00020022,0.001
 48821,-0.00005284,-0.00026771,0.00048617,0.00151599,-0.00170068,0.0014
 5551,0.00078932,-0.00381259,-0.00134357,0.02560781,0.00558992,-0.01120
 590,-0.03040112,-0.04738028,0.01338561,-0.02051950,-0.00346910,0.00703
 897,-0.00092312,-0.00124495,0.00068612,-0.00003808,-0.00031489,-0.0000
 7006,0.00095090,0.00018030,-0.00121573,-0.00000960,0.00090220,0.000577
 64,-0.00012083,0.00000321,0.00014257,-0.00000051,-0.00000097,-0.000005
 19,0.00000405,-0.00000295,-0.00000130,-0.00000117,0.00000042,0.0000018
 2,-0.00000160,0.00000341,0.00000276,0.00000119,-0.00000117,-0.00000192
 ,0.00000274,0.00000636,-0.00000457,0.00005496,0.00003744,0.00001108,0.
 00020361,-0.00004498,0.00021821,-0.00189800,-0.00027688,-0.00120906,-0
 .00089736,0.00004341,0.00061659,0.03403229,0.05132745,0.00000053,0.000
 00700,0.00000661,-0.00001384,0.00001855,0.00001895,-0.00001874,-0.0000
 2408,0.00001069,0.00000438,-0.00001851,-0.00001179,0.00000692,0.000037
 33,0.00000875,0.00005374,0.00003609,-0.00004917,-0.00008078,0.00000144
 ,0.00009258,0.00000540,-0.00006765,-0.00003105,0.00004731,0.00005761,0
 .00004634,0.00001159,-0.00001301,-0.00001701,0.00007580,-0.00006905,-0
 .00009621,-0.00013247,0.00004354,0.00003367,-0.00000090,-0.00006878,0.
 00008016,0.00065222,0.00057238,0.00024923,-0.00035145,-0.00127916,0.00
 042673,-0.00037925,-0.00052816,-0.00060224,-0.00025768,0.00030028,-0.0
 0128019,0.00055845,0.00156685,-0.00116614,0.00076148,-0.00082831,0.000
 11360,0.01118780,0.00000169,-0.00667404,0.08953108,0.01480536,-0.07386
 361,0.01974900,0.00396377,-0.01021869,-0.00015985,0.00001407,0.0000293
 7,0.00058120,-0.00048609,-0.00063601,0.00013465,-0.00035443,-0.0000205
 2,0.00002122,-0.00014603,-0.00012758,-0.00002332,0.00008771,-0.0000690
 2,0.00000127,0.00000092,-0.00000454,0.00000305,-0.00000170,-0.00000273
 ,0.00000293,-0.00000002,-0.00000093,-0.00000138,0.00000459,0.00000408,
 0.00000242,-0.00000029,-0.00000242,-0.00000237,0.00000463,0.00000015,0
 .00000292,-0.00000980,0.00000656,-0.00021929,0.00010816,-0.00021397,-0
 .00076470,-0.00028304,-0.00066921,-0.00025046,-0.00015349,0.00022540,-
 0.09719861,-0.01369648,0.08569670,-0.00000230,-0.00000113,-0.00000172,
 -0.00000066,0.00000045,0.00000206,0.00000250,-0.00000076,-0.00000009,-
 0.00000079,0.00000348,0.00000045,0.00000163,-0.00000576,-0.00000420,0.
 00000714,0.00003865,0.00001183,-0.00001251,-0.00000405,0.00001660,-0.0
 0000941,-0.00003012,-0.00000438,0.00000274,0.00000806,-0.00002393,-0.0
 0000736,0.00000450,0.00001151,-0.00002081,0.00010380,0.00002411,-0.000
 02867,-0.00004983,0.00002603,-0.00002941,0.00010443,0.00005700,0.00004
 042,-0.00008973,-0.00013877,0.00075412,-0.00027583,-0.00006317,0.00015
 572,0.00019157,-0.00045951,-0.00039729,0.00003262,0.00017659,-0.000150
 90,0.00031875,0.00074691,-0.00054232,0.00124396,0.00114549,0.00781130,
 0.00276637,0.01103053,-0.12719048,-0.04076973,-0.11590986,0.00037842,0
 .00121513,0.00208990,0.00010379,0.00041187,-0.00010877,0.00043025,-0.0
 0027310,0.00025774,-0.00022617,-0.00002741,0.00018869,-0.00000952,-0.0
 0004615,-0.00009253,0.00001318,0.00016411,0.00008233,0.00000056,0.0000
 0004,0.00000199,-0.00000098,0.00000149,-0.00000034,-0.00000044,0.00000
 030,-0.00000055,-0.00000024,-0.00000089,-0.00000108,-0.00000115,-0.000
 00016,0.00000031,-0.00000113,-0.00000148,0.00000117,-0.00002861,-0.000
 02318,-0.00000544,-0.00001691,-0.00003800,0.00002363,-0.00120783,-0.00
 034342,0.00012959,0.00013966,-0.00046088,-0.00066619,-0.01883547,-0.00
 911957,-0.02354027,0.13887993,-0.00000005,-0.00000081,-0.00000028,0.00
 000258,-0.00000234,-0.00000230,0.00000316,0.00000357,-0.00000033,-0.00
 000033,-0.00000040,0.00000120,-0.00000467,0.00000034,-0.00000278,-0.00
 000792,-0.00001495,0.00000423,0.00001318,0.00000153,-0.00001957,-0.000
 00699,0.00000692,0.00000951,-0.00000526,0.00001324,0.00000488,0.000004
 80,0.00000258,0.00000173,0.00011729,0.00001892,-0.00003754,-0.00008891
 ,0.00007983,0.00010838,-0.00012184,-0.00029978,-0.00014979,0.00026570,
 0.00054327,0.00027949,-0.00043263,0.00074027,-0.00041137,-0.00119832,0
 .00005750,0.00092550,-0.00031843,-0.00033410,0.00053055,-0.00113061,-0
 .00243285,0.00106708,0.00185458,-0.00383073,-0.00068659,-0.01559443,-0
 .00563450,-0.02155968,-0.04171753,-0.06407443,-0.05405903,0.01403881,0
 .00655225,0.01753260,-0.00002628,-0.00016437,-0.00015357,0.00008930,0.
 00009649,-0.00006964,-0.00000645,0.00003747,0.00000383,0.00002612,0.00
 006703,-0.00000699,0.00000221,-0.00012673,-0.00003583,0.00000005,-0.00
 000045,0.,-0.00000009,0.00000014,0.00000036,-0.00000153,0.00000024,0.0
 0000067,-0.00000001,-0.00000066,-0.00000067,-0.00000056,-0.00000021,0.
 00000026,0.00000109,-0.00000080,0.00000032,0.00003911,-0.00000310,0.00
 004446,-0.00021831,-0.00014258,0.00010807,0.00195266,0.00082850,-0.000
 14052,0.00054479,0.00014911,0.00075903,-0.00302586,-0.00070848,-0.0036
 0388,0.04495159,0.06857305,-0.00000106,0.00000583,-0.00000005,-0.00000
 907,0.00001300,0.00001949,-0.00001342,-0.00001647,0.00000489,0.0000066
 7,-0.00001246,-0.00000730,0.00000394,0.00002902,0.00001022,0.00005083,
 0.00004783,-0.00004170,-0.00007608,0.00000790,0.00009212,0.00000401,-0
 .00007799,-0.00002935,0.00001178,0.00008244,0.00001830,0.00000708,-0.0
 0000867,-0.00001566,0.00006949,-0.00000240,-0.00006325,-0.00012046,0.0
 0004091,0.00015480,-0.00002307,-0.00012402,0.00001624,-0.00053343,0.00
 029929,-0.00000486,0.00103892,-0.00131235,0.00059607,0.00084027,-0.000
 17774,-0.00049979,0.00045980,0.00068892,-0.00100155,-0.00091485,0.0012
 2499,-0.00105703,-0.00012266,-0.00130835,0.00028826,-0.00454586,-0.004
 58211,-0.01053401,-0.11756568,-0.05371479,-0.19129602,-0.01083077,-0.0
 0395690,-0.01744157,-0.00016783,0.00025534,-0.00002154,-0.00006676,0.0
 0001894,-0.00000162,-0.00000393,0.00000272,0.00004999,-0.00001428,0.00
 000329,-0.00000316,0.00004502,0.00002415,0.00005014,0.00000128,-0.0000
 0029,-0.00000238,0.00000187,-0.00000049,-0.00000245,-0.00000004,0.0000
 0010,-0.00000009,-0.00000164,0.00000308,0.00000280,0.00000024,-0.00000
 040,-0.00000218,-0.00000185,0.00000401,0.00000076,-0.00002174,-0.00001
 364,-0.00002078,0.00022697,0.00020769,-0.00007354,0.00087859,0.0002176
 1,-0.00018281,0.00032903,-0.00027579,0.00016175,0.00606241,0.00284959,
 0.00870752,0.12499631,0.05955821,0.21212934\\-0.00000504,0.00000042,-0
 .00000329,0.00000460,-0.00000159,0.00000266,-0.00000077,0.00000146,0.0
 0000235,0.00000454,0.00000492,0.00000097,-0.00000918,-0.00000351,0.000
 00408,0.00000951,-0.00000867,-0.00000247,-0.00000231,0.00000273,0.0000
 0133,-0.00000216,0.00000750,-0.00000257,-0.00000112,-0.00000787,-0.000
 00025,0.00000115,0.00000413,-0.00000088,0.00000160,-0.00000409,0.00000
 169,0.00000039,-0.00000197,-0.00000057,0.00000333,0.00000157,0.0000024
 2,-0.00000470,0.00000364,0.00000305,0.00000225,-0.00000648,-0.00000277
 ,-0.00000223,-0.00000178,0.00000516,0.00000095,0.00000490,-0.00000577,
 -0.00000158,-0.00000256,0.00000453,0.00000029,0.00000233,-0.00000168,0
 .00000213,-0.00000492,-0.00000208,-0.00000325,0.00000555,0.00000558,0.
 00000234,0.00000359,-0.00000179,0.00000042,-0.00000535,-0.00000137,0.0
 0000188,0.00000092,-0.00000164,0.00000275,0.00000218,-0.00000240,0.000
 00135,0.00000121,0.00000129,-0.00000755,0.00000640,0.00000123,0.000004
 22,0.00000015,-0.00000077,-0.00000040,-0.00000051,0.00000497,-0.000004
 24,0.00000096,-0.00000318,0.00000085,-0.00000034,0.00000021,-0.0000002
 9,0.00000027,-0.00000035,0.00000254,-0.00000134,-0.00000099,-0.0000010
 2,-0.00000090,-0.00000192,-0.00000052,-0.00000110,-0.00000019,-0.00000
 040,-0.00000074,0.,-0.00000071,0.00000040,0.00000023,-0.00000177,-0.00
 000091,-0.00000210,0.00000217,-0.00000059,-0.00000268\\\@


 MY GROUP MEETINGS AREN'T VERY STRUCTURED.
     -- PROF. M. S. GORDON, OCT. 5, 1984
 Job cpu time:  0 days 15 hours  6 minutes 54.3 seconds.
 File lengths (MBytes):  RWF=   1484 Int=      0 D2E=      0 Chk=     25 Scr=      1
 Normal termination of Gaussian 09 at Mon Dec 30 01:28:55 2013.
