 Entering Gaussian System, Link 0=g09
 Initial command:
 /opt/gaussian/g09/l1.exe /panfs/panfs.cluster/home/shuo/Gau-4205.inp -scrdir=/panfs/panfs.cluster/home/shuo/
 Default is to use a total of  12 processors:
                               12 via shared-memory
                                1 via Linda
 Entering Link 1 = /opt/gaussian/g09/l1.exe PID=      4206.
  
 Copyright (c) 1988,1990,1992,1993,1995,1998,2003,2009,2011,
            Gaussian, Inc.  All Rights Reserved.
  
 This is part of the Gaussian(R) 09 program.  It is based on
 the Gaussian(R) 03 system (copyright 2003, Gaussian, Inc.),
 the Gaussian(R) 98 system (copyright 1998, Gaussian, Inc.),
 the Gaussian(R) 94 system (copyright 1995, Gaussian, Inc.),
 the Gaussian 92(TM) system (copyright 1992, Gaussian, Inc.),
 the Gaussian 90(TM) system (copyright 1990, Gaussian, Inc.),
 the Gaussian 88(TM) system (copyright 1988, Gaussian, Inc.),
 the Gaussian 86(TM) system (copyright 1986, Carnegie Mellon
 University), and the Gaussian 82(TM) system (copyright 1983,
 Carnegie Mellon University). Gaussian is a federally registered
 trademark of Gaussian, Inc.
  
 This software contains proprietary and confidential information,
 including trade secrets, belonging to Gaussian, Inc.
  
 This software is provided under written license and may be
 used, copied, transmitted, or stored only in accord with that
 written license.
  
 The following legend is applicable only to US Government
 contracts under FAR:
  
                    RESTRICTED RIGHTS LEGEND
  
 Use, reproduction and disclosure by the US Government is
 subject to restrictions as set forth in subparagraphs (a)
 and (c) of the Commercial Computer Software - Restricted
 Rights clause in FAR 52.227-19.
  
 Gaussian, Inc.
 340 Quinnipiac St., Bldg. 40, Wallingford CT 06492
  
  
 ---------------------------------------------------------------
 Warning -- This program may not be used in any manner that
 competes with the business of Gaussian, Inc. or will provide
 assistance to any competitor of Gaussian, Inc.  The licensee
 of this program is prohibited from giving any competitor of
 Gaussian, Inc. access to this program.  By using this program,
 the user acknowledges that Gaussian, Inc. is engaged in the
 business of creating and licensing software in the field of
 computational chemistry and represents and warrants to the
 licensee that it is not a competitor of Gaussian, Inc. and that
 it will not use this program in any manner prohibited above.
 ---------------------------------------------------------------
  

 Cite this work as:
 Gaussian 09, Revision C.01,
 M. J. Frisch, G. W. Trucks, H. B. Schlegel, G. E. Scuseria, 
 M. A. Robb, J. R. Cheeseman, G. Scalmani, V. Barone, B. Mennucci, 
 G. A. Petersson, H. Nakatsuji, M. Caricato, X. Li, H. P. Hratchian, 
 A. F. Izmaylov, J. Bloino, G. Zheng, J. L. Sonnenberg, M. Hada, 
 M. Ehara, K. Toyota, R. Fukuda, J. Hasegawa, M. Ishida, T. Nakajima, 
 Y. Honda, O. Kitao, H. Nakai, T. Vreven, J. A. Montgomery, Jr., 
 J. E. Peralta, F. Ogliaro, M. Bearpark, J. J. Heyd, E. Brothers, 
 K. N. Kudin, V. N. Staroverov, T. Keith, R. Kobayashi, J. Normand, 
 K. Raghavachari, A. Rendell, J. C. Burant, S. S. Iyengar, J. Tomasi, 
 M. Cossi, N. Rega, J. M. Millam, M. Klene, J. E. Knox, J. B. Cross, 
 V. Bakken, C. Adamo, J. Jaramillo, R. Gomperts, R. E. Stratmann, 
 O. Yazyev, A. J. Austin, R. Cammi, C. Pomelli, J. W. Ochterski, 
 R. L. Martin, K. Morokuma, V. G. Zakrzewski, G. A. Voth, 
 P. Salvador, J. J. Dannenberg, S. Dapprich, A. D. Daniels, 
 O. Farkas, J. B. Foresman, J. V. Ortiz, J. Cioslowski, 
 and D. J. Fox, Gaussian, Inc., Wallingford CT, 2010.
 
 ******************************************
 Gaussian 09:  EM64L-G09RevC.01 23-Sep-2011
                29-Dec-2013 
 ******************************************
 %chk=48_C19H11N5S2SeSi.chk
 %NProcShared=12
 Will use up to   12 processors via shared memory.
 %Mem=8000MB
 Default route:  MaxDisk=100GB
 --------------------------------------------
 #B3LYP/6-31++G(d,p) opt scf=direct freq test
 --------------------------------------------
 1/14=-1,18=20,19=15,26=3,38=1/1,3;
 2/9=110,12=2,17=6,18=5,40=1/2;
 3/5=1,6=6,7=1111,11=2,16=1,25=1,30=1,71=1,74=-5/1,2,3;
 4//1;
 5/5=2,38=5/2;
 6/7=2,8=2,9=2,10=2,28=1/1;
 7//1,2,3,16;
 1/14=-1,18=20,19=15/3(2);
 2/9=110/2;
 99//99;
 2/9=110/2;
 3/5=1,6=6,7=1111,11=2,16=1,25=1,30=1,71=1,74=-5/1,2,3;
 4/5=5,16=3/1;
 5/5=2,38=5/2;
 7//1,2,3,16;
 1/14=-1,18=20,19=15/3(-5);
 2/9=110/2;
 6/7=2,8=2,9=2,10=2,19=2,28=1/1;
 99/9=1/99;
 ----------------------------------------------------------------------
 Geom opt of No.48 candidate from the CEPDB database with SMILE code of
  [SiH2]1ccc2c1csc2-c1sc(-c2ccc(-c3ncncn3)c3nsnc23)c2[Se]ccc12, HPC, 20
 131227, Shuo Dai, Gaussian09
 ----------------------------------------------------------------------
 Charge =  0 Multiplicity = 1
 Symbolic Z-Matrix:
 Si                   -1.249     1.158    -0.004 
 H                    -1.51127   1.97517  -1.13531 
 H                    -1.50254   1.94626   1.14959 
 C                    -2.094    -0.044     0.002 
 C                    -1.292    -1.075     0. 
 C                    -0.015    -0.662     0. 
 C                     0.021     0.714     0.002 
 C                     1.349     1.058     0.001 
 S                     2.041    -0.071     0. 
 C                     1.242    -1.078    -0.001 
 C                     1.65524  -2.46161  -0.00293 
 S                     0.85583  -3.46825   0.0051 
 C                     1.5473   -4.59756  -0.00088 
 C                     1.00612  -5.93631   0.00362 
 C                     1.83166  -7.0054    0.00247 
 C                     1.35006  -8.27626   0.00015 
 C                     0.02288  -8.53245   0.01111 
 C                    -0.45201  -9.8961    0.02016 
 N                     0.44245  -10.94742  -0.00223 
 C                     0.01454  -12.2001   0.00627 
 N                    -1.27493  -12.49169   0.04235 
 C                    -2.22579  -11.48978   0.06621 
 N                    -1.81266  -10.16553   0.05205 
 C                    -0.88705  -7.47344   0.01364 
 N                    -2.22616  -7.37413   0.01849 
 S                    -2.54781  -6.09655   0.01933 
 N                    -1.45762  -5.34362   0.0132 
 C                    -0.38973  -6.14003   0.00986 
 C                     2.87541  -4.25415  -0.01216 
 Se                    4.1451   -4.69871  -0.03024 
 C                     4.99065  -3.49709  -0.03162 
 C                     4.18913  -2.46573  -0.02566 
 C                     2.912    -2.87816  -0.01388 
 H                    -3.12569  -0.06895   0.00687 
 H                    -1.59544  -2.06138  -0.00138 
 H                     1.73536   2.01495   0.00102 
 H                     2.85243  -6.85357   0.00336 
 H                     2.01454  -9.06581  -0.01023 
 H                     0.70389  -12.96778  -0.01581 
 H                    -3.23059  -11.72347   0.0942 
 H                     6.02235  -3.47259  -0.0364 
 H                     4.49299  -1.47948  -0.02944 
 

 GradGradGradGradGradGradGradGradGradGradGradGradGradGradGradGradGradGrad
 Berny optimization.
 Initialization pass.
                           ----------------------------
                           !    Initial Parameters    !
                           ! (Angstroms and Degrees)  !
 --------------------------                            --------------------------
 ! Name  Definition              Value          Derivative Info.                !
 --------------------------------------------------------------------------------
 ! R1    R(1,2)                  1.42           estimate D2E/DX2                !
 ! R2    R(1,3)                  1.42           estimate D2E/DX2                !
 ! R3    R(1,4)                  1.4693         estimate D2E/DX2                !
 ! R4    R(1,5)                  2.2334         estimate D2E/DX2                !
 ! R5    R(1,6)                  2.1989         estimate D2E/DX2                !
 ! R6    R(1,7)                  1.3454         estimate D2E/DX2                !
 ! R7    R(4,5)                  1.3062         estimate D2E/DX2                !
 ! R8    R(4,34)                 1.032          estimate D2E/DX2                !
 ! R9    R(5,6)                  1.3421         estimate D2E/DX2                !
 ! R10   R(5,35)                 1.032          estimate D2E/DX2                !
 ! R11   R(6,7)                  1.3765         estimate D2E/DX2                !
 ! R12   R(6,9)                  2.1393         estimate D2E/DX2                !
 ! R13   R(6,10)                 1.324          estimate D2E/DX2                !
 ! R14   R(7,8)                  1.3718         estimate D2E/DX2                !
 ! R15   R(7,9)                  2.1672         estimate D2E/DX2                !
 ! R16   R(8,9)                  1.3242         estimate D2E/DX2                !
 ! R17   R(8,36)                 1.032          estimate D2E/DX2                !
 ! R18   R(9,10)                 1.2855         estimate D2E/DX2                !
 ! R19   R(10,11)                1.444          estimate D2E/DX2                !
 ! R20   R(11,12)                1.2855         estimate D2E/DX2                !
 ! R21   R(11,33)                1.324          estimate D2E/DX2                !
 ! R22   R(12,13)                1.3242         estimate D2E/DX2                !
 ! R23   R(12,29)                2.1672         estimate D2E/DX2                !
 ! R24   R(12,33)                2.1393         estimate D2E/DX2                !
 ! R25   R(13,14)                1.444          estimate D2E/DX2                !
 ! R26   R(13,29)                1.3718         estimate D2E/DX2                !
 ! R27   R(14,15)                1.3507         estimate D2E/DX2                !
 ! R28   R(14,28)                1.4107         estimate D2E/DX2                !
 ! R29   R(15,16)                1.3591         estimate D2E/DX2                !
 ! R30   R(15,37)                1.032          estimate D2E/DX2                !
 ! R31   R(16,17)                1.3517         estimate D2E/DX2                !
 ! R32   R(16,38)                1.032          estimate D2E/DX2                !
 ! R33   R(17,18)                1.444          estimate D2E/DX2                !
 ! R34   R(17,24)                1.3962         estimate D2E/DX2                !
 ! R35   R(18,19)                1.3805         estimate D2E/DX2                !
 ! R36   R(18,23)                1.3874         estimate D2E/DX2                !
 ! R37   R(19,20)                1.3238         estimate D2E/DX2                !
 ! R38   R(20,21)                1.3225         estimate D2E/DX2                !
 ! R39   R(20,39)                1.032          estimate D2E/DX2                !
 ! R40   R(21,22)                1.3815         estimate D2E/DX2                !
 ! R41   R(22,23)                1.3873         estimate D2E/DX2                !
 ! R42   R(22,40)                1.032          estimate D2E/DX2                !
 ! R43   R(24,25)                1.3428         estimate D2E/DX2                !
 ! R44   R(24,26)                2.1573         estimate D2E/DX2                !
 ! R45   R(24,28)                1.4231         estimate D2E/DX2                !
 ! R46   R(25,26)                1.3174         estimate D2E/DX2                !
 ! R47   R(26,27)                1.3249         estimate D2E/DX2                !
 ! R48   R(26,28)                2.1585         estimate D2E/DX2                !
 ! R49   R(27,28)                1.3322         estimate D2E/DX2                !
 ! R50   R(29,30)                1.3454         estimate D2E/DX2                !
 ! R51   R(29,33)                1.3765         estimate D2E/DX2                !
 ! R52   R(30,31)                1.4693         estimate D2E/DX2                !
 ! R53   R(30,32)                2.2334         estimate D2E/DX2                !
 ! R54   R(30,33)                2.1989         estimate D2E/DX2                !
 ! R55   R(31,32)                1.3062         estimate D2E/DX2                !
 ! R56   R(31,41)                1.032          estimate D2E/DX2                !
 ! R57   R(32,33)                1.3421         estimate D2E/DX2                !
 ! R58   R(32,42)                1.032          estimate D2E/DX2                !
 ! A1    A(2,1,3)              107.1453         estimate D2E/DX2                !
 ! A2    A(2,1,4)              111.5806         estimate D2E/DX2                !
 ! A3    A(2,1,5)              124.976          estimate D2E/DX2                !
 ! A4    A(2,1,6)              125.5496         estimate D2E/DX2                !
 ! A5    A(2,1,7)              111.5809         estimate D2E/DX2                !
 ! A6    A(3,1,4)              110.3724         estimate D2E/DX2                !
 ! A7    A(3,1,5)              123.3749         estimate D2E/DX2                !
 ! A8    A(3,1,6)              123.93           estimate D2E/DX2                !
 ! A9    A(3,1,7)              110.3722         estimate D2E/DX2                !
 ! A10   A(4,1,6)               69.2449         estimate D2E/DX2                !
 ! A11   A(4,1,7)              105.8357         estimate D2E/DX2                !
 ! A12   A(5,1,7)               71.833          estimate D2E/DX2                !
 ! A13   A(1,4,34)             126.4929         estimate D2E/DX2                !
 ! A14   A(5,4,34)             126.4935         estimate D2E/DX2                !
 ! A15   A(1,5,35)             164.0027         estimate D2E/DX2                !
 ! A16   A(4,5,6)              109.9569         estimate D2E/DX2                !
 ! A17   A(4,5,35)             125.0218         estimate D2E/DX2                !
 ! A18   A(6,5,35)             125.0214         estimate D2E/DX2                !
 ! A19   A(1,6,9)              108.1007         estimate D2E/DX2                !
 ! A20   A(1,6,10)             142.4497         estimate D2E/DX2                !
 ! A21   A(5,6,7)              109.4206         estimate D2E/DX2                !
 ! A22   A(5,6,10)             143.7662         estimate D2E/DX2                !
 ! A23   A(7,6,10)             106.8132         estimate D2E/DX2                !
 ! A24   A(1,7,8)              146.2064         estimate D2E/DX2                !
 ! A25   A(6,7,8)              106.0211         estimate D2E/DX2                !
 ! A26   A(7,8,36)             126.5084         estimate D2E/DX2                !
 ! A27   A(9,8,36)             126.5086         estimate D2E/DX2                !
 ! A28   A(6,9,8)               74.5319         estimate D2E/DX2                !
 ! A29   A(7,9,10)              72.8068         estimate D2E/DX2                !
 ! A30   A(8,9,10)             110.0645         estimate D2E/DX2                !
 ! A31   A(6,10,11)            124.941          estimate D2E/DX2                !
 ! A32   A(9,10,11)            124.9407         estimate D2E/DX2                !
 ! A33   A(10,11,12)           124.915          estimate D2E/DX2                !
 ! A34   A(10,11,33)           124.9662         estimate D2E/DX2                !
 ! A35   A(11,12,13)           110.0644         estimate D2E/DX2                !
 ! A36   A(11,12,29)            72.8066         estimate D2E/DX2                !
 ! A37   A(13,12,33)            74.5322         estimate D2E/DX2                !
 ! A38   A(12,13,14)           126.5088         estimate D2E/DX2                !
 ! A39   A(14,13,29)           126.5083         estimate D2E/DX2                !
 ! A40   A(13,14,15)           120.314          estimate D2E/DX2                !
 ! A41   A(13,14,28)           120.3146         estimate D2E/DX2                !
 ! A42   A(15,14,28)           119.3713         estimate D2E/DX2                !
 ! A43   A(14,15,16)           121.5706         estimate D2E/DX2                !
 ! A44   A(14,15,37)           119.2147         estimate D2E/DX2                !
 ! A45   A(16,15,37)           119.2147         estimate D2E/DX2                !
 ! A46   A(15,16,17)           121.678          estimate D2E/DX2                !
 ! A47   A(15,16,38)           119.1612         estimate D2E/DX2                !
 ! A48   A(17,16,38)           119.1608         estimate D2E/DX2                !
 ! A49   A(16,17,18)           120.1279         estimate D2E/DX2                !
 ! A50   A(16,17,24)           119.7443         estimate D2E/DX2                !
 ! A51   A(18,17,24)           120.1278         estimate D2E/DX2                !
 ! A52   A(17,18,19)           120.3965         estimate D2E/DX2                !
 ! A53   A(17,18,23)           120.4012         estimate D2E/DX2                !
 ! A54   A(19,18,23)           119.2023         estimate D2E/DX2                !
 ! A55   A(18,19,20)           120.7369         estimate D2E/DX2                !
 ! A56   A(19,20,21)           121.6            estimate D2E/DX2                !
 ! A57   A(19,20,39)           119.2003         estimate D2E/DX2                !
 ! A58   A(21,20,39)           119.1997         estimate D2E/DX2                !
 ! A59   A(20,21,22)           120.7741         estimate D2E/DX2                !
 ! A60   A(21,22,23)           119.153          estimate D2E/DX2                !
 ! A61   A(21,22,40)           120.4235         estimate D2E/DX2                !
 ! A62   A(23,22,40)           120.4235         estimate D2E/DX2                !
 ! A63   A(18,23,22)           118.5325         estimate D2E/DX2                !
 ! A64   A(17,24,25)           134.9115         estimate D2E/DX2                !
 ! A65   A(17,24,28)           118.8755         estimate D2E/DX2                !
 ! A66   A(25,24,28)           106.213          estimate D2E/DX2                !
 ! A67   A(24,26,27)            74.2912         estimate D2E/DX2                !
 ! A68   A(25,26,27)           110.4988         estimate D2E/DX2                !
 ! A69   A(25,26,28)            74.7144         estimate D2E/DX2                !
 ! A70   A(14,28,24)           118.7578         estimate D2E/DX2                !
 ! A71   A(14,28,27)           134.9818         estimate D2E/DX2                !
 ! A72   A(24,28,27)           106.2604         estimate D2E/DX2                !
 ! A73   A(13,29,30)           146.2065         estimate D2E/DX2                !
 ! A74   A(13,29,33)           106.0207         estimate D2E/DX2                !
 ! A75   A(29,30,31)           105.8356         estimate D2E/DX2                !
 ! A76   A(29,30,32)            71.8329         estimate D2E/DX2                !
 ! A77   A(31,30,33)            69.2448         estimate D2E/DX2                !
 ! A78   A(30,31,41)           126.4933         estimate D2E/DX2                !
 ! A79   A(32,31,41)           126.4928         estimate D2E/DX2                !
 ! A80   A(30,32,42)           164.0024         estimate D2E/DX2                !
 ! A81   A(31,32,33)           109.9569         estimate D2E/DX2                !
 ! A82   A(31,32,42)           125.0218         estimate D2E/DX2                !
 ! A83   A(33,32,42)           125.0214         estimate D2E/DX2                !
 ! A84   A(11,33,29)           106.8132         estimate D2E/DX2                !
 ! A85   A(11,33,30)           142.4495         estimate D2E/DX2                !
 ! A86   A(11,33,32)           143.7666         estimate D2E/DX2                !
 ! A87   A(12,33,30)           108.1007         estimate D2E/DX2                !
 ! A88   A(29,33,32)           109.4202         estimate D2E/DX2                !
 ! A89   L(5,6,9,1,-1)         181.8846         estimate D2E/DX2                !
 ! A90   L(1,7,9,5,-1)         178.033          estimate D2E/DX2                !
 ! A91   L(17,24,26,11,-1)     189.6688         estimate D2E/DX2                !
 ! A92   L(14,28,26,1,-1)      170.5424         estimate D2E/DX2                !
 ! A93   L(12,29,30,32,-1)     178.0329         estimate D2E/DX2                !
 ! A94   L(12,33,32,8,-1)      178.1157         estimate D2E/DX2                !
 ! A95   L(5,6,9,1,-2)         180.0038         estimate D2E/DX2                !
 ! A96   L(1,7,9,5,-2)         179.68           estimate D2E/DX2                !
 ! A97   L(17,24,26,11,-2)     180.0112         estimate D2E/DX2                !
 ! A98   L(14,28,26,1,-2)      180.0181         estimate D2E/DX2                !
 ! A99   L(12,29,30,32,-2)     180.3197         estimate D2E/DX2                !
 ! A100  L(12,33,32,8,-2)      179.9998         estimate D2E/DX2                !
 ! D1    D(2,1,4,34)           -58.9389         estimate D2E/DX2                !
 ! D2    D(3,1,4,34)            60.0771         estimate D2E/DX2                !
 ! D3    D(6,1,4,34)           179.814          estimate D2E/DX2                !
 ! D4    D(7,1,4,34)           179.5048         estimate D2E/DX2                !
 ! D5    D(2,1,5,35)           -75.5432         estimate D2E/DX2                !
 ! D6    D(3,1,5,35)            77.5409         estimate D2E/DX2                !
 ! D7    D(7,1,5,35)          -179.5993         estimate D2E/DX2                !
 ! D8    D(2,1,6,9)             77.8999         estimate D2E/DX2                !
 ! D9    D(2,1,6,10)            77.7274         estimate D2E/DX2                !
 ! D10   D(3,1,6,9)            -78.6524         estimate D2E/DX2                !
 ! D11   D(3,1,6,10)           -78.8249         estimate D2E/DX2                !
 ! D12   D(4,1,6,9)           -179.8234         estimate D2E/DX2                !
 ! D13   D(4,1,6,10)          -179.9959         estimate D2E/DX2                !
 ! D14   D(2,1,7,8)             58.3026         estimate D2E/DX2                !
 ! D15   D(3,1,7,8)            -60.7134         estimate D2E/DX2                !
 ! D16   D(4,1,7,8)            179.8588         estimate D2E/DX2                !
 ! D17   D(5,1,7,8)            179.5673         estimate D2E/DX2                !
 ! D18   D(2,1,9,10)          -120.7627         estimate D2E/DX2                !
 ! D19   D(3,1,9,10)           119.4014         estimate D2E/DX2                !
 ! D20   D(4,1,9,10)             0.2845         estimate D2E/DX2                !
 ! D21   D(5,1,9,10)             0.1115         estimate D2E/DX2                !
 ! D22   D(34,4,5,6)          -179.6967         estimate D2E/DX2                !
 ! D23   D(34,4,5,35)            0.3035         estimate D2E/DX2                !
 ! D24   D(4,5,6,7)             -0.0051         estimate D2E/DX2                !
 ! D25   D(4,5,6,10)           179.9799         estimate D2E/DX2                !
 ! D26   D(35,5,6,7)           179.9947         estimate D2E/DX2                !
 ! D27   D(35,5,6,10)           -0.0203         estimate D2E/DX2                !
 ! D28   D(4,5,9,8)             -0.0493         estimate D2E/DX2                !
 ! D29   D(35,5,9,8)           179.9525         estimate D2E/DX2                !
 ! D30   D(5,6,7,8)           -179.962          estimate D2E/DX2                !
 ! D31   D(10,6,7,8)             0.0473         estimate D2E/DX2                !
 ! D32   D(1,6,9,8)              0.1545         estimate D2E/DX2                !
 ! D33   D(1,6,10,11)         -179.7095         estimate D2E/DX2                !
 ! D34   D(5,6,10,11)            0.0041         estimate D2E/DX2                !
 ! D35   D(7,6,10,11)          179.9893         estimate D2E/DX2                !
 ! D36   D(1,7,8,36)             0.5541         estimate D2E/DX2                !
 ! D37   D(6,7,8,36)           179.9337         estimate D2E/DX2                !
 ! D38   D(36,8,9,6)          -179.9574         estimate D2E/DX2                !
 ! D39   D(36,8,9,10)         -179.9377         estimate D2E/DX2                !
 ! D40   D(7,9,10,11)         -179.9931         estimate D2E/DX2                !
 ! D41   D(8,9,10,11)          179.9675         estimate D2E/DX2                !
 ! D42   D(6,10,11,12)          -0.4906         estimate D2E/DX2                !
 ! D43   D(6,10,11,33)         179.4746         estimate D2E/DX2                !
 ! D44   D(9,10,11,12)         179.5092         estimate D2E/DX2                !
 ! D45   D(9,10,11,33)          -0.5255         estimate D2E/DX2                !
 ! D46   D(10,11,12,13)        179.937          estimate D2E/DX2                !
 ! D47   D(10,11,12,29)        179.9763         estimate D2E/DX2                !
 ! D48   D(10,11,33,29)       -179.98           estimate D2E/DX2                !
 ! D49   D(10,11,33,30)       -179.679          estimate D2E/DX2                !
 ! D50   D(10,11,33,32)          0.0338         estimate D2E/DX2                !
 ! D51   D(11,12,13,14)       -179.9381         estimate D2E/DX2                !
 ! D52   D(33,12,13,14)       -179.9578         estimate D2E/DX2                !
 ! D53   D(11,12,30,31)          0.2843         estimate D2E/DX2                !
 ! D54   D(11,12,30,32)          0.1112         estimate D2E/DX2                !
 ! D55   D(13,12,33,30)          0.1545         estimate D2E/DX2                !
 ! D56   D(12,13,14,15)       -179.7068         estimate D2E/DX2                !
 ! D57   D(12,13,14,28)          0.2649         estimate D2E/DX2                !
 ! D58   D(29,13,14,15)          0.2931         estimate D2E/DX2                !
 ! D59   D(29,13,14,28)       -179.7352         estimate D2E/DX2                !
 ! D60   D(14,13,29,30)          0.5539         estimate D2E/DX2                !
 ! D61   D(14,13,29,33)        179.9342         estimate D2E/DX2                !
 ! D62   D(13,14,15,16)       -179.6798         estimate D2E/DX2                !
 ! D63   D(13,14,15,37)          0.3192         estimate D2E/DX2                !
 ! D64   D(28,14,15,16)          0.3482         estimate D2E/DX2                !
 ! D65   D(28,14,15,37)       -179.6527         estimate D2E/DX2                !
 ! D66   D(13,14,26,25)        179.9339         estimate D2E/DX2                !
 ! D67   D(15,14,26,25)         -0.1037         estimate D2E/DX2                !
 ! D68   D(13,14,28,24)        179.9759         estimate D2E/DX2                !
 ! D69   D(13,14,28,27)         -0.0084         estimate D2E/DX2                !
 ! D70   D(15,14,28,24)         -0.0522         estimate D2E/DX2                !
 ! D71   D(15,14,28,27)        179.9635         estimate D2E/DX2                !
 ! D72   D(14,15,16,17)         -0.6091         estimate D2E/DX2                !
 ! D73   D(14,15,16,38)        179.3918         estimate D2E/DX2                !
 ! D74   D(37,15,16,17)        179.3918         estimate D2E/DX2                !
 ! D75   D(37,15,16,38)         -0.6073         estimate D2E/DX2                !
 ! D76   D(15,16,17,18)       -179.4528         estimate D2E/DX2                !
 ! D77   D(15,16,17,24)          0.5475         estimate D2E/DX2                !
 ! D78   D(38,16,17,18)          0.5463         estimate D2E/DX2                !
 ! D79   D(38,16,17,24)       -179.4534         estimate D2E/DX2                !
 ! D80   D(16,17,18,19)         -0.9594         estimate D2E/DX2                !
 ! D81   D(16,17,18,23)        179.0124         estimate D2E/DX2                !
 ! D82   D(24,17,18,19)        179.0403         estimate D2E/DX2                !
 ! D83   D(24,17,18,23)         -0.9879         estimate D2E/DX2                !
 ! D84   D(16,17,24,25)        179.713          estimate D2E/DX2                !
 ! D85   D(16,17,24,28)         -0.2447         estimate D2E/DX2                !
 ! D86   D(18,17,24,25)         -0.2867         estimate D2E/DX2                !
 ! D87   D(18,17,24,28)        179.7556         estimate D2E/DX2                !
 ! D88   D(16,17,26,27)         -0.2333         estimate D2E/DX2                !
 ! D89   D(18,17,26,27)        179.7891         estimate D2E/DX2                !
 ! D90   D(17,18,19,20)        179.9808         estimate D2E/DX2                !
 ! D91   D(23,18,19,20)          0.0087         estimate D2E/DX2                !
 ! D92   D(17,18,23,22)       -179.6939         estimate D2E/DX2                !
 ! D93   D(19,18,23,22)          0.2782         estimate D2E/DX2                !
 ! D94   D(18,19,20,21)         -0.3091         estimate D2E/DX2                !
 ! D95   D(18,19,20,39)        179.6898         estimate D2E/DX2                !
 ! D96   D(19,20,21,22)          0.3089         estimate D2E/DX2                !
 ! D97   D(39,20,21,22)       -179.69           estimate D2E/DX2                !
 ! D98   D(20,21,22,23)         -0.0083         estimate D2E/DX2                !
 ! D99   D(20,21,22,40)        179.991          estimate D2E/DX2                !
 ! D100  D(21,22,23,18)         -0.2784         estimate D2E/DX2                !
 ! D101  D(40,22,23,18)        179.7222         estimate D2E/DX2                !
 ! D102  D(17,24,28,14)          0.0031         estimate D2E/DX2                !
 ! D103  D(17,24,28,27)        179.9915         estimate D2E/DX2                !
 ! D104  D(25,24,28,14)       -179.9657         estimate D2E/DX2                !
 ! D105  D(25,24,28,27)          0.0228         estimate D2E/DX2                !
 ! D106  D(13,29,30,31)        179.859          estimate D2E/DX2                !
 ! D107  D(13,29,30,32)        179.5675         estimate D2E/DX2                !
 ! D108  D(13,29,33,11)          0.047          estimate D2E/DX2                !
 ! D109  D(13,29,33,32)       -179.9616         estimate D2E/DX2                !
 ! D110  D(29,30,31,41)        179.5052         estimate D2E/DX2                !
 ! D111  D(33,30,31,41)        179.814          estimate D2E/DX2                !
 ! D112  D(29,30,32,42)       -179.6005         estimate D2E/DX2                !
 ! D113  D(31,30,33,11)       -179.9961         estimate D2E/DX2                !
 ! D114  D(31,30,33,12)       -179.8236         estimate D2E/DX2                !
 ! D115  D(41,31,32,33)       -179.6966         estimate D2E/DX2                !
 ! D116  D(41,31,32,42)          0.3028         estimate D2E/DX2                !
 ! D117  D(31,32,33,11)        179.9801         estimate D2E/DX2                !
 ! D118  D(31,32,33,29)         -0.0059         estimate D2E/DX2                !
 ! D119  D(42,32,33,11)         -0.0192         estimate D2E/DX2                !
 ! D120  D(42,32,33,29)        179.9948         estimate D2E/DX2                !
 --------------------------------------------------------------------------------
 Trust Radius=3.00D-01 FncErr=1.00D-07 GrdErr=1.00D-06
 Number of steps in this run=    252 maximum allowed number of steps=    252.
 GradGradGradGradGradGradGradGradGradGradGradGradGradGradGradGradGradGrad

                          Input orientation:                          
 ---------------------------------------------------------------------
 Center     Atomic      Atomic             Coordinates (Angstroms)
 Number     Number       Type             X           Y           Z
 ---------------------------------------------------------------------
      1         14           0       -1.249000    1.158000   -0.004000
      2          1           0       -1.511270    1.975170   -1.135310
      3          1           0       -1.502540    1.946260    1.149590
      4          6           0       -2.094000   -0.044000    0.002000
      5          6           0       -1.292000   -1.075000    0.000000
      6          6           0       -0.015000   -0.662000    0.000000
      7          6           0        0.021000    0.714000    0.002000
      8          6           0        1.349000    1.058000    0.001000
      9         16           0        2.041000   -0.071000    0.000000
     10          6           0        1.242000   -1.078000   -0.001000
     11          6           0        1.655240   -2.461610   -0.002930
     12         16           0        0.855830   -3.468250    0.005100
     13          6           0        1.547300   -4.597560   -0.000880
     14          6           0        1.006120   -5.936310    0.003620
     15          6           0        1.831660   -7.005400    0.002470
     16          6           0        1.350060   -8.276260    0.000150
     17          6           0        0.022880   -8.532450    0.011110
     18          6           0       -0.452010   -9.896100    0.020160
     19          7           0        0.442450  -10.947420   -0.002230
     20          6           0        0.014540  -12.200100    0.006270
     21          7           0       -1.274930  -12.491690    0.042350
     22          6           0       -2.225790  -11.489780    0.066210
     23          7           0       -1.812660  -10.165530    0.052050
     24          6           0       -0.887050   -7.473440    0.013640
     25          7           0       -2.226160   -7.374130    0.018490
     26         16           0       -2.547810   -6.096550    0.019330
     27          7           0       -1.457620   -5.343620    0.013200
     28          6           0       -0.389730   -6.140030    0.009860
     29          6           0        2.875410   -4.254150   -0.012160
     30         34           0        4.145100   -4.698710   -0.030240
     31          6           0        4.990650   -3.497090   -0.031620
     32          6           0        4.189130   -2.465730   -0.025660
     33          6           0        2.912000   -2.878160   -0.013880
     34          1           0       -3.125690   -0.068950    0.006870
     35          1           0       -1.595440   -2.061380   -0.001380
     36          1           0        1.735360    2.014950    0.001020
     37          1           0        2.852430   -6.853570    0.003360
     38          1           0        2.014540   -9.065810   -0.010230
     39          1           0        0.703890  -12.967780   -0.015810
     40          1           0       -3.230590  -11.723470    0.094200
     41          1           0        6.022350   -3.472590   -0.036400
     42          1           0        4.492990   -1.479480   -0.029440
 ---------------------------------------------------------------------
                    Distance matrix (angstroms):
                    1          2          3          4          5
     1  Si   0.000000
     2  H    1.420005   0.000000
     3  H    1.420002   2.285100   0.000000
     4  C    1.469308   2.389581   2.372324   0.000000
     5  C    2.233418   3.261985   3.239428   1.306204   0.000000
     6  C    2.198902   3.237656   3.215175   2.168910   1.342124
     7  C    1.345389   2.287329   2.270815   2.246729   2.219120
     8  C    2.599929   3.211471   3.199929   3.615059   3.394786
     9  S    3.512059   4.253747   4.236457   4.135089   3.480935
    10  C    3.347355   4.264857   4.242936   3.492572   2.534002
    11  C    4.640710   5.567233   5.543392   4.461128   3.257134
    12  S    5.082576   6.044379   6.015703   4.519623   3.215718
    13  C    6.398889   7.337749   7.310724   5.830436   4.524384
    14  C    7.444116   8.380091   8.351140   6.658083   5.377146
    15  C    8.725343   9.649889   9.621070   7.991990   6.702753
    16  C    9.785724  10.703658  10.675133   8.923657   7.670634
    17  C    9.773573  10.680729  10.650183   8.748431   7.572489
    18  C   11.082820  11.974314  11.942392   9.988010   8.861027
    19  N   12.223019  13.118469  13.090327  11.194560  10.023622
    20  C   13.417730  14.302782  14.273339  12.337614  11.201560
    21  N   13.649793  14.516638  14.482133  12.474674  11.416781
    22  C   12.685637  13.537321  13.499036  11.446719  10.456768
    23  N   11.337689  12.202346  12.165370  10.125563   9.105577
    24  C    8.639044   9.538656   9.507889   7.526848   6.411256
    25  N    8.587933   9.447314   9.416617   7.331340   6.368048
    26  S    7.369935   8.219506   8.188826   6.069564   5.176234
    27  N    6.504989   7.408552   7.378059   5.337703   4.271852
    28  C    7.348454   8.271985   8.241688   6.329785   5.144776
    29  C    6.804571   7.701224   7.678619   6.513110   5.241607
    30  Se   7.962290   8.817958   8.800197   7.784198   6.534083
    31  C    7.784848   8.569640   8.554930   7.881448   6.733440
    32  C    6.534917   7.310778   7.296710   6.733741   5.654872
    33  C    5.796948   6.661662   6.642052   5.752630   4.574406
    34  H    2.242206   2.844179   2.828692   1.032003   2.091555
    35  H    3.237968   4.193640   4.170676   2.078075   1.032000
    36  H    3.104963   3.439976   3.436267   4.347790   4.325818
    37  H    9.000391   9.913884   9.885171   8.416497   7.111131
    38  H   10.732056  11.644758  11.618120   9.913289   8.647910
    39  H   14.260140  15.147672  15.121345  13.223184  12.059106
    40  H   13.033365  13.860754  13.818883  11.735006  10.823905
    41  H    8.620670   9.361684   9.348501   8.810893   7.697368
    42  H    6.318813   7.014891   7.005154   6.741664   5.799188
                    6          7          8          9         10
     6  C    0.000000
     7  C    1.376472   0.000000
     8  C    2.195199   1.371831   0.000000
     9  S    2.139256   2.167171   1.324200   0.000000
    10  C    1.324049   2.168436   2.138679   1.285477   0.000000
    11  C    2.455261   3.571451   3.532910   2.421536   1.444004
    12  S    2.938266   4.264759   4.553040   3.598050   2.421252
    13  C    4.234314   5.526506   5.659036   4.553404   3.532777
    14  C    5.372248   6.722878   7.002710   5.955909   4.864035
    15  C    6.606730   7.928911   8.077833   6.937560   5.956659
    16  C    7.735654   9.087969   9.334260   8.234300   7.199071
    17  C    7.870549   9.246455   9.681706   8.698797   7.553491
    18  C    9.244457  10.620654  11.101185  10.136474   8.979366
    19  N   10.295588  11.669034  12.039599  10.993265   9.901754
    20  C   11.538140  12.914102  13.325090  12.297221  11.189630
    21  N   11.896671  13.269187  13.801479  12.855766  11.687991
    22  C   11.051371  12.409046  13.047228  12.190095  10.974299
    23  N    9.672196  11.033086  11.660460  10.805227   9.587333
    24  C    6.867050   8.237649   8.819612   7.960514   6.740528
    25  N    7.066984   8.394513   9.158760   8.458410   7.188169
    26  S    5.995818   7.278920   8.146966   7.573956   6.288793
    27  N    4.898866   6.235479   6.989850   6.327799   5.048135
    28  C    5.490841   6.866330   7.405059   6.537711   5.318534
    29  C    4.610657   5.729779   5.527118   4.265575   3.571566
    30  Se   5.796755   6.804900   6.399911   5.083685   4.640947
    31  C    5.752849   6.513972   5.831940   4.521010   4.461537
    32  C    4.574802   5.242591   4.525895   3.217119   3.257603
    33  C    3.671360   4.611046   4.235156   2.939214   2.455533
    34  H    3.166725   3.242637   4.614423   5.166695   4.482740
    35  H    2.110937   3.211794   4.289553   4.145517   3.003016
    36  H    3.198409   2.152092   1.032002   2.108223   3.132052
    37  H    6.823321   8.079920   8.053151   6.830936   5.995891
    38  H    8.645413   9.980934  10.145669   8.994855   8.025086
    39  H   12.326771  13.698823  14.040618  12.965919  11.901960
    40  H   11.519766  12.855816  13.577456  12.789785  11.547258
    41  H    6.659605   7.317459   6.509059   5.236725   5.346687
    42  H    4.581606   4.981068   4.040347   2.827886   3.275810
                   11         12         13         14         15
    11  C    0.000000
    12  S    1.285475   0.000000
    13  C    2.138677   1.324201   0.000000
    14  C    3.534818   2.472632   1.444004   0.000000
    15  C    4.547217   3.669289   2.424575   1.350730   0.000000
    16  C    5.822654   4.833347   3.683984   2.365095   1.359054
    17  C    6.286485   5.132247   4.219877   2.776105   2.367201
    18  C    7.727398   6.559568   5.663233   4.219758   3.683966
    19  N    8.572038   7.490589   6.445263   5.042716   4.179647
    20  C    9.875736   8.772284   7.755515   6.341790   5.503349
    21  N   10.449423   9.271677   8.383564   6.941015   6.304908
    22  C    9.827259   8.593315   7.857697   6.425744   6.047861
    23  N    8.448653   7.209480   6.503416   5.082732   4.823893
    24  C    5.619782   4.367980   3.767885   2.438639   2.758726
    25  N    6.260877   4.975414   4.684946   3.537680   4.074570
    26  S    5.556880   4.300341   4.360884   3.557575   4.472812
    27  N    4.242186   2.978108   3.096183   2.534046   3.685240
    28  C    4.208662   2.947855   2.476169   1.410652   2.384008
    29  C    2.168433   2.167173   1.371836   2.514788   2.942619
    30  Se   3.347352   3.512062   2.599934   3.374314   3.267092
    31  C    3.492564   4.135084   3.615057   4.671993   4.721082
    32  C    2.533995   3.480931   3.394787   4.709282   5.115375
    33  C    1.324039   2.139253   2.195202   3.603466   4.266323
    34  H    5.346233   5.235241   6.507319   7.176195   8.525824
    35  H    3.275226   2.826314   4.038443   4.667250   6.015676
    36  H    4.477279   5.553294   6.615184   7.984631   9.020864
    37  H    4.552210   3.930242   2.606331   2.061608   1.032000
    38  H    6.613971   5.716251   4.492623   3.287989   2.068549
    39  H   10.549163   9.500768   8.412618   7.037989   6.068128
    40  H   10.472002   9.211700   8.579969   7.172805   6.920619
    41  H    4.482728   5.166688   4.614422   5.588746   5.481254
    42  H    3.003016   4.145520   4.289560   5.658859   6.133473
                   16         17         18         19         20
    16  C    0.000000
    17  C    1.351725   0.000000
    18  C    2.423167   1.444003   0.000000
    19  N    2.821145   2.451183   1.380519   0.000000
    20  C    4.144897   3.667663   2.350804   1.323777   0.000000
    21  N    4.966105   4.166638   2.723009   2.310011   1.322520
    22  C    4.808095   3.715556   2.385001   2.723664   2.351005
    23  N    3.684404   2.457200   1.387436   2.387429   2.735001
    24  C    2.376839   1.396238   2.461419   3.719726   4.811885
    25  N    3.688296   2.529810   3.083495   4.459855   5.320796
    26  S    4.465971   3.541486   4.339235   5.698514   6.619602
    27  N    4.060002   3.515753   4.662228   5.917185   7.012747
    28  C    2.755076   2.427740   3.756600   4.878900   6.073541
    29  C    4.301652   5.142112   6.550143   7.121745   8.445297
    30  Se   4.540048   5.629562   6.938935   7.263386   8.563510
    31  C    6.007942   7.073572   8.400747   8.728941  10.025243
    32  C    6.467089   7.359625   8.760861   9.272390  10.591798
    33  C    5.619550   6.349696   7.782622   8.438707   9.761877
    34  H    9.348386   9.030191  10.184381  11.448704  12.530995
    35  H    6.877551   6.670372   7.917748   9.116727  10.265756
    36  H   10.298420  10.685520  12.110246  13.026690  14.318830
    37  H    2.069100   3.290145   4.491836   4.750541   6.053017
    38  H    1.032003   2.061950   2.602724   2.451935   3.718070
    39  H    4.735837   4.487388   3.282166   2.037251   1.032000
    40  H    5.733625   4.557914   3.326450   3.755366   3.281124
    41  H    6.701259   7.848444   9.120418   9.327890  10.595519
    42  H    7.488331   8.350324   9.761915  10.298034  11.618497
                   21         22         23         24         25
    21  N    0.000000
    22  C    1.381495   0.000000
    23  N    2.387523   1.387269   0.000000
    24  C    5.033300   4.233908   2.847030   0.000000
    25  N    5.205269   4.115927   2.822060   1.342796   0.000000
    26  S    6.520626   5.403038   4.134987   2.157309   1.317448
    27  N    7.150464   6.194205   4.835119   2.204923   2.171095
    28  C    6.413129   5.656334   4.269796   1.423139   2.212590
    29  C    9.224173   8.853402   7.544968   4.951828   5.980069
    30  Se   9.492762   9.312152   8.086272   5.746615   6.910369
    31  C   10.962016  10.768922   9.526811   7.096532   8.192454
    32  C   11.418426  11.072178   9.762912   7.130660   8.077765
    33  C   10.485872  10.028125   8.685190   5.962394   6.827553
    34  H   12.559898  11.456382  10.181700   7.735504   7.360363
    35  H   10.435325   9.449690   8.107237   5.458245   5.350095
    36  H   14.815740  14.073830  12.686810   9.844122  10.190622
    37  H    6.987490   6.876533   5.721408   3.790522   5.105222
    38  H    4.749740   4.884862   3.982552   3.309900   4.565758
    39  H    2.036117   3.282413   3.766993   5.720116   6.314688
    40  H    2.101775   1.031997   2.107007   4.854011   4.464456
    41  H   11.601753  11.502942  10.304885   7.984304   9.124853
    42  H   12.431525  12.056420  10.733840   8.054455   8.938466
                   26         27         28         29         30
    26  S    0.000000
    27  N    1.324936   0.000000
    28  C    2.158539   1.332167   0.000000
    29  C    5.727717   4.467968   3.770699   0.000000
    30  Se   6.837504   5.639882   4.758539   1.345390   0.000000
    31  C    7.974219   6.707598   5.994609   2.246722   1.469302
    32  C    7.653185   6.337945   5.870920   2.219119   2.233419
    33  C    6.337875   5.017251   4.641312   1.376477   2.198910
    34  H    6.055251   5.532146   6.659091   7.316383   8.619770
    35  H    4.146087   3.285165   4.253146   4.979644   6.317447
    36  H    9.172912   8.021460   8.427324   6.371931   7.133096
    37  H    5.453066   4.566900   3.319756   2.599568   2.513075
    38  H    5.443567   5.090299   3.786965   4.888064   4.859141
    39  H    7.601881   7.924694   6.914827   8.980137   8.956542
    40  H    5.668688   6.622120   6.265174   9.648072  10.186439
    41  H    8.963030   7.710588   6.944937   3.242631   2.242203
    42  H    8.419773   7.095291   6.750054   3.211800   3.237973
                   31         32         33         34         35
    31  C    0.000000
    32  C    1.306206   0.000000
    33  C    2.168911   1.342125   0.000000
    34  H    8.810709   7.697545   6.659264   0.000000
    35  H    6.740828   5.798736   4.580862   2.512272   0.000000
    36  H    6.401606   5.108639   5.032617   5.288902   5.264095
    37  H    3.979845   4.587020   3.975894   9.042621   6.538246
    38  H    6.314137   6.949110   6.252396  10.361744   7.879979
    39  H   10.395698  11.065263  10.328416  13.455334  11.146151
    40  H   11.630905  11.864753  10.769522  11.655319   9.799941
    41  H    1.032002   2.091549   3.166722   9.760803   7.747481
    42  H    2.078081   1.032005   2.110942   7.748238   6.116239
                   36         37         38         39         40
    36  H    0.000000
    37  H    8.938596   0.000000
    38  H   11.084282   2.365639   0.000000
    39  H   15.018203   6.480753   4.116212   0.000000
    40  H   14.608680   7.792773   5.880940   4.128019   0.000000
    41  H    6.963676   4.634760   6.880940  10.883247  12.398023
    42  H    4.451572   5.619017   7.980945  12.097045  12.829977
                   41         42
    41  H    0.000000
    42  H    2.512265   0.000000
 Stoichiometry    C21H11N5S3SeSi
 Framework group  C1[X(C21H11N5S3SeSi)]
 Deg. of freedom   120
 Full point group                 C1      NOp   1
 Largest Abelian subgroup         C1      NOp   1
 Largest concise Abelian subgroup C1      NOp   1
                         Standard orientation:                         
 ---------------------------------------------------------------------
 Center     Atomic      Atomic             Coordinates (Angstroms)
 Number     Number       Type             X           Y           Z
 ---------------------------------------------------------------------
      1         14           0       -5.406436   -2.955868   -0.009778
      2          1           0       -6.169979   -3.346570   -1.141489
      3          1           0       -6.136143   -3.348560    1.143359
      4          6           0       -4.077428   -3.582444   -0.012025
      5          6           0       -3.199082   -2.615659   -0.010080
      6          6           0       -3.824752   -1.428336   -0.000127
      7          6           0       -5.186564   -1.628645    0.004592
      8          6           0       -5.752995   -0.379248    0.013790
      9         16           0       -4.759250    0.495951    0.015765
     10          6           0       -3.630259   -0.118670    0.007199
     11          6           0       -2.337915    0.525529    0.005778
     12         16           0       -1.209182   -0.089619    0.006240
     13          6           0       -0.215056    0.785145    0.003231
     14          6           0        1.196624    0.481330    0.001433
     15          6           0        2.108466    1.477827    0.004329
     16          6           0        3.443033    1.221124   -0.003737
     17          6           0        3.922842   -0.042578   -0.002812
     18          6           0        5.347710   -0.276850    0.000373
     19          7           0        6.230174    0.784646   -0.017441
     20          6           0        7.537663    0.577649   -0.014268
     21          7           0        8.045964   -0.643007    0.011985
     22          6           0        7.221846   -1.751612    0.030774
     23          7           0        5.846360   -1.571400    0.021962
     24          6           0        3.035392   -1.120498   -0.004955
     25          7           0        3.166985   -2.456823   -0.009591
     26         16           0        1.963408   -2.992613   -0.008788
     27          7           0        1.034821   -2.047535   -0.005706
     28          6           0        1.636490   -0.858983   -0.002763
     29          6           0       -0.780955    2.034821    0.002149
     30         34           0       -0.560550    3.361999   -0.007563
     31          6           0       -1.889264    3.989150   -0.000694
     32          6           0       -2.768035    3.022749    0.001326
     33          6           0       -2.142869    1.835120    0.003153
     34          1           0       -3.876081   -4.594612   -0.014644
     35          1           0       -2.175308   -2.745590   -0.015413
     36          1           0       -6.761984   -0.162574    0.018308
     37          1           0        1.784004    2.457457    0.012856
     38          1           0        4.107034    2.011113   -0.010734
     39          1           0        8.175823    1.388472   -0.032745
     40          1           0        7.624308   -2.701680    0.051095
     41          1           0       -2.090169    5.001404    0.002015
     42          1           0       -3.791768    3.153151    0.001501
 ---------------------------------------------------------------------
 Rotational constants (GHZ):      0.1984037      0.0634707      0.0481119
 Standard basis: 6-31++G(d,p) (6D, 7F)
 There are   686 symmetry adapted basis functions of A   symmetry.
 Integral buffers will be    131072 words long.
 Raffenetti 2 integral format.
 Two-electron integral symmetry is turned on.
   686 basis functions,  1231 primitive gaussians,   686 cartesian basis functions
   134 alpha electrons      134 beta electrons
       nuclear repulsion energy      4370.7980523232 Hartrees.
 NAtoms=   42 NActive=   42 NUniq=   42 SFac= 1.00D+00 NAtFMM=   60 NAOKFM=F Big=F
 One-electron integrals computed using PRISM.
 NBasis=   686 RedAO= T  NBF=   686
 NBsUse=   673 1.00D-06 NBFU=   673
 Harris functional with IExCor=  402 diagonalized for initial guess.
 ExpMin= 3.00D-02 ExpMax= 5.61D+05 ExpMxC= 5.42D+03 IAcc=3 IRadAn=         5 AccDes= 0.00D+00
 HarFok:  IExCor=  402 AccDes= 0.00D+00 IRadAn=         5 IDoV= 1
 ScaDFX=  1.000000  1.000000  1.000000  1.000000
 FoFCou: FMM=F IPFlag=           0 FMFlag=      100000 FMFlg1=           0
         NFxFlg=           0 DoJE=T BraDBF=F KetDBF=T FulRan=T
         Omega=  0.000000  0.000000  1.000000  0.000000  0.000000 ICntrl=     500 IOpCl=  0
         NMat0=    1 NMatS0=    1 NMatT0=    0 NMatD0=    1 NMtDS0=    0 NMtDT0=    0
         I1Cent=           4 NGrid=           0.
 Petite list used in FoFCou.
 Initial guess orbital symmetries:
       Occupied  (A) (A) (A) (A) (A) (A) (A) (A) (A) (A) (A) (A)
                 (A) (A) (A) (A) (A) (A) (A) (A) (A) (A) (A) (A)
                 (A) (A) (A) (A) (A) (A) (A) (A) (A) (A) (A) (A)
                 (A) (A) (A) (A) (A) (A) (A) (A) (A) (A) (A) (A)
                 (A) (A) (A) (A) (A) (A) (A) (A) (A) (A) (A) (A)
                 (A) (A) (A) (A) (A) (A) (A) (A) (A) (A) (A) (A)
                 (A) (A) (A) (A) (A) (A) (A) (A) (A) (A) (A) (A)
                 (A) (A) (A) (A) (A) (A) (A) (A) (A) (A) (A) (A)
                 (A) (A) (A) (A) (A) (A) (A) (A) (A) (A) (A) (A)
                 (A) (A) (A) (A) (A) (A) (A) (A) (A) (A) (A) (A)
                 (A) (A) (A) (A) (A) (A) (A) (A) (A) (A) (A) (A)
                 (A) (A)
       Virtual   (A) (A) (A) (A) (A) (A) (A) (A) (A) (A) (A) (A)
                 (A) (A) (A) (A) (A) (A) (A) (A) (A) (A) (A) (A)
                 (A) (A) (A) (A) (A) (A) (A) (A) (A) (A) (A) (A)
                 (A) (A) (A) (A) (A) (A) (A) (A) (A) (A) (A) (A)
                 (A) (A) (A) (A) (A) (A) (A) (A) (A) (A) (A) (A)
                 (A) (A) (A) (A) (A) (A) (A) (A) (A) (A) (A) (A)
                 (A) (A) (A) (A) (A) (A) (A) (A) (A) (A) (A) (A)
                 (A) (A) (A) (A) (A) (A) (A) (A) (A) (A) (A) (A)
                 (A) (A) (A) (A) (A) (A) (A) (A) (A) (A) (A) (A)
                 (A) (A) (A) (A) (A) (A) (A) (A) (A) (A) (A) (A)
                 (A) (A) (A) (A) (A) (A) (A) (A) (A) (A) (A) (A)
                 (A) (A) (A) (A) (A) (A) (A) (A) (A) (A) (A) (A)
                 (A) (A) (A) (A) (A) (A) (A) (A) (A) (A) (A) (A)
                 (A) (A) (A) (A) (A) (A) (A) (A) (A) (A) (A) (A)
                 (A) (A) (A) (A) (A) (A) (A) (A) (A) (A) (A) (A)
                 (A) (A) (A) (A) (A) (A) (A) (A) (A) (A) (A) (A)
                 (A) (A) (A) (A) (A) (A) (A) (A) (A) (A) (A) (A)
                 (A) (A) (A) (A) (A) (A) (A) (A) (A) (A) (A) (A)
                 (A) (A) (A) (A) (A) (A) (A) (A) (A) (A) (A) (A)
                 (A) (A) (A) (A) (A) (A) (A) (A) (A) (A) (A) (A)
                 (A) (A) (A) (A) (A) (A) (A) (A) (A) (A) (A) (A)
                 (A) (A) (A) (A) (A) (A) (A) (A) (A) (A) (A) (A)
                 (A) (A) (A) (A) (A) (A) (A) (A) (A) (A) (A) (A)
                 (A) (A) (A) (A) (A) (A) (A) (A) (A) (A) (A) (A)
                 (A) (A) (A) (A) (A) (A) (A) (A) (A) (A) (A) (A)
                 (A) (A) (A) (A) (A) (A) (A) (A) (A) (A) (A) (A)
                 (A) (A) (A) (A) (A) (A) (A) (A) (A) (A) (A) (A)
                 (A) (A) (A) (A) (A) (A) (A) (A) (A) (A) (A) (A)
                 (A) (A) (A) (A) (A) (A) (A) (A) (A) (A) (A) (A)
                 (A) (A) (A) (A) (A) (A) (A) (A) (A) (A) (A) (A)
                 (A) (A) (A) (A) (A) (A) (A) (A) (A) (A) (A) (A)
                 (A) (A) (A) (A) (A) (A) (A) (A) (A) (A) (A) (A)
                 (A) (A) (A) (A) (A) (A) (A) (A) (A) (A) (A) (A)
                 (A) (A) (A) (A) (A) (A) (A) (A) (A) (A) (A) (A)
                 (A) (A) (A) (A) (A) (A) (A) (A) (A) (A) (A) (A)
                 (A) (A) (A) (A) (A) (A) (A) (A) (A) (A) (A) (A)
                 (A) (A) (A) (A) (A) (A) (A) (A) (A) (A) (A) (A)
                 (A) (A) (A) (A) (A) (A) (A) (A) (A) (A) (A) (A)
                 (A) (A) (A) (A) (A) (A) (A) (A) (A) (A) (A) (A)
                 (A) (A) (A) (A) (A) (A) (A) (A) (A) (A) (A) (A)
                 (A) (A) (A) (A) (A) (A) (A) (A) (A) (A) (A) (A)
                 (A) (A) (A) (A) (A) (A) (A) (A) (A) (A) (A) (A)
                 (A) (A) (A) (A) (A) (A) (A) (A) (A) (A) (A) (A)
                 (A) (A) (A) (A) (A) (A) (A) (A) (A) (A) (A) (A)
                 (A) (A) (A) (A) (A) (A) (A) (A) (A) (A) (A)
 The electronic state of the initial guess is 1-A.
 Requested convergence on RMS density matrix=1.00D-08 within 128 cycles.
 Requested convergence on MAX density matrix=1.00D-06.
 Requested convergence on             energy=1.00D-06.
 No special actions if energy rises.
 SCF Done:  E(RB3LYP) =  -4962.22528754     A.U. after   16 cycles
             Convg  =    0.8088D-08             -V/T =  2.0013

 **********************************************************************

            Population analysis using the SCF density.

 **********************************************************************

 Orbital symmetries:
       Occupied  (A) (A) (A) (A) (A) (A) (A) (A) (A) (A) (A) (A)
                 (A) (A) (A) (A) (A) (A) (A) (A) (A) (A) (A) (A)
                 (A) (A) (A) (A) (A) (A) (A) (A) (A) (A) (A) (A)
                 (A) (A) (A) (A) (A) (A) (A) (A) (A) (A) (A) (A)
                 (A) (A) (A) (A) (A) (A) (A) (A) (A) (A) (A) (A)
                 (A) (A) (A) (A) (A) (A) (A) (A) (A) (A) (A) (A)
                 (A) (A) (A) (A) (A) (A) (A) (A) (A) (A) (A) (A)
                 (A) (A) (A) (A) (A) (A) (A) (A) (A) (A) (A) (A)
                 (A) (A) (A) (A) (A) (A) (A) (A) (A) (A) (A) (A)
                 (A) (A) (A) (A) (A) (A) (A) (A) (A) (A) (A) (A)
                 (A) (A) (A) (A) (A) (A) (A) (A) (A) (A) (A) (A)
                 (A) (A)
       Virtual   (A) (A) (A) (A) (A) (A) (A) (A) (A) (A) (A) (A)
                 (A) (A) (A) (A) (A) (A) (A) (A) (A) (A) (A) (A)
                 (A) (A) (A) (A) (A) (A) (A) (A) (A) (A) (A) (A)
                 (A) (A) (A) (A) (A) (A) (A) (A) (A) (A) (A) (A)
                 (A) (A) (A) (A) (A) (A) (A) (A) (A) (A) (A) (A)
                 (A) (A) (A) (A) (A) (A) (A) (A) (A) (A) (A) (A)
                 (A) (A) (A) (A) (A) (A) (A) (A) (A) (A) (A) (A)
                 (A) (A) (A) (A) (A) (A) (A) (A) (A) (A) (A) (A)
                 (A) (A) (A) (A) (A) (A) (A) (A) (A) (A) (A) (A)
                 (A) (A) (A) (A) (A) (A) (A) (A) (A) (A) (A) (A)
                 (A) (A) (A) (A) (A) (A) (A) (A) (A) (A) (A) (A)
                 (A) (A) (A) (A) (A) (A) (A) (A) (A) (A) (A) (A)
                 (A) (A) (A) (A) (A) (A) (A) (A) (A) (A) (A) (A)
                 (A) (A) (A) (A) (A) (A) (A) (A) (A) (A) (A) (A)
                 (A) (A) (A) (A) (A) (A) (A) (A) (A) (A) (A) (A)
                 (A) (A) (A) (A) (A) (A) (A) (A) (A) (A) (A) (A)
                 (A) (A) (A) (A) (A) (A) (A) (A) (A) (A) (A) (A)
                 (A) (A) (A) (A) (A) (A) (A) (A) (A) (A) (A) (A)
                 (A) (A) (A) (A) (A) (A) (A) (A) (A) (A) (A) (A)
                 (A) (A) (A) (A) (A) (A) (A) (A) (A) (A) (A) (A)
                 (A) (A) (A) (A) (A) (A) (A) (A) (A) (A) (A) (A)
                 (A) (A) (A) (A) (A) (A) (A) (A) (A) (A) (A) (A)
                 (A) (A) (A) (A) (A) (A) (A) (A) (A) (A) (A) (A)
                 (A) (A) (A) (A) (A) (A) (A) (A) (A) (A) (A) (A)
                 (A) (A) (A) (A) (A) (A) (A) (A) (A) (A) (A) (A)
                 (A) (A) (A) (A) (A) (A) (A) (A) (A) (A) (A) (A)
                 (A) (A) (A) (A) (A) (A) (A) (A) (A) (A) (A) (A)
                 (A) (A) (A) (A) (A) (A) (A) (A) (A) (A) (A) (A)
                 (A) (A) (A) (A) (A) (A) (A) (A) (A) (A) (A) (A)
                 (A) (A) (A) (A) (A) (A) (A) (A) (A) (A) (A) (A)
                 (A) (A) (A) (A) (A) (A) (A) (A) (A) (A) (A) (A)
                 (A) (A) (A) (A) (A) (A) (A) (A) (A) (A) (A) (A)
                 (A) (A) (A) (A) (A) (A) (A) (A) (A) (A) (A) (A)
                 (A) (A) (A) (A) (A) (A) (A) (A) (A) (A) (A) (A)
                 (A) (A) (A) (A) (A) (A) (A) (A) (A) (A) (A) (A)
                 (A) (A) (A) (A) (A) (A) (A) (A) (A) (A) (A) (A)
                 (A) (A) (A) (A) (A) (A) (A) (A) (A) (A) (A) (A)
                 (A) (A) (A) (A) (A) (A) (A) (A) (A) (A) (A) (A)
                 (A) (A) (A) (A) (A) (A) (A) (A) (A) (A) (A) (A)
                 (A) (A) (A) (A) (A) (A) (A) (A) (A) (A) (A) (A)
                 (A) (A) (A) (A) (A) (A) (A) (A) (A) (A) (A) (A)
                 (A) (A) (A) (A) (A) (A) (A) (A) (A) (A) (A) (A)
                 (A) (A) (A) (A) (A) (A) (A) (A) (A) (A) (A) (A)
                 (A) (A) (A) (A) (A) (A) (A) (A) (A) (A) (A) (A)
                 (A) (A) (A) (A) (A) (A) (A) (A) (A) (A) (A)
 The electronic state is 1-A.
 Alpha  occ. eigenvalues -- -453.90290 -88.96597 -88.88845 -88.88596 -66.00472
 Alpha  occ. eigenvalues --  -57.50943 -52.18046 -52.17884 -52.17709 -14.35590
 Alpha  occ. eigenvalues --  -14.35213 -14.35056 -14.34792 -14.34245 -10.29304
 Alpha  occ. eigenvalues --  -10.28452 -10.27171 -10.25173 -10.24982 -10.23684
 Alpha  occ. eigenvalues --  -10.21870 -10.20526 -10.20070 -10.19977 -10.19938
 Alpha  occ. eigenvalues --  -10.19871 -10.19772 -10.19735 -10.19621 -10.19451
 Alpha  occ. eigenvalues --  -10.18729 -10.18409 -10.18276 -10.12821 -10.12803
 Alpha  occ. eigenvalues --   -8.03994  -7.98891  -7.98588  -7.77111  -6.00423
 Alpha  occ. eigenvalues --   -5.99781  -5.99591  -5.95106  -5.94803  -5.94403
 Alpha  occ. eigenvalues --   -5.94345  -5.94116  -5.94042  -5.81431  -5.80676
 Alpha  occ. eigenvalues --   -5.80363  -5.20838  -3.56848  -3.56299  -3.55969
 Alpha  occ. eigenvalues --   -2.17912  -2.17138  -2.16577  -2.16170  -2.15997
 Alpha  occ. eigenvalues --   -1.16583  -1.08109  -1.05626  -1.01231  -1.00941
 Alpha  occ. eigenvalues --   -0.96720  -0.91520  -0.90318  -0.89197  -0.89093
 Alpha  occ. eigenvalues --   -0.85912  -0.81318  -0.80920  -0.79565  -0.78556
 Alpha  occ. eigenvalues --   -0.76209  -0.74836  -0.70367  -0.69554  -0.68145
 Alpha  occ. eigenvalues --   -0.67134  -0.66696  -0.65219  -0.63023  -0.61367
 Alpha  occ. eigenvalues --   -0.60324  -0.59070  -0.56726  -0.56232  -0.55653
 Alpha  occ. eigenvalues --   -0.54933  -0.54438  -0.53766  -0.53591  -0.52671
 Alpha  occ. eigenvalues --   -0.50751  -0.50685  -0.49648  -0.48572  -0.47860
 Alpha  occ. eigenvalues --   -0.46390  -0.46161  -0.45870  -0.44917  -0.44599
 Alpha  occ. eigenvalues --   -0.43267  -0.42790  -0.42491  -0.41202  -0.40854
 Alpha  occ. eigenvalues --   -0.40788  -0.39966  -0.38000  -0.37966  -0.37215
 Alpha  occ. eigenvalues --   -0.35783  -0.35110  -0.34054  -0.33009  -0.32593
 Alpha  occ. eigenvalues --   -0.32443  -0.31910  -0.31503  -0.31083  -0.30896
 Alpha  occ. eigenvalues --   -0.29676  -0.28487  -0.27958  -0.27057  -0.26090
 Alpha  occ. eigenvalues --   -0.26031  -0.25317  -0.24481  -0.21091
 Alpha virt. eigenvalues --   -0.09323  -0.06351  -0.06087  -0.03563  -0.01963
 Alpha virt. eigenvalues --   -0.01495  -0.01352  -0.00451  -0.00268   0.00334
 Alpha virt. eigenvalues --    0.00719   0.00860   0.01226   0.01457   0.01826
 Alpha virt. eigenvalues --    0.02235   0.02430   0.02606   0.02935   0.02997
 Alpha virt. eigenvalues --    0.03204   0.03618   0.04283   0.04604   0.04745
 Alpha virt. eigenvalues --    0.04869   0.05433   0.05482   0.05847   0.06272
 Alpha virt. eigenvalues --    0.06320   0.06678   0.06920   0.07219   0.07475
 Alpha virt. eigenvalues --    0.07763   0.08002   0.08565   0.08720   0.08757
 Alpha virt. eigenvalues --    0.09200   0.09318   0.09436   0.09670   0.09872
 Alpha virt. eigenvalues --    0.09972   0.10529   0.10748   0.11084   0.11270
 Alpha virt. eigenvalues --    0.11467   0.11516   0.11674   0.11751   0.11962
 Alpha virt. eigenvalues --    0.12203   0.12492   0.12618   0.12759   0.12814
 Alpha virt. eigenvalues --    0.13077   0.13210   0.13447   0.13948   0.14120
 Alpha virt. eigenvalues --    0.14207   0.14509   0.14662   0.15072   0.15285
 Alpha virt. eigenvalues --    0.15434   0.15665   0.15718   0.15971   0.16522
 Alpha virt. eigenvalues --    0.16531   0.16677   0.17174   0.17247   0.17426
 Alpha virt. eigenvalues --    0.18145   0.18385   0.18461   0.18637   0.18823
 Alpha virt. eigenvalues --    0.18929   0.19327   0.19399   0.19736   0.19813
 Alpha virt. eigenvalues --    0.19846   0.19979   0.20321   0.20637   0.21040
 Alpha virt. eigenvalues --    0.21093   0.21175   0.21708   0.21961   0.22468
 Alpha virt. eigenvalues --    0.22490   0.22716   0.23100   0.23115   0.23650
 Alpha virt. eigenvalues --    0.23862   0.23921   0.24065   0.24165   0.24263
 Alpha virt. eigenvalues --    0.24641   0.24821   0.25268   0.25389   0.26406
 Alpha virt. eigenvalues --    0.26445   0.26540   0.26843   0.27360   0.27568
 Alpha virt. eigenvalues --    0.28019   0.28071   0.28343   0.28737   0.28951
 Alpha virt. eigenvalues --    0.29072   0.29230   0.29375   0.29814   0.30207
 Alpha virt. eigenvalues --    0.30393   0.30443   0.31185   0.31521   0.31643
 Alpha virt. eigenvalues --    0.31953   0.32326   0.32539   0.32784   0.33138
 Alpha virt. eigenvalues --    0.33644   0.33755   0.34158   0.34801   0.35360
 Alpha virt. eigenvalues --    0.35510   0.35869   0.36169   0.36416   0.37037
 Alpha virt. eigenvalues --    0.37147   0.37462   0.38476   0.38833   0.39169
 Alpha virt. eigenvalues --    0.39468   0.39975   0.40370   0.40808   0.41132
 Alpha virt. eigenvalues --    0.41918   0.41993   0.42405   0.42629   0.43359
 Alpha virt. eigenvalues --    0.43885   0.44209   0.44555   0.45515   0.46332
 Alpha virt. eigenvalues --    0.46363   0.46682   0.46943   0.48261   0.49005
 Alpha virt. eigenvalues --    0.49271   0.50280   0.50387   0.50677   0.51333
 Alpha virt. eigenvalues --    0.52723   0.53691   0.53985   0.54960   0.55196
 Alpha virt. eigenvalues --    0.55449   0.57857   0.58358   0.59477   0.60740
 Alpha virt. eigenvalues --    0.61981   0.62319   0.63110   0.64487   0.65659
 Alpha virt. eigenvalues --    0.65830   0.65973   0.67292   0.67581   0.68099
 Alpha virt. eigenvalues --    0.68558   0.68997   0.69267   0.70016   0.70332
 Alpha virt. eigenvalues --    0.70494   0.70752   0.71109   0.71590   0.72209
 Alpha virt. eigenvalues --    0.72649   0.72866   0.73661   0.74184   0.74325
 Alpha virt. eigenvalues --    0.74648   0.74818   0.75297   0.75502   0.75713
 Alpha virt. eigenvalues --    0.75880   0.76625   0.76894   0.76967   0.77679
 Alpha virt. eigenvalues --    0.78324   0.78386   0.79312   0.80292   0.80344
 Alpha virt. eigenvalues --    0.80602   0.81644   0.81893   0.81951   0.82392
 Alpha virt. eigenvalues --    0.82789   0.83294   0.83893   0.84828   0.85405
 Alpha virt. eigenvalues --    0.85603   0.85839   0.87107   0.87788   0.88211
 Alpha virt. eigenvalues --    0.88438   0.89343   0.90754   0.91921   0.92365
 Alpha virt. eigenvalues --    0.92469   0.93875   0.94052   0.94706   0.95009
 Alpha virt. eigenvalues --    0.95468   0.96359   0.96993   0.97021   0.97385
 Alpha virt. eigenvalues --    0.97715   0.97935   0.98288   0.98812   0.99293
 Alpha virt. eigenvalues --    0.99547   1.00610   1.01702   1.01888   1.02349
 Alpha virt. eigenvalues --    1.02822   1.03949   1.04496   1.04613   1.07980
 Alpha virt. eigenvalues --    1.09005   1.09263   1.09754   1.10248   1.10793
 Alpha virt. eigenvalues --    1.11475   1.13345   1.14138   1.14334   1.15777
 Alpha virt. eigenvalues --    1.16430   1.16995   1.17950   1.18311   1.19198
 Alpha virt. eigenvalues --    1.20766   1.20918   1.21578   1.22560   1.22986
 Alpha virt. eigenvalues --    1.23337   1.23671   1.23815   1.24529   1.25896
 Alpha virt. eigenvalues --    1.26812   1.26840   1.28117   1.28259   1.28672
 Alpha virt. eigenvalues --    1.29181   1.29628   1.29936   1.31440   1.31585
 Alpha virt. eigenvalues --    1.32275   1.32984   1.33768   1.34347   1.34956
 Alpha virt. eigenvalues --    1.35129   1.35707   1.35919   1.36855   1.37152
 Alpha virt. eigenvalues --    1.37467   1.37652   1.38186   1.38927   1.39160
 Alpha virt. eigenvalues --    1.39348   1.40157   1.40539   1.41571   1.42142
 Alpha virt. eigenvalues --    1.45475   1.46185   1.46732   1.48369   1.49373
 Alpha virt. eigenvalues --    1.50826   1.50967   1.51460   1.51508   1.52072
 Alpha virt. eigenvalues --    1.53277   1.54907   1.56200   1.58023   1.59107
 Alpha virt. eigenvalues --    1.62062   1.63209   1.64113   1.65171   1.66809
 Alpha virt. eigenvalues --    1.69195   1.70428   1.70845   1.72015   1.72392
 Alpha virt. eigenvalues --    1.74718   1.74953   1.75242   1.76177   1.77012
 Alpha virt. eigenvalues --    1.78004   1.79540   1.79722   1.81371   1.82548
 Alpha virt. eigenvalues --    1.83501   1.84115   1.84176   1.85928   1.86585
 Alpha virt. eigenvalues --    1.88874   1.90729   1.90832   1.91362   1.93506
 Alpha virt. eigenvalues --    1.93791   1.93965   1.94501   1.95502   1.95905
 Alpha virt. eigenvalues --    1.96466   1.99549   2.01393   2.01513   2.03425
 Alpha virt. eigenvalues --    2.03768   2.05123   2.06476   2.06749   2.07018
 Alpha virt. eigenvalues --    2.08007   2.08120   2.09086   2.09600   2.09996
 Alpha virt. eigenvalues --    2.10612   2.11750   2.12289   2.12544   2.13497
 Alpha virt. eigenvalues --    2.16925   2.18053   2.19020   2.19421   2.21036
 Alpha virt. eigenvalues --    2.21884   2.22755   2.24513   2.25308   2.26561
 Alpha virt. eigenvalues --    2.27013   2.28732   2.29720   2.31465   2.31588
 Alpha virt. eigenvalues --    2.32322   2.33262   2.33676   2.35474   2.36103
 Alpha virt. eigenvalues --    2.36349   2.38002   2.38095   2.39212   2.39808
 Alpha virt. eigenvalues --    2.40577   2.41363   2.42681   2.43284   2.45256
 Alpha virt. eigenvalues --    2.45911   2.46719   2.48038   2.49441   2.51131
 Alpha virt. eigenvalues --    2.51870   2.53248   2.53896   2.54344   2.54589
 Alpha virt. eigenvalues --    2.55257   2.55463   2.58380   2.58715   2.59331
 Alpha virt. eigenvalues --    2.61595   2.62629   2.64735   2.65094   2.65629
 Alpha virt. eigenvalues --    2.66643   2.66974   2.67567   2.68598   2.71018
 Alpha virt. eigenvalues --    2.72421   2.72865   2.73364   2.73497   2.75305
 Alpha virt. eigenvalues --    2.75894   2.76398   2.77033   2.77130   2.79443
 Alpha virt. eigenvalues --    2.79723   2.80935   2.81021   2.81708   2.83546
 Alpha virt. eigenvalues --    2.83826   2.84760   2.86316   2.87892   2.88500
 Alpha virt. eigenvalues --    2.89934   2.91181   2.93489   2.95630   2.98087
 Alpha virt. eigenvalues --    2.99257   3.01108   3.03815   3.05662   3.07794
 Alpha virt. eigenvalues --    3.09544   3.15117   3.15908   3.18367   3.20322
 Alpha virt. eigenvalues --    3.22649   3.25493   3.28327   3.29223   3.33268
 Alpha virt. eigenvalues --    3.38776   3.43005   3.45870   3.48657   3.49870
 Alpha virt. eigenvalues --    3.50895   3.53135   3.55466   3.67843   3.71510
 Alpha virt. eigenvalues --    3.86038   3.88949   3.89986   4.00826   4.06470
 Alpha virt. eigenvalues --    4.14226   4.15469   4.25831   4.30047   4.32481
 Alpha virt. eigenvalues --    4.36852   4.37706   4.39527   4.40200   4.42140
 Alpha virt. eigenvalues --    4.44489   4.45171   4.47475   4.48899   4.49804
 Alpha virt. eigenvalues --    4.51278   4.52954   4.57705   4.58880   4.61705
 Alpha virt. eigenvalues --    4.69308   4.72565   4.77343   4.82826   4.92291
 Alpha virt. eigenvalues --    4.99582   5.04952   8.56580  84.56894
          Condensed to atoms (all electrons):
              1          2          3          4          5          6
     1  Si  15.179384   0.013604   0.013449  -0.375906  -0.440794   0.029580
     2  H    0.013604   0.930369  -0.059525  -0.053790   0.125262   0.049526
     3  H    0.013449  -0.059525   0.933292  -0.082234   0.144060   0.051196
     4  C   -0.375906  -0.053790  -0.082234  11.866632  -3.206077  -2.614841
     5  C   -0.440794   0.125262   0.144060  -3.206077  11.196517  -0.380766
     6  C    0.029580   0.049526   0.051196  -2.614841  -0.380766  12.014912
     7  C    0.737904  -0.022929  -0.054440   2.619231  -3.341685   0.252828
     8  C   -1.165743   0.041232   0.071862  -0.361142   0.580917  -1.626303
     9  S   -0.220091   0.023918   0.015236   0.682894   0.371639  -1.633347
    10  C    0.086577   0.051750   0.063684  -1.664713   1.634859  -0.770934
    11  C   -0.236350   0.028734   0.030073  -1.456576   1.069880  -0.783444
    12  S   -0.056618  -0.002806  -0.002965  -0.441814  -0.564444   0.142879
    13  C    0.053393  -0.009490  -0.010555   0.756332   0.009802   1.053749
    14  C   -0.009396   0.001046   0.001170  -0.085475  -0.090537  -0.135341
    15  C   -0.012884   0.000172   0.000182   0.082079  -0.049953   0.046918
    16  C   -0.001498   0.000056   0.000062  -0.002045  -0.009755  -0.058533
    17  C   -0.002349   0.000006   0.000006   0.021380  -0.014043   0.069972
    18  C    0.000011  -0.000006  -0.000007   0.001690   0.001536   0.008353
    19  N    0.000001  -0.000000  -0.000000   0.000001   0.000023  -0.000017
    20  C    0.000001  -0.000000  -0.000000   0.000001   0.000016   0.000004
    21  N    0.000000  -0.000000  -0.000000  -0.000000  -0.000001   0.000000
    22  C   -0.000001   0.000000   0.000000   0.000003  -0.000003   0.000007
    23  N   -0.000006   0.000000   0.000000  -0.000071  -0.000259  -0.000102
    24  C   -0.001262  -0.000063  -0.000055   0.004187  -0.045696  -0.031272
    25  N   -0.001422   0.000053   0.000056  -0.007152  -0.004017   0.009607
    26  S    0.016022  -0.000421  -0.000457  -0.051629   0.034925  -0.009575
    27  N   -0.003478   0.000151   0.000178  -0.026769   0.001502  -0.057800
    28  C   -0.018047   0.000886   0.000804   0.136297  -0.235577   0.339112
    29  C    0.001153  -0.000120  -0.000378   0.091417  -0.752402   1.321023
    30  Se   0.002870  -0.000161  -0.000156  -0.002997  -0.064673   0.236257
    31  C   -0.002840  -0.000182  -0.000184   0.008226  -0.152572   0.163011
    32  C   -0.055089   0.003978   0.004806  -0.213659   0.703030  -1.326396
    33  C    0.089632   0.002986   0.003172  -0.389771  -0.179857   0.247484
    34  H   -0.130070   0.002996   0.002044   0.422336  -0.137382  -0.018715
    35  H   -0.326708   0.018329   0.018912   0.799244   0.113460  -0.359715
    36  H   -0.111275   0.008050   0.009827  -0.062579   0.018716  -0.040298
    37  H   -0.001516   0.000022   0.000022   0.008069   0.019083  -0.016042
    38  H    0.000048   0.000000   0.000000  -0.000457  -0.000659  -0.001820
    39  H   -0.000000  -0.000000  -0.000000   0.000000   0.000000   0.000001
    40  H   -0.000000   0.000000   0.000000   0.000000  -0.000001   0.000004
    41  H    0.000675  -0.000043  -0.000045   0.000976  -0.010013   0.027012
    42  H    0.001427   0.000428   0.000464  -0.018514   0.008872   0.000885
              7          8          9         10         11         12
     1  Si   0.737904  -1.165743  -0.220091   0.086577  -0.236350  -0.056618
     2  H   -0.022929   0.041232   0.023918   0.051750   0.028734  -0.002806
     3  H   -0.054440   0.071862   0.015236   0.063684   0.030073  -0.002965
     4  C    2.619231  -0.361142   0.682894  -1.664713  -1.456576  -0.441814
     5  C   -3.341685   0.580917   0.371639   1.634859   1.069880  -0.564444
     6  C    0.252828  -1.626303  -1.633347  -0.770934  -0.783444   0.142879
     7  C   14.385749  -3.797314   1.087033  -3.725027  -2.778509   0.175260
     8  C   -3.797314  12.856115  -2.063520   0.716645   0.520459   0.539087
     9  S    1.087033  -2.063520  23.738204  -3.206063  -0.056621   0.180344
    10  C   -3.725027   0.716645  -3.206063  14.548015  -2.628275  -0.798670
    11  C   -2.778509   0.520459  -0.056621  -2.628275  23.829020  -3.147447
    12  S    0.175260   0.539087   0.180344  -0.798670  -3.147447  33.369893
    13  C    1.715550  -0.081131  -0.552077   1.563818  -8.367177  -2.558116
    14  C   -0.134922  -0.031159   0.113452  -0.224607   1.942959  -0.771541
    15  C    0.093982  -0.049986  -0.012790   0.248094  -2.149912  -0.963884
    16  C   -0.006793  -0.002995   0.013664  -0.012796   0.072220   0.052017
    17  C    0.015457  -0.003581  -0.022046  -0.026574  -0.548977  -0.871147
    18  C    0.001607   0.000242  -0.001421   0.014275  -0.178578  -0.192705
    19  N   -0.000001   0.000000   0.000004  -0.000069   0.001328   0.001620
    20  C    0.000002   0.000001   0.000001   0.000086  -0.000938   0.000914
    21  N   -0.000000  -0.000000  -0.000000  -0.000001   0.000020   0.000042
    22  C    0.000001   0.000000  -0.000002   0.000037  -0.000659  -0.002114
    23  N   -0.000025  -0.000003   0.000017  -0.000205   0.003391   0.005106
    24  C    0.002624   0.007177   0.016091   0.102847  -0.318268   0.260932
    25  N   -0.001231  -0.001592  -0.001369  -0.036423   0.198357  -0.099214
    26  S   -0.022662   0.000652   0.011181   0.020160   0.047284   0.460355
    27  N   -0.024460   0.001605   0.023163   0.054628   0.048800   0.522122
    28  C    0.118454  -0.131944  -0.134441  -0.838748   1.556055  -1.526739
    29  C    0.809123  -0.767428  -0.526114  -0.279847  -4.672364  -2.659914
    30  Se   0.027405  -0.026154  -0.302161  -0.139614   0.006190  -0.646468
    31  C    0.159746  -0.274751  -0.164701  -0.214921  -1.213478  -0.448757
    32  C   -1.603953   1.030687   0.377423   0.597043   3.917267  -1.000410
    33  C   -0.172822  -1.077367  -1.387803   0.847552   0.499724  -1.682428
    34  H    0.146631   0.010767   0.010251  -0.010142  -0.033633   0.019730
    35  H    0.187967  -0.068873  -0.042052  -0.430439   0.222245  -0.708433
    36  H   -0.241802   0.731815  -0.182411   0.061861   0.092216   0.017005
    37  H    0.004197   0.003554   0.022427   0.038039  -0.120519   0.361959
    38  H   -0.000525   0.000034   0.000518  -0.003115   0.032737   0.020138
    39  H    0.000000   0.000000  -0.000000   0.000004  -0.000062  -0.000019
    40  H    0.000000  -0.000000  -0.000001  -0.000005   0.000021  -0.000103
    41  H    0.017103  -0.016432  -0.013751  -0.029363  -0.052172  -0.007140
    42  H   -0.060244   0.024920  -0.217638   0.174678  -0.238046  -0.235923
             13         14         15         16         17         18
     1  Si   0.053393  -0.009396  -0.012884  -0.001498  -0.002349   0.000011
     2  H   -0.009490   0.001046   0.000172   0.000056   0.000006  -0.000006
     3  H   -0.010555   0.001170   0.000182   0.000062   0.000006  -0.000007
     4  C    0.756332  -0.085475   0.082079  -0.002045   0.021380   0.001690
     5  C    0.009802  -0.090537  -0.049953  -0.009755  -0.014043   0.001536
     6  C    1.053749  -0.135341   0.046918  -0.058533   0.069972   0.008353
     7  C    1.715550  -0.134922   0.093982  -0.006793   0.015457   0.001607
     8  C   -0.081131  -0.031159  -0.049986  -0.002995  -0.003581   0.000242
     9  S   -0.552077   0.113452  -0.012790   0.013664  -0.022046  -0.001421
    10  C    1.563818  -0.224607   0.248094  -0.012796  -0.026574   0.014275
    11  C   -8.367177   1.942959  -2.149912   0.072220  -0.548977  -0.178578
    12  S   -2.558116  -0.771541  -0.963884   0.052017  -0.871147  -0.192705
    13  C   26.034725   4.569541  -3.582005  -3.212568  -1.200826   0.107113
    14  C    4.569541  19.858236  -2.546145  -5.957701  -4.438606   1.441927
    15  C   -3.582005  -2.546145  13.132932   2.802390  -3.635720  -1.012092
    16  C   -3.212568  -5.957701   2.802390  11.839045  -1.877788  -2.705802
    17  C   -1.200826  -4.438606  -3.635720  -1.877788  17.017061   2.126682
    18  C    0.107113   1.441927  -1.012092  -2.705802   2.126682   9.321193
    19  N    0.004693   0.044541   0.013679   0.251304  -0.464581   0.189685
    20  C    0.004601   0.060452  -0.006843  -0.166726   0.108990  -0.006063
    21  N    0.000081  -0.000900   0.004556   0.042136  -0.046383   0.037437
    22  C   -0.006197  -0.028086   0.014503  -0.081836   0.098718  -0.015875
    23  N   -0.008129  -0.038598  -0.035560   0.246480  -0.229297   0.077327
    24  C   -0.661837  -2.759630   0.968541   1.606545  -0.415946  -1.968261
    25  N   -0.237218   0.487257  -0.153134  -0.023880  -0.198210  -0.039382
    26  S   -0.540822  -0.591219   0.222822   0.396453  -0.444012  -0.317418
    27  N   -0.396191  -0.780166   0.090386  -0.029550   0.185500   0.045485
    28  C   -3.423518  -3.830281   1.643098   2.459528  -0.211691  -0.955871
    29  C    1.318278  -0.470375   1.291230   0.011040   0.598979   0.311233
    30  Se   0.325975   0.395768  -0.093575  -0.363830   0.152192   0.034834
    31  C    0.683803  -0.311607   0.684628   0.108416   0.106266   0.003778
    32  C   -2.356331   0.358758  -0.932625  -0.075627  -0.148727  -0.004587
    33  C   -4.560064   0.108765   0.093352   0.434437   0.038569   0.029231
    34  H   -0.002110   0.000951   0.000927   0.000063   0.000427  -0.000013
    35  H    0.137623  -0.019798   0.075996   0.002174   0.045323   0.000549
    36  H   -0.006061   0.000540  -0.000682   0.000008  -0.000110   0.000001
[...]
 ,0.00000133,-0.00000192,0.00000928,0.00002021,0.00004746,-0.00005608,0
 .00003067,-0.00002613,0.00005614,-0.00009112,-0.00004323,0.00004304,-0
 .00027235,-0.00008564,-0.00003708,0.00006644,0.00074691,0.00016460,0.0
 0528916,-0.00034181,0.00058956,0.00409303,0.03360892,-0.03241888,-0.04
 940879,0.00389253,-0.00304845,0.00500612,-0.00056140,-0.00077674,-0.00
 443552,-0.00055053,-0.00084703,0.00020128,0.00005265,0.00041303,-0.000
 53510,-0.00016240,0.00001576,0.00044864,0.00028036,-0.00036465,0.00020
 530,0.00026107,0.00045292,-0.00028862,0.00177957,0.00014901,0.00666027
 ,0.00030717,-0.00031812,0.00110080,-0.00013140,0.00012722,-0.00122470,
 -0.00005393,-0.00003259,0.00010850,0.00001544,0.00018526,-0.00023969,0
 .00005924,0.00000597,0.00015527,-0.00001721,-0.00000201,-0.00004322,-0
 .00000871,0.00000374,-0.00006443,-0.00000387,0.00000181,0.00001312,0.0
 0002683,-0.00002475,0.00000490,-0.00000001,-0.00000110,0.00000064,0.00
 000539,0.00000181,-0.00000029,-0.00000041,0.00000149,-0.00000112,-0.00
 065968,0.00021685,-0.00283894,-0.03834555,0.03549957,0.03612300,0.0000
 0763,-0.00002095,0.00000068,-0.00000137,0.00000554,-0.00000094,-0.0000
 0278,0.00000524,0.00000091,-0.00000668,0.00000731,-0.00000249,0.000006
 76,0.00000255,0.00000398,0.00001127,-0.00000745,-0.00000017,0.00000068
 ,0.00001005,0.00000676,-0.00000386,0.00001306,0.00000123,-0.00000613,-
 0.00000243,0.00000136,-0.00000754,-0.00000191,-0.00000728,0.00002307,0
 .00000072,-0.00000408,0.00001215,-0.00001838,-0.00000342,0.00004314,0.
 00006477,-0.00001116,-0.00000637,-0.00008490,0.00000258,-0.00002976,0.
 00008306,0.00005306,-0.00008489,-0.00003115,0.00005859,0.00042174,0.00
 002947,-0.00016212,0.00292481,-0.00373401,0.00315506,0.01041816,-0.007
 26851,-0.00368464,-0.17914547,0.12487231,0.06131628,-0.02566469,0.0158
 7836,0.01316554,-0.00226795,-0.00391596,0.00484039,-0.00035588,0.00097
 274,-0.00221357,-0.00002759,-0.00014372,-0.00009688,-0.00007079,0.0000
 2804,0.00001496,0.00001354,-0.00002117,0.00000929,0.00001236,0.0000174
 4,0.00000605,0.00006847,0.00001188,-0.00001227,-0.00005108,-0.00000806
 ,0.00000457,0.00001602,-0.00001650,-0.00000199,-0.00000081,-0.00000483
 ,-0.00000092,0.00000234,0.00000318,0.00000014,-0.00002405,0.00002403,0
 .00000293,-0.00000067,-0.00000028,-0.00000042,0.00000047,-0.00000054,0
 .00000116,0.00000007,0.00000140,-0.00000272,0.00000400,0.00000031,-0.0
 0000447,-0.00001076,-0.00002129,-0.00004657,0.19457924,-0.00000886,0.0
 0002913,-0.00000091,0.00000161,-0.00000771,0.00000128,0.00000354,-0.00
 000736,-0.00000124,0.00000947,-0.00001078,0.00000396,-0.00001049,-0.00
 000317,-0.00000466,-0.00001644,0.00001111,-0.00000110,-0.00000279,-0.0
 0001420,-0.00001106,0.00000717,-0.00002192,-0.00000173,0.00000873,0.00
 000386,-0.00000289,0.00000998,0.00000385,0.00001418,-0.00003551,-0.000
 00622,0.00000722,-0.00002252,0.00003360,0.00000649,-0.00007863,-0.0000
 9433,0.00000214,0.00001454,0.00012793,0.00000731,0.00004849,-0.0001426
 6,-0.00001397,0.00004339,0.00009063,-0.00002497,0.00115777,-0.00046058
 ,-0.00039132,-0.00303188,-0.00363997,-0.00008258,0.01802884,-0.0309907
 2,-0.00998636,0.12536146,-0.17440066,-0.05979174,-0.01045972,0.0120120
 3,0.00475048,-0.00373202,0.00114213,0.00066596,0.00087704,0.00032437,0
 .00019009,-0.00036533,-0.00029003,0.00008439,0.00005614,0.00003887,-0.
 00001831,0.00001637,-0.00001050,-0.00000672,-0.00000664,-0.00010776,-0
 .00000252,0.00007248,-0.00004460,-0.00001039,0.00009911,0.00000062,-0.
 00001917,-0.00002448,0.00002761,0.00000570,-0.00000978,-0.00000201,0.0
 0000338,-0.00000466,0.00000323,-0.00000070,0.00003475,-0.00003297,-0.0
 0000314,0.00000105,0.00000032,0.00000035,-0.00000038,0.00000089,-0.000
 00209,-0.00000021,-0.00000217,0.00000415,-0.00001665,-0.00003058,0.000
 00169,0.00007611,-0.00002933,-0.00001819,-0.12770774,0.19616007,-0.000
 00397,0.00001161,0.00000140,0.00000076,-0.00000304,0.00000006,0.000001
 55,-0.00000298,-0.00000075,0.00000403,-0.00000429,0.00000071,-0.000002
 93,-0.00000046,-0.00000238,-0.00000837,0.00000399,0.00000108,-0.000000
 72,-0.00000571,-0.00000629,0.00000281,-0.00000925,-0.00000010,0.000003
 49,0.00000277,-0.00000088,0.00000755,-0.00000172,0.00000601,-0.0000160
 7,-0.00000126,0.00000197,-0.00001377,0.00001047,0.00000039,-0.00003500
 ,-0.00004845,-0.00001712,-0.00000270,0.00006173,0.00001710,0.00006781,
 -0.00009126,0.00008143,-0.00001885,0.00000658,0.00006407,-0.00012143,-
 0.00006831,0.00003501,0.00329153,0.00029742,0.01043406,-0.00135880,0.0
 0053212,0.00313328,0.06131244,-0.05993677,-0.07916755,0.01091363,-0.00
 562012,-0.00053937,0.00491884,0.00069359,0.00895022,-0.00236349,0.0000
 1155,-0.00526551,-0.00006378,0.00003006,-0.00027296,-0.00001418,0.0000
 2064,0.00002878,0.00000752,0.00002367,0.00003617,0.00002277,-0.0000071
 4,0.00000962,-0.00003580,0.00000480,0.00000708,0.00004227,0.00000672,-
 0.00001516,-0.00000928,0.00001413,0.00000727,-0.00000242,-0.00000060,-
 0.00000207,-0.00000165,0.00000086,0.00000290,0.00001748,-0.00001589,-0
 .00000781,0.00000013,0.00000009,0.00000038,-0.00000078,0.00000011,-0.0
 0000027,-0.00000020,-0.00000080,0.00000183,-0.00000352,-0.00000360,-0.
 00000441,0.00001682,-0.00001889,-0.00008231,-0.07663316,0.06440682,0.0
 6308548,-0.00001254,0.00003025,0.00000150,0.00000241,-0.00000798,0.000
 00075,0.00000454,-0.00000772,-0.00000186,0.00001108,-0.00001145,0.0000
 0260,-0.00000997,-0.00000272,-0.00000620,-0.00001677,0.00001000,0.0000
 0138,-0.00000015,-0.00001472,-0.00001198,0.00000601,-0.00002057,-0.000
 00180,0.00000859,0.00000424,-0.00000186,0.00001196,0.00000419,0.000012
 14,-0.00003591,-0.00000525,0.00000433,-0.00001945,0.00002688,0.0000047
 6,-0.00006727,-0.00009037,0.00000108,0.00000743,0.00012232,0.00000377,
 0.00003551,-0.00011706,-0.00001605,0.00012873,0.00000582,-0.00007075,-
 0.00033449,-0.00010192,0.00002474,0.00408946,0.00000117,0.00304206,-0.
 00090603,-0.00048335,-0.00219826,0.00140879,0.00373912,0.00427434,-0.0
 2035560,-0.00004679,0.01001445,-0.27440212,-0.07503748,0.08461854,-0.0
 0128110,-0.00664212,0.00116935,-0.00008044,0.00004748,0.00003594,0.000
 06099,-0.00002793,0.00001617,-0.00000127,0.00000445,0.00001321,-0.0000
 0741,-0.00006239,-0.00000976,-0.00003777,-0.00002382,0.00000739,0.0000
 7743,0.00000803,-0.00001613,-0.00002392,0.00002786,0.00000595,-0.00000
 050,0.00000595,0.00000060,-0.00000377,-0.00000446,0.00000099,0.0000365
 1,-0.00003574,-0.00000525,0.00000068,0.00000027,0.00000115,-0.00000134
 ,0.00000078,-0.00000147,-0.00000033,-0.00000218,0.00000435,-0.00000648
 ,-0.00001368,0.00000955,0.00001513,0.00003275,-0.00000540,-0.00079701,
 -0.00039219,0.00007972,0.29249690,-0.00001078,0.00001750,0.00000107,0.
 00000211,-0.00000466,0.00000042,0.00000355,-0.00000460,-0.00000130,0.0
 0000943,-0.00000735,0.00000120,-0.00000809,-0.00000206,-0.00000439,-0.
 00000926,0.00000645,-0.00000148,0.00000121,-0.00000852,-0.00000644,0.0
 0000363,-0.00001395,-0.00000188,0.00000672,0.00000262,-0.00000109,0.00
 000605,0.00000490,0.00000824,-0.00002889,-0.00001057,0.00000354,-0.000
 01368,0.00001696,0.00000656,-0.00004385,-0.00005600,0.00000209,-0.0000
 1024,0.00009314,0.00001592,-0.00009497,-0.00006467,-0.00001976,0.00012
 767,-0.00035975,-0.00002000,-0.00121475,0.00018057,0.00050007,-0.00122
 309,-0.00506526,-0.00087665,-0.00021659,0.00082069,0.00067022,0.003660
 72,-0.00245502,-0.00260371,0.02623848,0.00680755,-0.01044306,-0.075509
 18,-0.07669369,0.02834085,-0.03182157,-0.01914403,0.01107469,-0.000136
 68,0.00015772,-0.00000496,0.00014620,-0.00001331,0.00000650,0.00001414
 ,-0.00011596,0.00000111,-0.00000484,-0.00007021,-0.00001155,0.00003661
 ,-0.00001347,-0.00001003,0.00005010,0.00000605,-0.00000860,-0.00001454
 ,0.00001240,0.00000516,0.00000153,0.00000671,-0.00000126,-0.00000270,-
 0.00000450,0.00000025,0.00002696,-0.00002392,-0.00000450,0.00000054,-0
 .00000006,0.00000144,-0.00000183,0.00000090,-0.00000037,-0.00000036,-0
 .00000150,0.00000315,-0.00002000,-0.00005044,-0.00000238,-0.00000974,0
 .00002193,0.00001197,0.00097478,0.00034653,-0.00029696,0.07908565,0.09
 568525,0.00000675,-0.00001298,0.00000167,-0.00000113,0.00000352,-0.000
 00095,-0.00000223,0.00000326,0.00000035,-0.00000524,0.00000504,-0.0000
 0164,0.00000444,0.00000236,0.00000273,0.00000853,-0.00000636,-0.000000
 16,-0.00000009,0.00000568,0.00000307,-0.00000201,0.00000864,0.00000120
 ,-0.00000547,-0.00000184,0.00000008,-0.00000528,0.00000129,-0.00000224
 ,0.00001786,-0.00000070,-0.00000166,0.00000995,-0.00001415,-0.00000052
 ,0.00004001,0.00005427,-0.00000445,0.00000875,-0.00008604,-0.00000859,
 -0.00002606,0.00010394,0.00000765,-0.00009710,-0.00010153,-0.00013225,
 -0.00003891,0.00008699,-0.00009476,0.00272390,-0.00154143,0.01036573,-
 0.00208957,0.00064937,-0.00530084,0.00437898,-0.00255373,0.00902714,0.
 01195143,0.00051413,-0.00041850,0.08473576,0.02777450,-0.08274728,-0.0
 0080269,0.00104739,0.00344489,0.00002639,-0.00001750,0.00002006,-0.000
 09723,0.00009120,0.00001491,0.00003727,-0.00000318,0.00001304,0.000018
 80,0.00004763,0.00000143,0.00000842,0.00001308,-0.00000901,-0.00004328
 ,-0.00000754,-0.00000929,0.00001100,-0.00000510,-0.00000144,0.00000064
 ,-0.00000185,0.00000101,0.00000129,-0.00000075,-0.00000106,-0.00001839
 ,0.00001836,0.00000712,-0.00000057,-0.00000014,-0.00000056,0.00000087,
 -0.00000066,0.00000089,0.00000006,0.00000086,-0.00000183,0.00000699,-0
 .00000046,0.00002540,-0.00000238,0.00001575,-0.00001222,0.00024305,0.0
 0024091,-0.00052267,-0.10100405,-0.02633403,0.06633316,-0.00000717,-0.
 00000671,0.00000524,0.00000110,0.00000098,-0.00000111,0.00000201,0.000
 00155,-0.00000232,0.00000868,0.00001176,-0.00002146,-0.00001760,-0.000
 01909,0.00002828,0.00001510,0.00005609,-0.00002217,-0.00002172,-0.0000
 0680,-0.00000254,0.00002755,0.00001418,0.00001406,0.00000608,-0.000026
 46,-0.00002663,-0.00003165,-0.00009923,0.00003230,-0.00038401,-0.00042
 210,0.00023755,-0.00015574,0.00017834,-0.00025437,0.00028817,-0.000109
 96,0.00034060,-0.00003879,-0.00002193,-0.00000365,0.00011720,-0.000035
 55,-0.00003144,-0.00003700,0.00001120,0.00001178,-0.00002436,-0.000036
 09,-0.00000716,0.00000700,0.00005121,0.00000089,0.00000755,-0.00003036
 ,-0.00000708,0.00000202,0.00001595,0.00000241,-0.00000322,-0.00001366,
 -0.00000069,0.00000533,0.00001448,-0.00000026,-0.00001752,-0.00002450,
 0.00000777,-0.00000694,-0.00000672,0.00000587,0.00000240,-0.00001557,-
 0.00000878,-0.00001153,0.00000303,0.00000802,-0.00001728,-0.00000259,0
 .00000823,0.00001281,-0.00000114,0.00000038,0.00047955,0.00036385,-0.0
 0017932,-0.00147236,0.00143775,0.00029957,-0.34343256,-0.03408251,0.06
 436509,-0.00944595,-0.00767509,0.00223218,-0.00049331,0.00278365,0.002
 01587,-0.00000254,-0.00000011,0.00000425,0.00000374,0.00000355,0.00000
 056,-0.00000635,0.00000106,0.00000322,-0.00006686,-0.00001873,-0.00001
 456,-0.00000065,0.00000552,0.00000269,0.00000069,-0.00000113,-0.000000
 43,-0.00000113,-0.00000092,0.00000041,0.35433122,-0.00002366,0.0000148
 4,-0.00000318,0.00000376,-0.00000365,0.00000123,0.00000449,-0.00000366
 ,0.00000292,0.00001033,0.00000215,0.00001124,0.00000651,0.00000189,-0.
 00002600,-0.00005531,-0.00001634,0.00003507,0.00003628,-0.00002008,-0.
 00001388,-0.00000555,0.00000226,-0.00000631,0.00001014,0.00005705,0.00
 004775,-0.00002612,0.00000265,-0.00002248,0.00016432,0.00125135,-0.000
 00668,0.00028660,0.00009625,0.00003994,-0.00028556,0.00109731,0.000017
 31,-0.00002424,-0.00012092,0.00001758,0.00031639,-0.00022208,-0.000033
 57,-0.00017669,0.00009794,0.00005253,-0.00005160,-0.00013205,-0.000032
 90,0.00001616,0.00014732,0.00000581,0.00001559,-0.00008490,-0.00001256
 ,-0.00000176,0.00004967,0.00000505,-0.00000638,-0.00004112,-0.00000108
 ,0.00001021,0.00004432,-0.00000109,-0.00005084,-0.00007487,0.00001553,
 -0.00001501,-0.00002085,0.00000900,-0.00000054,0.00000295,0.00000237,-
 0.00010069,0.00000192,0.00001172,0.00006557,0.00007092,-0.00000294,0.0
 0006419,0.00002906,0.00000240,-0.00158528,-0.00511307,-0.00007870,-0.0
 1787595,-0.00224850,0.00363564,-0.04088547,-0.05351762,0.00708078,0.02
 130480,0.00905295,-0.00420337,0.00248433,-0.00364536,-0.00121016,0.000
 00293,-0.00000051,-0.00000128,0.00000073,0.00000247,0.00001004,0.00000
 627,-0.00000224,-0.00000170,-0.00030651,0.00010042,0.00002095,0.000009
 23,0.00001110,0.00000024,0.00000220,-0.00000462,-0.00000140,-0.0000034
 6,-0.00000300,0.00000095,0.03742616,0.05221390,0.00001036,0.00000338,0
 .00002176,0.00000239,-0.00000360,-0.00000454,-0.00000240,-0.00000441,-
 0.00000726,0.00002019,0.00001415,-0.00005801,-0.00007279,-0.00003413,0
 .00007456,0.00002623,0.00011969,-0.00008364,-0.00009323,-0.00009308,-0
 .00001665,0.00013394,-0.00004258,0.00002421,0.00004168,0.00002538,0.00
 002855,0.00007482,-0.00007725,0.00014829,0.00033775,0.00028732,0.00073
 161,-0.00024522,-0.00005591,-0.00121147,0.00026761,0.00002485,0.001813
 97,0.00002595,-0.00003056,-0.00000069,-0.00001257,-0.00000385,-0.00006
 323,0.00000545,-0.00001604,0.00008008,-0.00002617,0.00000918,-0.000089
 91,-0.00000111,-0.00000627,0.00001521,0.00000103,0.00000007,-0.0000028
 6,-0.00000055,-0.00000165,0.00000130,0.00000091,0.00000155,-0.00000095
 ,0.00000072,-0.00000312,0.00000217,0.00000174,0.00000169,-0.00000104,0
 .00000214,0.00000024,0.00002112,-0.00000379,-0.00000093,-0.00002143,0.
 00000614,-0.00000152,0.00001468,-0.00000123,-0.00000007,0.00002972,0.0
 0002122,-0.00000695,0.00005408,-0.00064294,-0.00033340,-0.00070270,-0.
 00071769,-0.00043134,-0.00039657,0.06405519,0.00569125,-0.03945978,0.0
 0400967,0.00168192,0.00255920,0.00192553,-0.00130631,0.00797260,-0.000
 00606,-0.00000137,0.00000729,0.00000203,0.00000233,-0.00000006,0.00000
 351,-0.00000083,-0.00000871,-0.00001047,0.00000304,-0.00009134,-0.0000
 0096,0.00000080,0.00000158,-0.00000003,-0.00000014,0.00000060,0.000000
 30,0.00000004,0.00000031,-0.06791858,-0.00582749,0.03351439,-0.0002481
 2,0.00013002,-0.00003621,0.00005022,-0.00003006,0.00002711,0.00003898,
 -0.00002041,0.00000319,0.00009007,0.00002138,0.00004806,-0.00001033,-0
 .00003945,-0.00005380,0.00011365,-0.00007490,-0.00000058,0.00037201,-0
 .00007913,0.00032791,-0.00014040,0.00066199,-0.00032848,-0.00033876,0.
 00038021,0.00088448,-0.00072193,-0.00022673,-0.00030753,0.00133825,0.0
 0010620,-0.00038894,-0.00031874,-0.00029661,-0.00004041,0.00036093,-0.
 00132295,-0.00004610,-0.00035360,0.00012249,0.00010765,-0.00019970,0.0
 0011407,0.00001889,0.00010377,-0.00000460,-0.00003079,0.00001862,0.000
 01198,0.00003790,-0.00000130,0.00000168,-0.00001142,0.00000394,0.00000
 360,-0.00000029,-0.00000043,-0.00000652,0.00000272,0.00000328,0.000002
 29,-0.00000261,-0.00000025,-0.00000024,-0.00000037,0.00000400,0.000007
 59,-0.00000318,-0.00003232,0.00003446,-0.00000623,-0.00002891,-0.00003
 807,0.00000319,0.00003629,-0.00000704,-0.00000860,-0.00000259,-0.00001
 980,-0.00000474,-0.00000801,-0.00017228,-0.00000825,-0.00532595,-0.000
 75941,0.00118834,-0.00071676,0.00376244,0.00174234,0.00778303,0.020827
 50,0.00096366,-0.07057366,-0.06666943,0.00405537,0.00047019,-0.0263699
 4,-0.00102805,0.00000843,0.00000707,0.00000644,0.00001948,0.00000208,0
 .00002407,0.00004630,-0.00001317,-0.00003803,0.00007937,-0.00002779,-0
 .00000954,-0.00000954,-0.00001499,0.00000392,-0.00000047,-0.00000004,0
 .00000013,0.00000061,0.00000045,0.00000011,0.00037804,-0.00076657,-0.0
 0122068,0.06771233,-0.00001353,-0.00003047,0.00001186,0.00000669,0.000
 00523,-0.00000088,-0.00000384,0.00000925,0.00000165,-0.00001696,0.0000
 0019,0.00000812,0.00004733,0.00005158,-0.00007758,-0.00013585,0.000052
 80,0.00014303,0.00005753,-0.00015651,-0.00001887,0.00027261,0.00010469
 ,-0.00022210,0.00071809,-0.00107587,-0.00070295,-0.00003515,0.00025568
 ,0.00003177,0.00035070,-0.00027492,-0.00009544,-0.00014975,-0.00005775
 ,0.00006304,0.00001504,-0.00013123,-0.00001324,-0.00001481,0.00000408,
 -0.00005948,0.00007831,-0.00003114,0.00006049,-0.00004002,0.00003224,-
 0.00001497,-0.00000632,-0.00005031,-0.00000060,0.00001105,0.00008517,0
 .00000374,0.00000694,-0.00004731,-0.00000524,0.00000190,0.00002776,0.0
 0000212,-0.00000498,-0.00002390,0.00000008,0.00000844,0.00002582,-0.00
 000295,-0.00003048,-0.00004008,0.00000576,-0.00000819,-0.00000767,0.00
 000485,-0.00000658,-0.00002636,0.00000214,-0.00000541,0.00001172,-0.00
 000213,-0.00000749,-0.00000393,-0.00000348,0.00000849,-0.00000614,0.00
 001345,0.00007344,0.00030689,0.00004513,0.00116807,0.00003737,-0.00067
 288,-0.00593817,-0.01623353,-0.00013958,-0.06797783,-0.33067221,-0.001
 24765,0.00063069,-0.00283074,-0.00035250,-0.00000612,0.00000340,0.0000
 0350,-0.00001458,-0.00001109,0.00001120,0.00001984,-0.00002898,0.00000
 754,-0.00009682,0.00002413,-0.00000979,-0.00000101,0.00000549,-0.00000
 453,0.00000135,-0.00000192,-0.00000076,-0.00000188,-0.00000137,0.00000
 083,0.00027664,0.00092474,0.00041594,0.07076264,0.34977519,0.00015689,
 -0.00009281,0.00008415,-0.00002896,0.00002486,-0.00003701,-0.00002907,
 0.00001122,-0.00001564,-0.00006215,0.00000757,-0.00009771,-0.00001594,
 0.00007695,-0.00002039,-0.00028987,0.00009465,0.00014875,-0.00043090,0
 .00006588,-0.00035630,0.00013892,-0.00079498,0.00023072,0.00104266,-0.
 00008324,-0.00051483,0.00044720,0.00030626,0.00010497,-0.00035858,-0.0
 0012894,-0.00108851,0.00001240,0.00009805,-0.00019670,0.00001905,0.000
 15322,0.00056790,0.00010326,0.00000519,0.00002732,0.00003328,-0.000013
 73,-0.00012683,-0.00001406,0.00001556,0.00005003,0.00001397,-0.0000160
 3,-0.00000560,-0.00000883,0.00002854,-0.00001688,0.00000342,-0.0000120
 9,-0.00000904,0.00000072,0.00000682,0.00000577,-0.00000021,-0.00000657
 ,-0.00000468,0.00000347,0.00000841,0.00000498,-0.00000910,-0.00000986,
 -0.00000026,0.00000541,-0.00001248,0.00000217,0.00000657,0.00000317,0.
 00000012,-0.00001383,0.00000340,0.00000112,0.00000861,0.00000025,-0.00
 000172,-0.00001460,0.00004208,-0.00001279,0.00136379,0.00004983,0.0010
 8502,0.00144511,-0.00120271,0.00607625,-0.00032767,-0.00559849,0.00631
 682,0.00385276,-0.00123630,-0.03428819,0.00001668,0.00491892,0.0020300
 3,-0.00001916,-0.00001816,0.00000926,-0.00002524,-0.00001696,-0.000004
 10,-0.00001879,0.00002549,0.00003307,-0.00001247,0.00002156,0.00008350
 ,0.00000016,0.00000404,0.00000735,0.00000074,-0.00000059,0.00000073,-0
 .00000028,-0.00000005,0.00000009,-0.00112469,0.00046073,-0.00489644,-0
 .00587067,0.00281135,0.02482352\\-0.00004354,0.00000295,-0.00002282,0.
 00000064,-0.00000387,-0.00000077,0.00000186,-0.00000615,0.00000677,0.0
 0001329,0.00001071,0.00001435,-0.00000889,0.00000681,-0.00000385,0.000
 00569,0.00000636,-0.00000188,0.00002229,-0.00001989,0.00001912,-0.0000
 1206,0.00001418,-0.00000193,0.00000860,-0.00001241,0.00000020,0.000002
 58,0.00000261,0.00000377,0.00000411,-0.00000876,-0.00000734,-0.0000116
 8,0.00002736,0.00000496,0.00002651,-0.00002229,-0.00000481,0.00000211,
 0.00000010,-0.00000331,-0.00000186,-0.00000367,-0.00000443,0.00000215,
 0.00000252,-0.00000045,0.00000099,-0.00000365,-0.00000024,0.00000114,0
 .00000185,0.00000094,0.00000127,0.00000028,-0.00000166,0.00000122,0.00
 000096,0.00000031,0.,0.00000033,-0.00000284,0.00000271,-0.00000035,0.0
 0000722,-0.00000054,-0.00000150,-0.00000216,-0.00000685,-0.00000688,-0
 .00000423,-0.00000028,0.00001253,0.00000596,0.00002032,-0.00000509,-0.
 00000176,-0.00000845,-0.00001390,0.00000287,-0.00000619,0.00001444,0.0
 0000220,-0.00001450,0.00000363,0.00000426,0.00000884,0.00001375,-0.000
 00356,-0.00000268,-0.00001308,0.00000242,-0.00000841,-0.00000900,-0.00
 001061,0.00000169,0.00000304,0.00000776,-0.00000107,0.00000469,0.00000
 175,-0.00000057,-0.00000188,0.00000579,0.00000230,-0.00000048,-0.00000
 100,0.00000040,0.00000139,-0.00000156,-0.00000004,-0.00000044,-0.00000
 102,0.00000006,0.00000080,-0.00000191,0.00000096,-0.00000009,-0.000001
 55,-0.00000229,0.00000128,-0.00000783,-0.00000185,0.00000082,0.0000028
 6\\\@


 THERE'S NOTHING SO GREAT AS THE GREAT OUTDOORS.

                                       -- ZIGGY
 Job cpu time:  1 days  0 hours 50 minutes  0.4 seconds.
 File lengths (MBytes):  RWF=   2204 Int=      0 D2E=      0 Chk=     35 Scr=      1
 Normal termination of Gaussian 09 at Sun Dec 29 19:59:30 2013.
