 Entering Gaussian System, Link 0=g09
 Initial command:
 /opt/gaussian/g09/l1.exe /panfs/panfs.cluster/home/shuo/Gau-25713.inp -scrdir=/panfs/panfs.cluster/home/shuo/
 Default is to use a total of  12 processors:
                               12 via shared-memory
                                1 via Linda
 Entering Link 1 = /opt/gaussian/g09/l1.exe PID=     25714.
  
 Copyright (c) 1988,1990,1992,1993,1995,1998,2003,2009,2011,
            Gaussian, Inc.  All Rights Reserved.
  
 This is part of the Gaussian(R) 09 program.  It is based on
 the Gaussian(R) 03 system (copyright 2003, Gaussian, Inc.),
 the Gaussian(R) 98 system (copyright 1998, Gaussian, Inc.),
 the Gaussian(R) 94 system (copyright 1995, Gaussian, Inc.),
 the Gaussian 92(TM) system (copyright 1992, Gaussian, Inc.),
 the Gaussian 90(TM) system (copyright 1990, Gaussian, Inc.),
 the Gaussian 88(TM) system (copyright 1988, Gaussian, Inc.),
 the Gaussian 86(TM) system (copyright 1986, Carnegie Mellon
 University), and the Gaussian 82(TM) system (copyright 1983,
 Carnegie Mellon University). Gaussian is a federally registered
 trademark of Gaussian, Inc.
  
 This software contains proprietary and confidential information,
 including trade secrets, belonging to Gaussian, Inc.
  
 This software is provided under written license and may be
 used, copied, transmitted, or stored only in accord with that
 written license.
  
 The following legend is applicable only to US Government
 contracts under FAR:
  
                    RESTRICTED RIGHTS LEGEND
  
 Use, reproduction and disclosure by the US Government is
 subject to restrictions as set forth in subparagraphs (a)
 and (c) of the Commercial Computer Software - Restricted
 Rights clause in FAR 52.227-19.
  
 Gaussian, Inc.
 340 Quinnipiac St., Bldg. 40, Wallingford CT 06492
  
  
 ---------------------------------------------------------------
 Warning -- This program may not be used in any manner that
 competes with the business of Gaussian, Inc. or will provide
 assistance to any competitor of Gaussian, Inc.  The licensee
 of this program is prohibited from giving any competitor of
 Gaussian, Inc. access to this program.  By using this program,
 the user acknowledges that Gaussian, Inc. is engaged in the
 business of creating and licensing software in the field of
 computational chemistry and represents and warrants to the
 licensee that it is not a competitor of Gaussian, Inc. and that
 it will not use this program in any manner prohibited above.
 ---------------------------------------------------------------
  

 Cite this work as:
 Gaussian 09, Revision C.01,
 M. J. Frisch, G. W. Trucks, H. B. Schlegel, G. E. Scuseria, 
 M. A. Robb, J. R. Cheeseman, G. Scalmani, V. Barone, B. Mennucci, 
 G. A. Petersson, H. Nakatsuji, M. Caricato, X. Li, H. P. Hratchian, 
 A. F. Izmaylov, J. Bloino, G. Zheng, J. L. Sonnenberg, M. Hada, 
 M. Ehara, K. Toyota, R. Fukuda, J. Hasegawa, M. Ishida, T. Nakajima, 
 Y. Honda, O. Kitao, H. Nakai, T. Vreven, J. A. Montgomery, Jr., 
 J. E. Peralta, F. Ogliaro, M. Bearpark, J. J. Heyd, E. Brothers, 
 K. N. Kudin, V. N. Staroverov, T. Keith, R. Kobayashi, J. Normand, 
 K. Raghavachari, A. Rendell, J. C. Burant, S. S. Iyengar, J. Tomasi, 
 M. Cossi, N. Rega, J. M. Millam, M. Klene, J. E. Knox, J. B. Cross, 
 V. Bakken, C. Adamo, J. Jaramillo, R. Gomperts, R. E. Stratmann, 
 O. Yazyev, A. J. Austin, R. Cammi, C. Pomelli, J. W. Ochterski, 
 R. L. Martin, K. Morokuma, V. G. Zakrzewski, G. A. Voth, 
 P. Salvador, J. J. Dannenberg, S. Dapprich, A. D. Daniels, 
 O. Farkas, J. B. Foresman, J. V. Ortiz, J. Cioslowski, 
 and D. J. Fox, Gaussian, Inc., Wallingford CT, 2010.
 
 ******************************************
 Gaussian 09:  EM64L-G09RevC.01 23-Sep-2011
                30-Dec-2013 
 ******************************************
 %chk=99_C23H13N3S3Si2.chk
 %NProcShared=12
 Will use up to   12 processors via shared memory.
 %Mem=8000MB
 Default route:  MaxDisk=100GB
 --------------------------------------------
 #B3LYP/6-31++G(d,p) opt scf=direct freq test
 --------------------------------------------
 1/14=-1,18=20,19=15,26=3,38=1/1,3;
 2/9=110,12=2,17=6,18=5,40=1/2;
 3/5=1,6=6,7=1111,11=2,16=1,25=1,30=1,71=1,74=-5/1,2,3;
 4//1;
 5/5=2,38=5/2;
 6/7=2,8=2,9=2,10=2,28=1/1;
 7//1,2,3,16;
 1/14=-1,18=20,19=15/3(2);
 2/9=110/2;
 99//99;
 2/9=110/2;
 3/5=1,6=6,7=1111,11=2,16=1,25=1,30=1,71=1,74=-5/1,2,3;
 4/5=5,16=3/1;
 5/5=2,38=5/2;
 7//1,2,3,16;
 1/14=-1,18=20,19=15/3(-5);
 2/9=110/2;
 6/7=2,8=2,9=2,10=2,19=2,28=1/1;
 99/9=1/99;
 ----------------------------------------------------------------------
 Geom opt of No.99 candidate from the CEPDB database with SMILE code of
  [SiH2]1cc2cccc(-c3ccc(-c4ncc(-c5[SiH2]ccc5)c5nsnc45)c4nsnc34)c2c1, HP
 C, 20131227, Shuo Dai, Gaussian09
 ----------------------------------------------------------------------
 Charge =  0 Multiplicity = 1
 Symbolic Z-Matrix:
 Si                   -2.96893  -0.23352   0.02864 
 H                    -3.64862  -0.76523  -1.19752 
 H                    -3.58787  -0.75164   1.28834 
 C                    -1.87363   1.34191   0.02297 
 C                    -0.39568   0.93698   0.00325 
 C                     0.69943   1.77635   0.00087 
 C                     1.99128   1.22951  -0.00028 
 C                     2.20057  -0.15712  -0.00584 
 C                     1.12782  -1.05774  -0.01419 
 C                     1.35435  -2.53525  -0.01907 
 C                     2.6596   -3.11338  -0.01272 
 C                     2.90899  -4.49853  -0.01539 
 C                     1.89063  -5.46411   0.00849 
 C                     2.10214  -6.87547  -0.01833 
 N                     3.42659  -7.24853  -0.01656 
 C                     3.78934  -8.54347   0.01442 
 C                     2.90407  -9.60028   0.05218 
 C                     3.24337  -11.01953   0.04301 
 Si                    3.53619  -12.3376   1.30516 
 H                     4.89065  -12.25952   1.86919 
 H                     2.34148  -12.38834   2.20724 
 C                     3.31024  -13.58643  -0.1061 
 C                     3.3342   -13.01397  -1.32656 
 C                     3.50538  -11.52084  -1.37784 
 C                     1.52838  -9.2661   -0.04113 
 N                     0.51731  -10.16103  -0.11446 
 S                    -0.89006  -9.3454   -0.05646 
 N                    -0.23762  -7.87026  -0.09677 
 C                     1.10383  -7.89911  -0.05597 
 C                     0.5833   -4.95007   0.05291 
 N                    -0.52393  -5.64643   0.19715 
 S                    -1.8434   -4.76405   0.03119 
 N                    -1.0031   -3.42586  -0.11724 
 C                     0.33099  -3.5372   -0.0177 
 C                    -0.14814  -0.43908  -0.00286 
 C                    -1.4191   -1.18215  -0.00142 
 H                    -2.11792   1.86218   0.94783 
 H                    -2.14445   1.89335  -0.87605 
 H                     0.57024   2.85027   0.00336 
 H                     2.86167   1.88      0.00454 
 H                     3.23443  -0.49471  -0.00237 
 H                     3.55039  -2.49013  -0.01927 
 H                     3.95387  -4.82568  -0.03178 
 H                     4.8648   -8.69951   0.00268 
 H                     2.23115  -11.32028   0.29805 
 H                     3.10902  -14.62217   0.10653 
 H                     3.21694  -13.56498  -2.25074 
 H                     2.80242  -11.06969  -2.09386 
 H                     4.51581  -11.26025  -1.70788 
 H                    -1.43788  -1.72064   0.9519 
 H                    -1.45688  -1.66826  -0.9823 
 

 GradGradGradGradGradGradGradGradGradGradGradGradGradGradGradGradGradGrad
 Berny optimization.
 Initialization pass.
                           ----------------------------
                           !    Initial Parameters    !
                           ! (Angstroms and Degrees)  !
 --------------------------                            --------------------------
 ! Name  Definition              Value          Derivative Info.                !
 --------------------------------------------------------------------------------
 ! R1    R(1,2)                  1.4994         estimate D2E/DX2                !
 ! R2    R(1,3)                  1.4961         estimate D2E/DX2                !
 ! R3    R(1,4)                  1.9188         estimate D2E/DX2                !
 ! R4    R(1,36)                 1.8174         estimate D2E/DX2                !
 ! R5    R(4,5)                  1.5325         estimate D2E/DX2                !
 ! R6    R(4,37)                 1.0889         estimate D2E/DX2                !
 ! R7    R(4,38)                 1.0889         estimate D2E/DX2                !
 ! R8    R(5,6)                  1.3798         estimate D2E/DX2                !
 ! R9    R(5,35)                 1.3982         estimate D2E/DX2                !
 ! R10   R(6,7)                  1.4028         estimate D2E/DX2                !
 ! R11   R(6,39)                 1.0817         estimate D2E/DX2                !
 ! R12   R(7,8)                  1.4023         estimate D2E/DX2                !
 ! R13   R(7,40)                 1.0866         estimate D2E/DX2                !
 ! R14   R(8,9)                  1.4007         estimate D2E/DX2                !
 ! R15   R(8,41)                 1.0876         estimate D2E/DX2                !
 ! R16   R(9,10)                 1.4948         estimate D2E/DX2                !
 ! R17   R(9,35)                 1.4181         estimate D2E/DX2                !
 ! R18   R(10,11)                1.4276         estimate D2E/DX2                !
 ! R19   R(10,34)                1.4322         estimate D2E/DX2                !
 ! R20   R(11,12)                1.4074         estimate D2E/DX2                !
 ! R21   R(11,42)                1.0872         estimate D2E/DX2                !
 ! R22   R(12,13)                1.4036         estimate D2E/DX2                !
 ! R23   R(12,43)                1.095          estimate D2E/DX2                !
 ! R24   R(13,14)                1.4274         estimate D2E/DX2                !
 ! R25   R(13,30)                1.4055         estimate D2E/DX2                !
 ! R26   R(14,15)                1.376          estimate D2E/DX2                !
 ! R27   R(14,29)                1.4303         estimate D2E/DX2                !
 ! R28   R(15,16)                1.3451         estimate D2E/DX2                !
 ! R29   R(16,17)                1.3791         estimate D2E/DX2                !
 ! R30   R(16,44)                1.0868         estimate D2E/DX2                !
 ! R31   R(17,18)                1.4593         estimate D2E/DX2                !
 ! R32   R(17,25)                1.4188         estimate D2E/DX2                !
 ! R33   R(18,19)                1.8483         estimate D2E/DX2                !
 ! R34   R(18,24)                1.5293         estimate D2E/DX2                !
 ! R35   R(18,45)                1.0863         estimate D2E/DX2                !
 ! R36   R(19,20)                1.4693         estimate D2E/DX2                !
 ! R37   R(19,21)                1.4979         estimate D2E/DX2                !
 ! R38   R(19,22)                1.898          estimate D2E/DX2                !
 ! R39   R(22,23)                1.3483         estimate D2E/DX2                !
 ! R40   R(22,46)                1.0763         estimate D2E/DX2                !
 ! R41   R(23,24)                1.5038         estimate D2E/DX2                !
 ! R42   R(23,47)                1.0823         estimate D2E/DX2                !
 ! R43   R(24,48)                1.1002         estimate D2E/DX2                !
 ! R44   R(24,49)                1.0944         estimate D2E/DX2                !
 ! R45   R(25,26)                1.3522         estimate D2E/DX2                !
 ! R46   R(25,29)                1.4315         estimate D2E/DX2                !
 ! R47   R(26,27)                1.6277         estimate D2E/DX2                !
 ! R48   R(27,28)                1.6135         estimate D2E/DX2                !
 ! R49   R(28,29)                1.3424         estimate D2E/DX2                !
 ! R50   R(30,31)                1.3159         estimate D2E/DX2                !
 ! R51   R(30,34)                1.437          estimate D2E/DX2                !
 ! R52   R(31,32)                1.596          estimate D2E/DX2                !
 ! R53   R(32,33)                1.5871         estimate D2E/DX2                !
 ! R54   R(33,34)                1.3424         estimate D2E/DX2                !
 ! R55   R(35,36)                1.4722         estimate D2E/DX2                !
 ! R56   R(36,50)                1.0951         estimate D2E/DX2                !
 ! R57   R(36,51)                1.0954         estimate D2E/DX2                !
 ! A1    A(2,1,3)              112.2226         estimate D2E/DX2                !
 ! A2    A(2,1,4)              123.1965         estimate D2E/DX2                !
 ! A3    A(2,1,36)             100.8332         estimate D2E/DX2                !
 ! A4    A(3,1,4)              121.5324         estimate D2E/DX2                !
 ! A5    A(3,1,36)             100.7169         estimate D2E/DX2                !
 ! A6    A(4,1,36)              86.6594         estimate D2E/DX2                !
 ! A7    A(1,4,5)              109.4871         estimate D2E/DX2                !
 ! A8    A(1,4,37)             105.1723         estimate D2E/DX2                !
 ! A9    A(1,4,38)             106.0379         estimate D2E/DX2                !
 ! A10   A(5,4,37)             110.7029         estimate D2E/DX2                !
 ! A11   A(5,4,38)             111.2869         estimate D2E/DX2                !
 ! A12   A(37,4,38)            113.7963         estimate D2E/DX2                !
 ! A13   A(4,5,6)              127.2069         estimate D2E/DX2                !
 ! A14   A(4,5,35)             115.5209         estimate D2E/DX2                !
 ! A15   A(6,5,35)             117.2704         estimate D2E/DX2                !
 ! A16   A(5,6,7)              119.588          estimate D2E/DX2                !
 ! A17   A(5,6,39)             120.6091         estimate D2E/DX2                !
 ! A18   A(7,6,39)             119.8025         estimate D2E/DX2                !
 ! A19   A(6,7,8)              121.526          estimate D2E/DX2                !
 ! A20   A(6,7,40)             120.2837         estimate D2E/DX2                !
 ! A21   A(8,7,40)             118.1903         estimate D2E/DX2                !
 ! A22   A(7,8,9)              121.4325         estimate D2E/DX2                !
 ! A23   A(7,8,41)             116.6655         estimate D2E/DX2                !
 ! A24   A(9,8,41)             121.902          estimate D2E/DX2                !
 ! A25   A(8,9,10)             121.2988         estimate D2E/DX2                !
 ! A26   A(8,9,35)             114.114          estimate D2E/DX2                !
 ! A27   A(10,9,35)            124.5838         estimate D2E/DX2                !
 ! A28   A(9,10,11)            122.6049         estimate D2E/DX2                !
 ! A29   A(9,10,34)            125.6772         estimate D2E/DX2                !
 ! A30   A(11,10,34)           111.7153         estimate D2E/DX2                !
 ! A31   A(10,11,12)           124.0953         estimate D2E/DX2                !
 ! A32   A(10,11,42)           121.1285         estimate D2E/DX2                !
 ! A33   A(12,11,42)           114.7712         estimate D2E/DX2                !
 ! A34   A(11,12,13)           123.2619         estimate D2E/DX2                !
 ! A35   A(11,12,43)           117.5902         estimate D2E/DX2                !
 ! A36   A(13,12,43)           119.1472         estimate D2E/DX2                !
 ! A37   A(12,13,14)           124.9178         estimate D2E/DX2                !
 ! A38   A(12,13,30)           115.076          estimate D2E/DX2                !
 ! A39   A(14,13,30)           120.0047         estimate D2E/DX2                !
 ! A40   A(13,14,15)           114.248          estimate D2E/DX2                !
 ! A41   A(13,14,29)           127.2075         estimate D2E/DX2                !
 ! A42   A(15,14,29)           118.5426         estimate D2E/DX2                !
 ! A43   A(14,15,16)           121.3728         estimate D2E/DX2                !
 ! A44   A(15,16,17)           124.4173         estimate D2E/DX2                !
 ! A45   A(15,16,44)           113.8808         estimate D2E/DX2                !
 ! A46   A(17,16,44)           121.7014         estimate D2E/DX2                !
 ! A47   A(16,17,18)           126.5733         estimate D2E/DX2                !
 ! A48   A(16,17,25)           116.1117         estimate D2E/DX2                !
 ! A49   A(18,17,25)           117.0084         estimate D2E/DX2                !
 ! A50   A(17,18,19)           136.5626         estimate D2E/DX2                !
 ! A51   A(17,18,24)           111.3759         estimate D2E/DX2                !
 ! A52   A(17,18,45)            92.9309         estimate D2E/DX2                !
 ! A53   A(19,18,24)           111.9343         estimate D2E/DX2                !
 ! A54   A(19,18,45)            77.8697         estimate D2E/DX2                !
 ! A55   A(24,18,45)           106.6792         estimate D2E/DX2                !
 ! A56   A(18,19,20)           111.734          estimate D2E/DX2                !
 ! A57   A(18,19,21)           108.0021         estimate D2E/DX2                !
 ! A58   A(18,19,22)            86.7097         estimate D2E/DX2                !
 ! A59   A(20,19,21)           120.3898         estimate D2E/DX2                !
 ! A60   A(20,19,22)           115.4772         estimate D2E/DX2                !
 ! A61   A(21,19,22)           109.3027         estimate D2E/DX2                !
 ! A62   A(19,22,23)           113.0536         estimate D2E/DX2                !
 ! A63   A(19,22,46)           120.5666         estimate D2E/DX2                !
 ! A64   A(23,22,46)           126.2091         estimate D2E/DX2                !
 ! A65   A(22,23,24)           117.0311         estimate D2E/DX2                !
 ! A66   A(22,23,47)           123.7004         estimate D2E/DX2                !
 ! A67   A(24,23,47)           119.255          estimate D2E/DX2                !
 ! A68   A(18,24,23)           105.92           estimate D2E/DX2                !
 ! A69   A(18,24,48)           111.148          estimate D2E/DX2                !
 ! A70   A(18,24,49)           111.1185         estimate D2E/DX2                !
 ! A71   A(23,24,48)           110.8932         estimate D2E/DX2                !
 ! A72   A(23,24,49)           110.5971         estimate D2E/DX2                !
 ! A73   A(48,24,49)           107.2178         estimate D2E/DX2                !
 ! A74   A(17,25,26)           124.9374         estimate D2E/DX2                !
 ! A75   A(17,25,29)           120.8765         estimate D2E/DX2                !
 ! A76   A(26,25,29)           114.185          estimate D2E/DX2                !
 ! A77   A(25,26,27)           108.2361         estimate D2E/DX2                !
 ! A78   A(26,27,28)            96.1775         estimate D2E/DX2                !
 ! A79   A(27,28,29)           112.5617         estimate D2E/DX2                !
 ! A80   A(14,29,25)           118.4342         estimate D2E/DX2                !
 ! A81   A(14,29,28)           133.0697         estimate D2E/DX2                !
 ! A82   A(25,29,28)           108.4946         estimate D2E/DX2                !
 ! A83   A(13,30,31)           126.34           estimate D2E/DX2                !
 ! A84   A(13,30,34)           121.4253         estimate D2E/DX2                !
 ! A85   A(31,30,34)           112.2069         estimate D2E/DX2                !
 ! A86   A(30,31,32)           113.0579         estimate D2E/DX2                !
 ! A87   A(31,32,33)            92.1873         estimate D2E/DX2                !
 ! A88   A(32,33,34)           116.699          estimate D2E/DX2                !
 ! A89   A(10,34,30)           124.2253         estimate D2E/DX2                !
 ! A90   A(10,34,33)           130.6934         estimate D2E/DX2                !
 ! A91   A(30,34,33)           105.0516         estimate D2E/DX2                !
 ! A92   A(5,35,9)             126.0655         estimate D2E/DX2                !
 ! A93   A(5,35,36)            110.1144         estimate D2E/DX2                !
 ! A94   A(9,35,36)            123.8197         estimate D2E/DX2                !
 ! A95   A(1,36,35)            118.2138         estimate D2E/DX2                !
 ! A96   A(1,36,50)            103.1593         estimate D2E/DX2                !
 ! A97   A(1,36,51)            102.5356         estimate D2E/DX2                !
 ! A98   A(35,36,50)           105.2987         estimate D2E/DX2                !
 ! A99   A(35,36,51)           104.6483         estimate D2E/DX2                !
 ! A100  A(50,36,51)           124.1076         estimate D2E/DX2                !
 ! D1    D(2,1,4,5)           -100.9833         estimate D2E/DX2                !
 ! D2    D(2,1,4,37)           140.0366         estimate D2E/DX2                !
 ! D3    D(2,1,4,38)            19.1767         estimate D2E/DX2                !
 ! D4    D(3,1,4,5)            100.3113         estimate D2E/DX2                !
 ! D5    D(3,1,4,37)           -18.6688         estimate D2E/DX2                !
 ! D6    D(3,1,4,38)          -139.5287         estimate D2E/DX2                !
 ! D7    D(36,1,4,5)            -0.2173         estimate D2E/DX2                !
 ! D8    D(36,1,4,37)         -119.1975         estimate D2E/DX2                !
 ! D9    D(36,1,4,38)          119.9426         estimate D2E/DX2                !
 ! D10   D(2,1,36,35)          123.7361         estimate D2E/DX2                !
 ! D11   D(2,1,36,50)         -120.6099         estimate D2E/DX2                !
 ! D12   D(2,1,36,51)            9.3251         estimate D2E/DX2                !
 ! D13   D(3,1,36,35)         -120.9155         estimate D2E/DX2                !
 ! D14   D(3,1,36,50)           -5.2615         estimate D2E/DX2                !
 ! D15   D(3,1,36,51)          124.6734         estimate D2E/DX2                !
 ! D16   D(4,1,36,35)            0.5592         estimate D2E/DX2                !
 ! D17   D(4,1,36,50)          116.2132         estimate D2E/DX2                !
 ! D18   D(4,1,36,51)         -113.8518         estimate D2E/DX2                !
 ! D19   D(1,4,5,6)           -179.6456         estimate D2E/DX2                !
 ! D20   D(1,4,5,35)            -0.1558         estimate D2E/DX2                !
 ! D21   D(37,4,5,6)           -64.1447         estimate D2E/DX2                !
 ! D22   D(37,4,5,35)          115.3451         estimate D2E/DX2                !
 ! D23   D(38,4,5,6)            63.4571         estimate D2E/DX2                !
 ! D24   D(38,4,5,35)         -117.0531         estimate D2E/DX2                !
 ! D25   D(4,5,6,7)            179.1472         estimate D2E/DX2                !
 ! D26   D(4,5,6,39)            -0.6389         estimate D2E/DX2                !
 ! D27   D(35,5,6,7)            -0.3347         estimate D2E/DX2                !
 ! D28   D(35,5,6,39)          179.8791         estimate D2E/DX2                !
 ! D29   D(4,5,35,9)          -179.6865         estimate D2E/DX2                !
 ! D30   D(4,5,35,36)            0.5461         estimate D2E/DX2                !
 ! D31   D(6,5,35,9)            -0.1437         estimate D2E/DX2                !
 ! D32   D(6,5,35,36)         -179.9111         estimate D2E/DX2                !
 ! D33   D(5,6,7,8)              0.3247         estimate D2E/DX2                !
 ! D34   D(5,6,7,40)          -179.5913         estimate D2E/DX2                !
 ! D35   D(39,6,7,8)          -179.8874         estimate D2E/DX2                !
 ! D36   D(39,6,7,40)            0.1966         estimate D2E/DX2                !
 ! D37   D(6,7,8,9)              0.1772         estimate D2E/DX2                !
 ! D38   D(6,7,8,41)          -179.7656         estimate D2E/DX2                !
 ! D39   D(40,7,8,9)          -179.9051         estimate D2E/DX2                !
 ! D40   D(40,7,8,41)            0.152          estimate D2E/DX2                !
 ! D41   D(7,8,9,10)          -179.9538         estimate D2E/DX2                !
 ! D42   D(7,8,9,35)            -0.597          estimate D2E/DX2                !
 ! D43   D(41,8,9,10)           -0.014          estimate D2E/DX2                !
 ! D44   D(41,8,9,35)          179.3428         estimate D2E/DX2                !
 ! D45   D(8,9,10,11)            0.1362         estimate D2E/DX2                !
 ! D46   D(8,9,10,34)          179.5122         estimate D2E/DX2                !
 ! D47   D(35,9,10,11)        -179.1507         estimate D2E/DX2                !
 ! D48   D(35,9,10,34)           0.2253         estimate D2E/DX2                !
 ! D49   D(8,9,35,5)             0.6028         estimate D2E/DX2                !
 ! D50   D(8,9,35,36)         -179.6601         estimate D2E/DX2                !
 ! D51   D(10,9,35,5)          179.9352         estimate D2E/DX2                !
 ! D52   D(10,9,35,36)          -0.3276         estimate D2E/DX2                !
 ! D53   D(9,10,11,12)         179.9187         estimate D2E/DX2                !
 ! D54   D(9,10,11,42)          -0.9423         estimate D2E/DX2                !
 ! D55   D(34,10,11,12)          0.4643         estimate D2E/DX2                !
 ! D56   D(34,10,11,42)        179.6033         estimate D2E/DX2                !
 ! D57   D(9,10,34,30)        -176.3606         estimate D2E/DX2                !
 ! D58   D(9,10,34,33)           5.9292         estimate D2E/DX2                !
 ! D59   D(11,10,34,30)          3.0736         estimate D2E/DX2                !
 ! D60   D(11,10,34,33)       -174.6366         estimate D2E/DX2                !
 ! D61   D(10,11,12,13)         -1.6186         estimate D2E/DX2                !
 ! D62   D(10,11,12,43)        178.7078         estimate D2E/DX2                !
 ! D63   D(42,11,12,13)        179.1931         estimate D2E/DX2                !
 ! D64   D(42,11,12,43)         -0.4805         estimate D2E/DX2                !
 ! D65   D(11,12,13,14)        178.7754         estimate D2E/DX2                !
 ! D66   D(11,12,13,30)         -0.774          estimate D2E/DX2                !
 ! D67   D(43,12,13,14)         -1.5558         estimate D2E/DX2                !
 ! D68   D(43,12,13,30)        178.8948         estimate D2E/DX2                !
 ! D69   D(12,13,14,15)          2.5069         estimate D2E/DX2                !
 ! D70   D(12,13,14,29)       -176.9829         estimate D2E/DX2                !
 ! D71   D(30,13,14,15)       -177.9643         estimate D2E/DX2                !
 ! D72   D(30,13,14,29)          2.5458         estimate D2E/DX2                !
 ! D73   D(12,13,30,31)       -173.7476         estimate D2E/DX2                !
 ! D74   D(12,13,30,34)          4.1833         estimate D2E/DX2                !
 ! D75   D(14,13,30,31)          6.679          estimate D2E/DX2                !
 ! D76   D(14,13,30,34)       -175.39           estimate D2E/DX2                !
 ! D77   D(13,14,15,16)        177.2852         estimate D2E/DX2                !
 ! D78   D(29,14,15,16)         -3.1773         estimate D2E/DX2                !
 ! D79   D(13,14,29,25)       -178.3004         estimate D2E/DX2                !
 ! D80   D(13,14,29,28)          1.1818         estimate D2E/DX2                !
 ! D81   D(15,14,29,25)          2.229          estimate D2E/DX2                !
 ! D82   D(15,14,29,28)       -178.2888         estimate D2E/DX2                !
 ! D83   D(14,15,16,17)         -0.2793         estimate D2E/DX2                !
 ! D84   D(14,15,16,44)        179.4569         estimate D2E/DX2                !
 ! D85   D(15,16,17,18)        177.862          estimate D2E/DX2                !
 ! D86   D(15,16,17,25)          4.4486         estimate D2E/DX2                !
 ! D87   D(44,16,17,18)         -1.8546         estimate D2E/DX2                !
 ! D88   D(44,16,17,25)       -175.268          estimate D2E/DX2                !
 ! D89   D(16,17,18,19)         93.1986         estimate D2E/DX2                !
 ! D90   D(16,17,18,24)        -82.2073         estimate D2E/DX2                !
 ! D91   D(16,17,18,45)        168.6054         estimate D2E/DX2                !
 ! D92   D(25,17,18,19)        -93.44           estimate D2E/DX2                !
 ! D93   D(25,17,18,24)         91.1541         estimate D2E/DX2                !
 ! D94   D(25,17,18,45)        -18.0332         estimate D2E/DX2                !
 ! D95   D(16,17,25,26)        175.2355         estimate D2E/DX2                !
 ! D96   D(16,17,25,29)         -5.1689         estimate D2E/DX2                !
 ! D97   D(18,17,25,26)          1.1702         estimate D2E/DX2                !
 ! D98   D(18,17,25,29)       -179.2342         estimate D2E/DX2                !
 ! D99   D(17,18,19,20)        -80.2066         estimate D2E/DX2                !
 ! D100  D(17,18,19,21)         54.3946         estimate D2E/DX2                !
 ! D101  D(17,18,19,22)        163.631          estimate D2E/DX2                !
 ! D102  D(24,18,19,20)         95.1814         estimate D2E/DX2                !
 ! D103  D(24,18,19,21)       -130.2174         estimate D2E/DX2                !
 ! D104  D(24,18,19,22)        -20.981          estimate D2E/DX2                !
 ! D105  D(45,18,19,20)       -161.526          estimate D2E/DX2                !
 ! D106  D(45,18,19,21)        -26.9248         estimate D2E/DX2                !
 ! D107  D(45,18,19,22)         82.3116         estimate D2E/DX2                !
 ! D108  D(17,18,24,23)       -159.5439         estimate D2E/DX2                !
 ! D109  D(17,18,24,48)        -39.0153         estimate D2E/DX2                !
 ! D110  D(17,18,24,49)         80.3017         estimate D2E/DX2                !
 ! D111  D(19,18,24,23)         23.8597         estimate D2E/DX2                !
 ! D112  D(19,18,24,48)        144.3883         estimate D2E/DX2                !
 ! D113  D(19,18,24,49)        -96.2948         estimate D2E/DX2                !
 ! D114  D(45,18,24,23)        -59.4889         estimate D2E/DX2                !
 ! D115  D(45,18,24,48)         61.0397         estimate D2E/DX2                !
 ! D116  D(45,18,24,49)       -179.6433         estimate D2E/DX2                !
 ! D117  D(18,19,22,23)         12.8386         estimate D2E/DX2                !
 ! D118  D(18,19,22,46)       -162.6998         estimate D2E/DX2                !
 ! D119  D(20,19,22,23)        -99.7102         estimate D2E/DX2                !
 ! D120  D(20,19,22,46)         84.7514         estimate D2E/DX2                !
 ! D121  D(21,19,22,23)        120.7692         estimate D2E/DX2                !
 ! D122  D(21,19,22,46)        -54.7692         estimate D2E/DX2                !
 ! D123  D(19,22,23,24)         -1.0526         estimate D2E/DX2                !
 ! D124  D(19,22,23,47)       -179.7031         estimate D2E/DX2                !
 ! D125  D(46,22,23,24)        174.1855         estimate D2E/DX2                !
 ! D126  D(46,22,23,47)         -4.465          estimate D2E/DX2                !
 ! D127  D(22,23,24,18)        -14.4394         estimate D2E/DX2                !
 ! D128  D(22,23,24,48)       -135.1335         estimate D2E/DX2                !
 ! D129  D(22,23,24,49)        106.0547         estimate D2E/DX2                !
 ! D130  D(47,23,24,18)        164.2737         estimate D2E/DX2                !
 ! D131  D(47,23,24,48)         43.5796         estimate D2E/DX2                !
 ! D132  D(47,23,24,49)        -75.2322         estimate D2E/DX2                !
 ! D133  D(17,25,26,27)        174.3899         estimate D2E/DX2                !
 ! D134  D(29,25,26,27)         -5.2296         estimate D2E/DX2                !
 ! D135  D(17,25,29,14)          2.0021         estimate D2E/DX2                !
 ! D136  D(17,25,29,28)       -177.599          estimate D2E/DX2                !
 ! D137  D(26,25,29,14)       -178.3613         estimate D2E/DX2                !
 ! D138  D(26,25,29,28)          2.0376         estimate D2E/DX2                !
 ! D139  D(25,26,27,28)          5.6118         estimate D2E/DX2                !
 ! D140  D(26,27,28,29)         -4.6918         estimate D2E/DX2                !
 ! D141  D(27,28,29,14)       -177.2885         estimate D2E/DX2                !
 ! D142  D(27,28,29,25)          2.2314         estimate D2E/DX2                !
 ! D143  D(13,30,31,32)       -173.1429         estimate D2E/DX2                !
 ! D144  D(34,30,31,32)          8.764          estimate D2E/DX2                !
 ! D145  D(13,30,34,10)         -5.7014         estimate D2E/DX2                !
 ! D146  D(13,30,34,33)        172.5009         estimate D2E/DX2                !
 ! D147  D(31,30,34,10)        172.4986         estimate D2E/DX2                !
 ! D148  D(31,30,34,33)         -9.2991         estimate D2E/DX2                !
 ! D149  D(30,31,32,33)         -4.2857         estimate D2E/DX2                !
 ! D150  D(31,32,33,34)         -1.7117         estimate D2E/DX2                !
 ! D151  D(32,33,34,10)       -175.5537         estimate D2E/DX2                !
 ! D152  D(32,33,34,30)          6.4067         estimate D2E/DX2                !
 ! D153  D(5,35,36,1)           -0.7583         estimate D2E/DX2                !
 ! D154  D(5,35,36,50)        -115.2527         estimate D2E/DX2                !
 ! D155  D(5,35,36,51)         112.4963         estimate D2E/DX2                !
 ! D156  D(9,35,36,1)          179.468          estimate D2E/DX2                !
 ! D157  D(9,35,36,50)          64.9736         estimate D2E/DX2                !
 ! D158  D(9,35,36,51)         -67.2774         estimate D2E/DX2                !
 --------------------------------------------------------------------------------
 Trust Radius=3.00D-01 FncErr=1.00D-07 GrdErr=1.00D-06
 Number of steps in this run=    306 maximum allowed number of steps=    306.
 GradGradGradGradGradGradGradGradGradGradGradGradGradGradGradGradGradGrad

 Stoichiometry    C23H19N5S2Si2
 Framework group  C1[X(C23H19N5S2Si2)]
 Deg. of freedom   147
 Full point group                 C1      NOp   1
 Largest Abelian subgroup         C1      NOp   1
 Largest concise Abelian subgroup C1      NOp   1
                         Standard orientation:                         
 ---------------------------------------------------------------------
 Center     Atomic      Atomic             Coordinates (Angstroms)
 Number     Number       Type             X           Y           Z
 ---------------------------------------------------------------------
      1         14           0       -6.258687    2.230395   -0.033876
      2          1           0       -5.933785    3.035234    1.188758
      3          1           0       -5.933242    2.963453   -1.296845
      4          6           0       -7.470382    0.742671   -0.020890
      5          6           0       -6.673038   -0.565905    0.002888
      6          6           0       -7.177351   -1.850201    0.010892
      7          6           0       -6.295031   -2.940799    0.015146
      8          6           0       -4.904519   -2.759021    0.018227
      9          6           0       -4.335149   -1.479259    0.020887
     10          6           0       -2.852531   -1.288957    0.023137
     11          6           0       -1.936447   -2.383822    0.019864
     12          6           0       -0.536288   -2.241004    0.020194
     13          6           0        0.110495   -0.995704   -0.009342
     14          6           0        1.525415   -0.809148    0.014950
     15          7           0        2.249712   -1.979077    0.016793
     16          6           0        3.594430   -1.970252   -0.015938
     17          6           0        4.365630   -0.827727   -0.059113
     18          6           0        5.823401   -0.761880   -0.052059
     19         14           0        7.169467   -0.684232   -1.316238
     20          1           0        7.467737   -2.009764   -1.875512
     21          1           0        6.887165    0.474528   -2.222459
     22          6           0        8.309140   -0.116741    0.091379
     23          6           0        7.767115   -0.293116    1.313224
     24          6           0        6.379383   -0.869757    1.368512
     25          6           0        3.664669    0.402541    0.030321
     26          7           0        4.245686    1.621703    0.098181
     27         16           0        3.073054    2.748883    0.037306
     28          7           0        1.835499    1.714625    0.083206
     29          6           0        2.233615    0.433154    0.046868
     30          6           0       -0.744631    0.118662   -0.056993
     31          7           0       -0.381294    1.374565   -0.206568
     32         16           0       -1.593521    2.399701   -0.043036
     33          7           0       -2.647436    1.223125    0.111303
     34          6           0       -2.172145   -0.028721    0.016011
     35          6           0       -5.282122   -0.423805    0.006672
     36          6           0       -4.918923    1.002913   -0.000765
     37          1           0       -8.039061    0.830205   -0.945372
     38          1           0       -8.074018    0.854169    0.878475
     39          1           0       -8.245190   -2.022600    0.010433
     40          1           0       -6.679874   -3.956986    0.014758
     41          1           0       -4.294561   -3.659463    0.017471
     42          1           0       -2.289462   -3.412049    0.030853
     43          1           0        0.066704   -3.154844    0.039359
     44          1           0        4.041405   -2.960751   -0.000926
     45          1           0        5.832606    0.293034   -0.311204
     46          1           0        9.248766    0.361841   -0.124308
     47          1           0        8.265496   -0.024675    2.235735
     48          1           0        5.752569   -0.315940    2.083190
     49          1           0        6.408377   -1.911570    1.702558
     50          1           0       -4.407776    1.165966   -0.955378
     51          1           0       -4.460897    1.177264    0.978862
 ---------------------------------------------------------------------
 Rotational constants (GHZ):      0.3358169      0.0459485      0.0412140
 Standard basis: 6-31++G(d,p) (6D, 7F)
 There are   738 symmetry adapted basis functions of A   symmetry.
 Integral buffers will be    131072 words long.
 Raffenetti 2 integral format.
 Two-electron integral symmetry is turned on.
   738 basis functions,  1272 primitive gaussians,   738 cartesian basis functions
   126 alpha electrons      126 beta electrons
       nuclear repulsion energy      3606.3229281167 Hartrees.
 NAtoms=   51 NActive=   51 NUniq=   51 SFac= 1.00D+00 NAtFMM=   60 NAOKFM=F Big=F
 One-electron integrals computed using PRISM.
 NBasis=   738 RedAO= T  NBF=   738
 NBsUse=   724 1.00D-06 NBFU=   724
 Harris functional with IExCor=  402 diagonalized for initial guess.
 ExpMin= 3.31D-02 ExpMax= 2.19D+04 ExpMxC= 3.30D+03 IAcc=3 IRadAn=         5 AccDes= 0.00D+00
 HarFok:  IExCor=  402 AccDes= 0.00D+00 IRadAn=         5 IDoV= 1
 ScaDFX=  1.000000  1.000000  1.000000  1.000000
 FoFCou: FMM=F IPFlag=           0 FMFlag=      100000 FMFlg1=           0
         NFxFlg=           0 DoJE=T BraDBF=F KetDBF=T FulRan=T
         Omega=  0.000000  0.000000  1.000000  0.000000  0.000000 ICntrl=     500 IOpCl=  0
         NMat0=    1 NMatS0=    1 NMatT0=    0 NMatD0=    1 NMtDS0=    0 NMtDT0=    0
         I1Cent=           4 NGrid=           0.
 Petite list used in FoFCou.
 Initial guess orbital symmetries:
       Occupied  (A) (A) (A) (A) (A) (A) (A) (A) (A) (A) (A) (A)
                 (A) (A) (A) (A) (A) (A) (A) (A) (A) (A) (A) (A)
                 (A) (A) (A) (A) (A) (A) (A) (A) (A) (A) (A) (A)
                 (A) (A) (A) (A) (A) (A) (A) (A) (A) (A) (A) (A)
                 (A) (A) (A) (A) (A) (A) (A) (A) (A) (A) (A) (A)
                 (A) (A) (A) (A) (A) (A) (A) (A) (A) (A) (A) (A)
                 (A) (A) (A) (A) (A) (A) (A) (A) (A) (A) (A) (A)
                 (A) (A) (A) (A) (A) (A) (A) (A) (A) (A) (A) (A)
                 (A) (A) (A) (A) (A) (A) (A) (A) (A) (A) (A) (A)
                 (A) (A) (A) (A) (A) (A) (A) (A) (A) (A) (A) (A)
                 (A) (A) (A) (A) (A) (A)
       Virtual   (A) (A) (A) (A) (A) (A) (A) (A) (A) (A) (A) (A)
                 (A) (A) (A) (A) (A) (A) (A) (A) (A) (A) (A) (A)
                 (A) (A) (A) (A) (A) (A) (A) (A) (A) (A) (A) (A)
                 (A) (A) (A) (A) (A) (A) (A) (A) (A) (A) (A) (A)
                 (A) (A) (A) (A) (A) (A) (A) (A) (A) (A) (A) (A)
                 (A) (A) (A) (A) (A) (A) (A) (A) (A) (A) (A) (A)
                 (A) (A) (A) (A) (A) (A) (A) (A) (A) (A) (A) (A)
                 (A) (A) (A) (A) (A) (A) (A) (A) (A) (A) (A) (A)
                 (A) (A) (A) (A) (A) (A) (A) (A) (A) (A) (A) (A)
                 (A) (A) (A) (A) (A) (A) (A) (A) (A) (A) (A) (A)
                 (A) (A) (A) (A) (A) (A) (A) (A) (A) (A) (A) (A)
                 (A) (A) (A) (A) (A) (A) (A) (A) (A) (A) (A) (A)
                 (A) (A) (A) (A) (A) (A) (A) (A) (A) (A) (A) (A)
                 (A) (A) (A) (A) (A) (A) (A) (A) (A) (A) (A) (A)
                 (A) (A) (A) (A) (A) (A) (A) (A) (A) (A) (A) (A)
                 (A) (A) (A) (A) (A) (A) (A) (A) (A) (A) (A) (A)
                 (A) (A) (A) (A) (A) (A) (A) (A) (A) (A) (A) (A)
                 (A) (A) (A) (A) (A) (A) (A) (A) (A) (A) (A) (A)
                 (A) (A) (A) (A) (A) (A) (A) (A) (A) (A) (A) (A)
                 (A) (A) (A) (A) (A) (A) (A) (A) (A) (A) (A) (A)
                 (A) (A) (A) (A) (A) (A) (A) (A) (A) (A) (A) (A)
                 (A) (A) (A) (A) (A) (A) (A) (A) (A) (A) (A) (A)
                 (A) (A) (A) (A) (A) (A) (A) (A) (A) (A) (A) (A)
                 (A) (A) (A) (A) (A) (A) (A) (A) (A) (A) (A) (A)
                 (A) (A) (A) (A) (A) (A) (A) (A) (A) (A) (A) (A)
                 (A) (A) (A) (A) (A) (A) (A) (A) (A) (A) (A) (A)
                 (A) (A) (A) (A) (A) (A) (A) (A) (A) (A) (A) (A)
                 (A) (A) (A) (A) (A) (A) (A) (A) (A) (A) (A) (A)
                 (A) (A) (A) (A) (A) (A) (A) (A) (A) (A) (A) (A)
                 (A) (A) (A) (A) (A) (A) (A) (A) (A) (A) (A) (A)
                 (A) (A) (A) (A) (A) (A) (A) (A) (A) (A) (A) (A)
                 (A) (A) (A) (A) (A) (A) (A) (A) (A) (A) (A) (A)
                 (A) (A) (A) (A) (A) (A) (A) (A) (A) (A) (A) (A)
                 (A) (A) (A) (A) (A) (A) (A) (A) (A) (A) (A) (A)
                 (A) (A) (A) (A) (A) (A) (A) (A) (A) (A) (A) (A)
                 (A) (A) (A) (A) (A) (A) (A) (A) (A) (A) (A) (A)
                 (A) (A) (A) (A) (A) (A) (A) (A) (A) (A) (A) (A)
                 (A) (A) (A) (A) (A) (A) (A) (A) (A) (A) (A) (A)
                 (A) (A) (A) (A) (A) (A) (A) (A) (A) (A) (A) (A)
                 (A) (A) (A) (A) (A) (A) (A) (A) (A) (A) (A) (A)
                 (A) (A) (A) (A) (A) (A) (A) (A) (A) (A) (A) (A)
                 (A) (A) (A) (A) (A) (A) (A) (A) (A) (A) (A) (A)
                 (A) (A) (A) (A) (A) (A) (A) (A) (A) (A) (A) (A)
                 (A) (A) (A) (A) (A) (A) (A) (A) (A) (A) (A) (A)
                 (A) (A) (A) (A) (A) (A) (A) (A) (A) (A) (A) (A)
                 (A) (A) (A) (A) (A) (A) (A) (A) (A) (A) (A) (A)
                 (A) (A) (A) (A) (A) (A) (A) (A) (A) (A) (A) (A)
                 (A) (A) (A) (A) (A) (A) (A) (A) (A) (A) (A) (A)
                 (A) (A) (A) (A) (A) (A) (A) (A) (A) (A) (A) (A)
                 (A) (A) (A) (A) (A) (A) (A) (A) (A) (A)
 The electronic state of the initial guess is 1-A.
 Requested convergence on RMS density matrix=1.00D-08 within 128 cycles.
 Requested convergence on MAX density matrix=1.00D-06.
 Requested convergence on             energy=1.00D-06.
 No special actions if energy rises.
 EnCoef did     3 forward-backward iterations
 EnCoef did     4 forward-backward iterations
 Restarting incremental Fock formation.
 SCF Done:  E(RB3LYP) =  -2536.81957692     A.U. after   24 cycles
             Convg  =    0.3707D-08             -V/T =  2.0057

 **********************************************************************

            Population analysis using the SCF density.

 **********************************************************************

 Orbital symmetries:
       Occupied  (A) (A) (A) (A) (A) (A) (A) (A) (A) (A) (A) (A)
                 (A) (A) (A) (A) (A) (A) (A) (A) (A) (A) (A) (A)
                 (A) (A) (A) (A) (A) (A) (A) (A) (A) (A) (A) (A)
                 (A) (A) (A) (A) (A) (A) (A) (A) (A) (A) (A) (A)
                 (A) (A) (A) (A) (A) (A) (A) (A) (A) (A) (A) (A)
                 (A) (A) (A) (A) (A) (A) (A) (A) (A) (A) (A) (A)
                 (A) (A) (A) (A) (A) (A) (A) (A) (A) (A) (A) (A)
                 (A) (A) (A) (A) (A) (A) (A) (A) (A) (A) (A) (A)
                 (A) (A) (A) (A) (A) (A) (A) (A) (A) (A) (A) (A)
                 (A) (A) (A) (A) (A) (A) (A) (A) (A) (A) (A) (A)
                 (A) (A) (A) (A) (A) (A)
       Virtual   (A) (A) (A) (A) (A) (A) (A) (A) (A) (A) (A) (A)
                 (A) (A) (A) (A) (A) (A) (A) (A) (A) (A) (A) (A)
                 (A) (A) (A) (A) (A) (A) (A) (A) (A) (A) (A) (A)
                 (A) (A) (A) (A) (A) (A) (A) (A) (A) (A) (A) (A)
                 (A) (A) (A) (A) (A) (A) (A) (A) (A) (A) (A) (A)
                 (A) (A) (A) (A) (A) (A) (A) (A) (A) (A) (A) (A)
                 (A) (A) (A) (A) (A) (A) (A) (A) (A) (A) (A) (A)
                 (A) (A) (A) (A) (A) (A) (A) (A) (A) (A) (A) (A)
                 (A) (A) (A) (A) (A) (A) (A) (A) (A) (A) (A) (A)
                 (A) (A) (A) (A) (A) (A) (A) (A) (A) (A) (A) (A)
                 (A) (A) (A) (A) (A) (A) (A) (A) (A) (A) (A) (A)
                 (A) (A) (A) (A) (A) (A) (A) (A) (A) (A) (A) (A)
                 (A) (A) (A) (A) (A) (A) (A) (A) (A) (A) (A) (A)
                 (A) (A) (A) (A) (A) (A) (A) (A) (A) (A) (A) (A)
                 (A) (A) (A) (A) (A) (A) (A) (A) (A) (A) (A) (A)
                 (A) (A) (A) (A) (A) (A) (A) (A) (A) (A) (A) (A)
                 (A) (A) (A) (A) (A) (A) (A) (A) (A) (A) (A) (A)
                 (A) (A) (A) (A) (A) (A) (A) (A) (A) (A) (A) (A)
                 (A) (A) (A) (A) (A) (A) (A) (A) (A) (A) (A) (A)
                 (A) (A) (A) (A) (A) (A) (A) (A) (A) (A) (A) (A)
                 (A) (A) (A) (A) (A) (A) (A) (A) (A) (A) (A) (A)
                 (A) (A) (A) (A) (A) (A) (A) (A) (A) (A) (A) (A)
                 (A) (A) (A) (A) (A) (A) (A) (A) (A) (A) (A) (A)
                 (A) (A) (A) (A) (A) (A) (A) (A) (A) (A) (A) (A)
                 (A) (A) (A) (A) (A) (A) (A) (A) (A) (A) (A) (A)
                 (A) (A) (A) (A) (A) (A) (A) (A) (A) (A) (A) (A)
                 (A) (A) (A) (A) (A) (A) (A) (A) (A) (A) (A) (A)
                 (A) (A) (A) (A) (A) (A) (A) (A) (A) (A) (A) (A)
                 (A) (A) (A) (A) (A) (A) (A) (A) (A) (A) (A) (A)
                 (A) (A) (A) (A) (A) (A) (A) (A) (A) (A) (A) (A)
                 (A) (A) (A) (A) (A) (A) (A) (A) (A) (A) (A) (A)
                 (A) (A) (A) (A) (A) (A) (A) (A) (A) (A) (A) (A)
                 (A) (A) (A) (A) (A) (A) (A) (A) (A) (A) (A) (A)
                 (A) (A) (A) (A) (A) (A) (A) (A) (A) (A) (A) (A)
                 (A) (A) (A) (A) (A) (A) (A) (A) (A) (A) (A) (A)
                 (A) (A) (A) (A) (A) (A) (A) (A) (A) (A) (A) (A)
                 (A) (A) (A) (A) (A) (A) (A) (A) (A) (A) (A) (A)
                 (A) (A) (A) (A) (A) (A) (A) (A) (A) (A) (A) (A)
                 (A) (A) (A) (A) (A) (A) (A) (A) (A) (A) (A) (A)
                 (A) (A) (A) (A) (A) (A) (A) (A) (A) (A) (A) (A)
                 (A) (A) (A) (A) (A) (A) (A) (A) (A) (A) (A) (A)
                 (A) (A) (A) (A) (A) (A) (A) (A) (A) (A) (A) (A)
                 (A) (A) (A) (A) (A) (A) (A) (A) (A) (A) (A) (A)
                 (A) (A) (A) (A) (A) (A) (A) (A) (A) (A) (A) (A)
                 (A) (A) (A) (A) (A) (A) (A) (A) (A) (A) (A) (A)
                 (A) (A) (A) (A) (A) (A) (A) (A) (A) (A) (A) (A)
                 (A) (A) (A) (A) (A) (A) (A) (A) (A) (A) (A) (A)
                 (A) (A) (A) (A) (A) (A) (A) (A) (A) (A) (A) (A)
                 (A) (A) (A) (A) (A) (A) (A) (A) (A) (A) (A) (A)
                 (A) (A) (A) (A) (A) (A) (A) (A) (A) (A)
 The electronic state is 1-A.
 Alpha  occ. eigenvalues --  -88.98783 -88.98085 -66.13509 -66.11840 -14.36794
 Alpha  occ. eigenvalues --  -14.36431 -14.34394 -14.33937 -14.33645 -10.25389
 Alpha  occ. eigenvalues --  -10.25082 -10.24530 -10.24388 -10.23527 -10.23420
 Alpha  occ. eigenvalues --  -10.22548 -10.21407 -10.21375 -10.21331 -10.21280
 Alpha  occ. eigenvalues --  -10.21051 -10.20291 -10.19928 -10.19871 -10.19750
 Alpha  occ. eigenvalues --  -10.19643 -10.19596 -10.19535 -10.18963 -10.17706
 Alpha  occ. eigenvalues --  -10.17292 -10.13472  -8.04042  -8.03365  -6.00602
 Alpha  occ. eigenvalues --   -6.00002  -5.99940  -5.99841  -5.99334  -5.99149
 Alpha  occ. eigenvalues --   -5.28244  -5.26900  -3.64224  -3.64065  -3.63997
 Alpha  occ. eigenvalues --   -3.62790  -3.62757  -3.62630  -1.03203  -1.02741
 Alpha  occ. eigenvalues --   -0.94623  -0.89609  -0.88338  -0.87360  -0.86153
 Alpha  occ. eigenvalues --   -0.84099  -0.80649  -0.80328  -0.78721  -0.77498
 Alpha  occ. eigenvalues --   -0.77362  -0.74851  -0.71291  -0.69285  -0.68567
 Alpha  occ. eigenvalues --   -0.67489  -0.66493  -0.65608  -0.63704  -0.62425
 Alpha  occ. eigenvalues --   -0.61203  -0.59678  -0.57186  -0.55698  -0.54555
 Alpha  occ. eigenvalues --   -0.53537  -0.52887  -0.51840  -0.50880  -0.50658
 Alpha  occ. eigenvalues --   -0.50437  -0.48399  -0.48345  -0.47593  -0.47050
 Alpha  occ. eigenvalues --   -0.46340  -0.45791  -0.45458  -0.45165  -0.44265
 Alpha  occ. eigenvalues --   -0.43100  -0.42746  -0.42347  -0.41172  -0.40686
 Alpha  occ. eigenvalues --   -0.40158  -0.40070  -0.39756  -0.39630  -0.38585
 Alpha  occ. eigenvalues --   -0.38240  -0.37875  -0.37614  -0.35850  -0.35070
 Alpha  occ. eigenvalues --   -0.34918  -0.33926  -0.33579  -0.33248  -0.33119
 Alpha  occ. eigenvalues --   -0.32869  -0.32250  -0.31768  -0.30946  -0.29996
 Alpha  occ. eigenvalues --   -0.29117  -0.28603  -0.27931  -0.27141  -0.26400
 Alpha  occ. eigenvalues --   -0.26014  -0.25160  -0.24044  -0.23181  -0.20298
 Alpha  occ. eigenvalues --   -0.19451
 Alpha virt. eigenvalues --   -0.11507  -0.08113  -0.03900  -0.02712  -0.02354
 Alpha virt. eigenvalues --   -0.01791  -0.01660  -0.01202  -0.00833  -0.00710
 Alpha virt. eigenvalues --   -0.00414  -0.00014   0.00098   0.00184   0.00850
 Alpha virt. eigenvalues --    0.01062   0.01202   0.01460   0.01615   0.02070
 Alpha virt. eigenvalues --    0.02102   0.02236   0.02560   0.03006   0.03102
 Alpha virt. eigenvalues --    0.03751   0.03875   0.04405   0.04555   0.04755
 Alpha virt. eigenvalues --    0.04912   0.05044   0.05408   0.05703   0.05783
 Alpha virt. eigenvalues --    0.06145   0.06487   0.06847   0.07450   0.07480
 Alpha virt. eigenvalues --    0.07908   0.08361   0.08411   0.08541   0.09096
 Alpha virt. eigenvalues --    0.09365   0.09515   0.09565   0.09770   0.09948
 Alpha virt. eigenvalues --    0.10306   0.10357   0.10673   0.10728   0.11112
 Alpha virt. eigenvalues --    0.11193   0.11378   0.11833   0.11878   0.12198
 Alpha virt. eigenvalues --    0.12311   0.12379   0.12709   0.12901   0.13205
 Alpha virt. eigenvalues --    0.13399   0.13566   0.13627   0.13908   0.14110
 Alpha virt. eigenvalues --    0.14547   0.14627   0.14739   0.14752   0.14924
 Alpha virt. eigenvalues --    0.15199   0.15281   0.15504   0.15607   0.15802
 Alpha virt. eigenvalues --    0.15896   0.15972   0.16313   0.16421   0.16611
 Alpha virt. eigenvalues --    0.16856   0.16988   0.17141   0.17577   0.17805
 Alpha virt. eigenvalues --    0.17902   0.18312   0.18446   0.18711   0.18796
 Alpha virt. eigenvalues --    0.19116   0.19132   0.19472   0.19771   0.19919
 Alpha virt. eigenvalues --    0.20086   0.20171   0.20685   0.20934   0.21064
 Alpha virt. eigenvalues --    0.21258   0.21364   0.21657   0.21793   0.22209
 Alpha virt. eigenvalues --    0.22478   0.22614   0.22844   0.22920   0.23352
 Alpha virt. eigenvalues --    0.23571   0.23805   0.24062   0.24337   0.24543
 Alpha virt. eigenvalues --    0.24739   0.24742   0.25007   0.25179   0.25361
 Alpha virt. eigenvalues --    0.25833   0.26057   0.26198   0.26427   0.26750
 Alpha virt. eigenvalues --    0.26999   0.27225   0.27353   0.27646   0.27801
 Alpha virt. eigenvalues --    0.28031   0.28217   0.28740   0.28957   0.29211
 Alpha virt. eigenvalues --    0.29510   0.29599   0.30104   0.30402   0.30505
 Alpha virt. eigenvalues --    0.30636   0.30745   0.31532   0.31819   0.32010
 Alpha virt. eigenvalues --    0.32156   0.32194   0.32708   0.33178   0.33496
 Alpha virt. eigenvalues --    0.33595   0.33701   0.34213   0.34400   0.34542
 Alpha virt. eigenvalues --    0.34897   0.35192   0.35391   0.35762   0.35979
 Alpha virt. eigenvalues --    0.36622   0.36754   0.37143   0.37352   0.37821
 Alpha virt. eigenvalues --    0.37925   0.38423   0.38724   0.39137   0.39574
 Alpha virt. eigenvalues --    0.39799   0.40007   0.40555   0.40875   0.41334
 Alpha virt. eigenvalues --    0.41797   0.42303   0.42808   0.43248   0.43508
 Alpha virt. eigenvalues --    0.44682   0.44984   0.45140   0.45391   0.46073
 Alpha virt. eigenvalues --    0.46352   0.46862   0.47598   0.47864   0.48146
 Alpha virt. eigenvalues --    0.49555   0.49726   0.50042   0.50991   0.51973
 Alpha virt. eigenvalues --    0.52792   0.53484   0.53883   0.54045   0.54757
 Alpha virt. eigenvalues --    0.54990   0.56094   0.58712   0.59895   0.60638
 Alpha virt. eigenvalues --    0.60758   0.61541   0.62611   0.63785   0.64615
 Alpha virt. eigenvalues --    0.65130   0.65661   0.66496   0.67147   0.67748
 Alpha virt. eigenvalues --    0.67978   0.68422   0.69030   0.69366   0.69743
 Alpha virt. eigenvalues --    0.70555   0.70857   0.71204   0.71330   0.71961
 Alpha virt. eigenvalues --    0.72327   0.72415   0.72922   0.72980   0.73846
 Alpha virt. eigenvalues --    0.74626   0.74713   0.75189   0.75355   0.75915
 Alpha virt. eigenvalues --    0.76066   0.76403   0.76705   0.76907   0.77663
 Alpha virt. eigenvalues --    0.77743   0.78164   0.78709   0.79210   0.79473
 Alpha virt. eigenvalues --    0.79620   0.80088   0.80324   0.81309   0.81675
 Alpha virt. eigenvalues --    0.82004   0.82094   0.82539   0.83324   0.83567
 Alpha virt. eigenvalues --    0.84474   0.85059   0.85639   0.86054   0.86668
 Alpha virt. eigenvalues --    0.86951   0.87344   0.88368   0.88980   0.89444
 Alpha virt. eigenvalues --    0.90043   0.90864   0.92208   0.92901   0.93373
 Alpha virt. eigenvalues --    0.93942   0.95316   0.96026   0.96593   0.97512
 Alpha virt. eigenvalues --    0.97718   0.98663   0.99148   0.99572   1.00355
 Alpha virt. eigenvalues --    1.00955   1.01010   1.01268   1.01413   1.02070
 Alpha virt. eigenvalues --    1.02912   1.03685   1.03926   1.04546   1.04807
 Alpha virt. eigenvalues --    1.05841   1.06387   1.06784   1.07552   1.07824
 Alpha virt. eigenvalues --    1.08268   1.09095   1.09426   1.10010   1.10424
 Alpha virt. eigenvalues --    1.12476   1.12722   1.12942   1.13582   1.14662
 Alpha virt. eigenvalues --    1.15054   1.15479   1.15896   1.16304   1.16708
 Alpha virt. eigenvalues --    1.17290   1.18642   1.18946   1.19092   1.19777
 Alpha virt. eigenvalues --    1.19998   1.20959   1.21405   1.21562   1.21832
 Alpha virt. eigenvalues --    1.22660   1.23106   1.23574   1.23901   1.24432
 Alpha virt. eigenvalues --    1.24802   1.25291   1.25651   1.26033   1.26590
 Alpha virt. eigenvalues --    1.27173   1.27529   1.27872   1.29345   1.29961
 Alpha virt. eigenvalues --    1.30166   1.31195   1.31526   1.32355   1.33324
 Alpha virt. eigenvalues --    1.33679   1.33958   1.35278   1.36620   1.37701
 Alpha virt. eigenvalues --    1.37765   1.38516   1.38992   1.39705   1.40191
 Alpha virt. eigenvalues --    1.41124   1.41450   1.41493   1.42945   1.43733
 Alpha virt. eigenvalues --    1.44171   1.44387   1.45253   1.45889   1.46719
 Alpha virt. eigenvalues --    1.47023   1.48549   1.48953   1.50673   1.52723
 Alpha virt. eigenvalues --    1.54542   1.55616   1.58181   1.58810   1.60478
 Alpha virt. eigenvalues --    1.63791   1.65305   1.66602   1.68409   1.69112
 Alpha virt. eigenvalues --    1.69415   1.71413   1.71855   1.72250   1.73229
 Alpha virt. eigenvalues --    1.73738   1.74708   1.76813   1.78594   1.78690
 Alpha virt. eigenvalues --    1.79528   1.80813   1.80985   1.81621   1.82046
 Alpha virt. eigenvalues --    1.82574   1.83180   1.83345   1.83601   1.84753
 Alpha virt. eigenvalues --    1.84970   1.85370   1.86200   1.87002   1.88024
 Alpha virt. eigenvalues --    1.89270   1.90339   1.91712   1.92378   1.93514
 Alpha virt. eigenvalues --    1.94850   1.95083   1.95579   1.95906   1.96283
 Alpha virt. eigenvalues --    1.97631   1.98551   1.99092   1.99362   1.99800
 Alpha virt. eigenvalues --    2.01573   2.02520   2.03162   2.03420   2.03842
 Alpha virt. eigenvalues --    2.04830   2.06004   2.06327   2.06437   2.07065
 Alpha virt. eigenvalues --    2.07899   2.09221   2.10599   2.12758   2.13365
 Alpha virt. eigenvalues --    2.14268   2.15005   2.15919   2.15987   2.16462
 Alpha virt. eigenvalues --    2.16652   2.17228   2.17290   2.18807   2.19095
 Alpha virt. eigenvalues --    2.21932   2.22447   2.22869   2.23321   2.24015
 Alpha virt. eigenvalues --    2.24942   2.25080   2.26103   2.26911   2.27233
 Alpha virt. eigenvalues --    2.28668   2.29164   2.30232   2.30934   2.31661
 Alpha virt. eigenvalues --    2.32261   2.32840   2.34642   2.36093   2.36407
 Alpha virt. eigenvalues --    2.36962   2.37407   2.38126   2.38585   2.40385
 Alpha virt. eigenvalues --    2.42036   2.42550   2.43967   2.44624   2.44770
 Alpha virt. eigenvalues --    2.46126   2.46315   2.46693   2.47106   2.47271
 Alpha virt. eigenvalues --    2.48063   2.48531   2.48659   2.49580   2.50080
 Alpha virt. eigenvalues --    2.51380   2.51553   2.52920   2.53167   2.54225
 Alpha virt. eigenvalues --    2.54829   2.55599   2.56474   2.57619   2.59295
 Alpha virt. eigenvalues --    2.59563   2.60314   2.60705   2.62412   2.62755
 Alpha virt. eigenvalues --    2.63105   2.64239   2.64755   2.65283   2.65446
 Alpha virt. eigenvalues --    2.66371   2.66867   2.67889   2.68966   2.69988
 Alpha virt. eigenvalues --    2.71149   2.71827   2.72020   2.72567   2.73312
 Alpha virt. eigenvalues --    2.75223   2.76671   2.77626   2.78108   2.79047
 Alpha virt. eigenvalues --    2.79675   2.80749   2.81258   2.82771   2.83025
 Alpha virt. eigenvalues --    2.83842   2.83953   2.84928   2.87185   2.90235
 Alpha virt. eigenvalues --    2.91021   2.91952   2.93389   2.94057   2.95079
 Alpha virt. eigenvalues --    2.99233   2.99955   3.00976   3.03634   3.06246
 Alpha virt. eigenvalues --    3.06261   3.09229   3.10450   3.15430   3.15796
 Alpha virt. eigenvalues --    3.17175   3.20496   3.22280   3.24650   3.29709
 Alpha virt. eigenvalues --    3.31888   3.32759   3.33742   3.34161   3.36137
 Alpha virt. eigenvalues --    3.36880   3.39504   3.44248   3.46118   3.46334
 Alpha virt. eigenvalues --    3.46856   3.49451   3.50737   3.54511   3.63262
 Alpha virt. eigenvalues --    3.63997   3.70017   3.81650   3.98284   4.01809
 Alpha virt. eigenvalues --    4.21966   4.26609   4.29385   4.31505   4.32052
 Alpha virt. eigenvalues --    4.33695   4.34766   4.36064   4.37411   4.39427
 Alpha virt. eigenvalues --    4.40052   4.43502   4.45478   4.47700   4.48706
 Alpha virt. eigenvalues --    4.50138   4.52892   4.55227   4.58120   4.59672
 Alpha virt. eigenvalues --    4.60571   4.64540   4.67145   4.69324   4.75339
 Alpha virt. eigenvalues --    4.80797   4.88733   4.96117
          Condensed to atoms (all electrons):
 Mulliken atomic charges:
              1
     1  Si   0.629537
     2  H   -0.066385
     3  H   -0.064129
     4  C   -0.920073
     5  C    0.084302
     6  C   -0.285872
     7  C   -0.025269
     8  C   -0.775352
     9  C    0.924674
    10  C    1.047555
    11  C   -1.215543
    12  C   -0.961509
    13  C    0.730749
    14  C   -0.328039
    15  N   -0.109913
    16  C    0.485850
    17  C   -0.356405
    18  C   -0.509691
    19  Si   0.869831
    20  H   -0.110176
    21  H   -0.070932
    22  C   -0.728842
    23  C    0.190988
    24  C   -0.631083
    25  C    0.020156
    26  N   -0.269221
    27  S    1.019949
    28  N   -0.498337
    29  C    0.301114
    30  C   -0.124930
    31  N   -0.498372
    32  S    0.903890
    33  N   -0.467578
    34  C   -0.086022
    35  C    0.412483
    36  C   -0.726044
    37  H    0.192231
    38  H    0.189675
    39  H    0.077159
    40  H    0.133609
    41  H    0.012953
    42  H    0.024674
    43  H    0.204675
    44  H    0.163033
    45  H    0.171192
    46  H    0.130597
    47  H    0.142128
    48  H    0.185956
    49  H    0.175816
    50  H    0.177501
    51  H    0.227436
 Sum of Mulliken atomic charges =  -0.00000
 Mulliken charges with hydrogens summed into heavy atoms:
              1
     1  Si   0.499024
     4  C   -0.538167
     5  C    0.084302
     6  C   -0.208714
     7  C    0.108340
     8  C   -0.762399
     9  C    0.924674
    10  C    1.047555
    11  C   -1.190868
    12  C   -0.756834
    13  C    0.730749
    14  C   -0.328039
    15  N   -0.109913
    16  C    0.648883
    17  C   -0.356405
    18  C   -0.338499
    19  Si   0.688723
    22  C   -0.598245
    23  C    0.333116
    24  C   -0.269311
    25  C    0.020156
    26  N   -0.269221
    27  S    1.019949
    28  N   -0.498337
    29  C    0.301114
    30  C   -0.124930
    31  N   -0.498372
    32  S    0.903890
    33  N   -0.467578
    34  C   -0.086022
    35  C    0.412483
    36  C   -0.321106
 Sum of Mulliken charges with hydrogens summed into heavy atoms =  -0.00000
 Electronic spatial extent (au):  <R**2>=          24131.4918
 Charge=             -0.0000 electrons
 Dipole moment (field-independent basis, Debye):
    X=             -1.2367    Y=              0.9351    Z=              0.3141  Tot=              1.5819
 Quadrupole moment (field-independent basis, Debye-Ang):
   XX=           -197.8521   YY=           -203.8898   ZZ=           -215.3241
   XY=              0.3320   XZ=              1.9206   YZ=             -1.0362
 Traceless Quadrupole moment (field-independent basis, Debye-Ang):
   XX=              7.8365   YY=              1.7989   ZZ=             -9.6354
   XY=              0.3320   XZ=              1.9206   YZ=             -1.0362
 Octapole moment (field-independent basis, Debye-Ang**2):
  XXX=           -101.8222  YYY=             22.8937  ZZZ=              9.3154  XYY=            -26.6872
  XXY=             27.4166  XXZ=              8.3773  XZZ=             31.9340  YZZ=             18.0114
  YYZ=              3.2424  XYZ=             -6.3925
 Hexadecapole moment (field-independent basis, Debye-Ang**3):
 XXXX=         -28816.7344 YYYY=          -3680.4158 ZZZZ=           -645.0512 XXXY=             87.4394
 XXXZ=             35.9948 YYYX=            221.5832 YYYZ=            -14.7280 ZZZX=             67.2560
 ZZZY=             -0.6603 XXYY=          -5633.3832 XXZZ=          -5111.5359 YYZZ=           -810.9987
 XXYZ=            -36.6290 YYXZ=             21.4440 ZZXY=            -17.3888
 N-N= 3.606322928117D+03 E-N=-1.317673940668D+04  KE= 2.522354523273D+03
 Calling FoFJK, ICntrl=      2127 FMM=F ISym2X=0 I1Cent= 0 IOpClX= 0 NMat=1 NMatS=1 NMatT=0.
 ***** Axes restored to original set *****
 -------------------------------------------------------------------
 Center     Atomic                   Forces (Hartrees/Bohr)
 Number     Number              X              Y              Z
 -------------------------------------------------------------------
      1       14           0.013581229   -0.002950515    0.000880015
      2        1          -0.009375091    0.014319377    0.004070769
      3        1          -0.010634536    0.013692371   -0.002915115
      4        6          -0.008880057    0.010642521   -0.000490451
      5        6          -0.000728269   -0.008373161    0.000081480
      6        6           0.010068248    0.013127784   -0.000047699
      7        6           0.001604586   -0.005911157   -0.000021413
      8        6           0.009937554    0.012869010   -0.000150543
      9        6          -0.004106695    0.001961802   -0.000401849
     10        6           0.019930329   -0.000155705   -0.001616352
     11        6          -0.017917559    0.010591304    0.000457550
     12        6           0.001869864   -0.010260123   -0.000437960
     13        6           0.006364720    0.015058615    0.002722185
     14        6           0.052150448   -0.017374745   -0.000973173
     15        7          -0.032637296    0.011960383    0.000238489
     16        6          -0.003064248    0.005659790   -0.000317119
     17        6           0.015072558    0.012943743    0.003261244
     18        6          -0.022092061    0.009024664   -0.000369062
     19       14           0.008689003   -0.003050340   -0.015058480
     20        1           0.003263154   -0.008177662    0.013352201
     21        1           0.010826436    0.000757188    0.006315303
     22        6           0.002223586    0.002480247    0.010072891
     23        6           0.002301861   -0.006426782    0.010403754
     24        6           0.001010428   -0.010987840   -0.001145659
     25        6          -0.004177923   -0.006602965   -0.001157758
     26        7           0.017071348   -0.023590235    0.012736726
     27       16           0.026749721    0.008678962   -0.011354086
     28        7          -0.019814044    0.005143297   -0.003684917
     29        6          -0.020543702   -0.022083454    0.000251774
     30        6          -0.005530284    0.012794444    0.010450355
     31        7           0.005375886   -0.039834957    0.012303373
     32       16           0.032329664    0.006198167    0.002416953
     33        7          -0.009710667    0.031278984   -0.010645926
     34        6          -0.035223571   -0.014807867   -0.009678298
     35        6          -0.016523638    0.002504238    0.000913724
     36        6           0.007345246    0.001191467   -0.001282066
     37        1           0.000602177    0.015225159   -0.002475696
     38        1           0.001194135    0.015014273    0.002906060
     39        1           0.000875748    0.004642029    0.000085492
     40        1          -0.001388466    0.001057369   -0.000047727
     41        1          -0.002564085   -0.001134997   -0.000250420
     42        1          -0.004720494    0.002072612    0.000394789
     43        1          -0.008353192   -0.000315545   -0.000686410
     44        1           0.000324551   -0.004036178    0.002088569
     45        1          -0.016732025   -0.015674742   -0.019025964
     46        1           0.002187220   -0.010671871   -0.008371688
     47        1          -0.001066430   -0.003706047   -0.003746988
     48        1           0.001219915   -0.000404243    0.000639148
     49        1           0.002766838    0.001925438   -0.002439381
     50        1          -0.000448920   -0.014705557   -0.015514955
     51        1          -0.000703198   -0.011578551    0.017264310
 -------------------------------------------------------------------
 Cartesian Forces:  Max     0.052150448 RMS     0.011843908

 GradGradGradGradGradGradGradGradGradGradGradGradGradGradGradGradGradGrad
 Berny optimization.
 Internal  Forces:  Max     0.197019780 RMS     0.030120863
 Search for a local minimum.
 Step number   1 out of a maximum of  306
 All quantities printed in internal units (Hartrees-Bohrs-Radians)
 Mixed Optimization -- RFO/linear search
 Second derivative matrix not updated -- first step.
 ITU=  0
     Eigenvalues ---    0.00726   0.00764   0.00835   0.01291   0.01305
     Eigenvalues ---    0.01318   0.01408   0.01414   0.01502   0.01594
     Eigenvalues ---    0.01727   0.01735   0.01741   0.01756   0.01776
     Eigenvalues ---    0.01815   0.01818   0.01840   0.01858   0.01867
     Eigenvalues ---    0.01876   0.01932   0.01954   0.01962   0.02015
     Eigenvalues ---    0.02016   0.02021   0.02030   0.02054   0.02070
     Eigenvalues ---    0.02119   0.02129   0.02219   0.02281   0.02381
     Eigenvalues ---    0.02394   0.02695   0.03205   0.03476   0.03751
     Eigenvalues ---    0.04710   0.05266   0.05306   0.05539   0.05812
     Eigenvalues ---    0.06046   0.06148   0.06619   0.06776   0.07042
     Eigenvalues ---    0.07366   0.08171   0.08416   0.08495   0.08553
     Eigenvalues ---    0.09802   0.09953   0.10354   0.11637   0.15927
     Eigenvalues ---    0.15995   0.15999   0.16000   0.16000   0.16000
     Eigenvalues ---    0.16000   0.16000   0.16889   0.16956   0.17034
     Eigenvalues ---    0.18288   0.18966   0.19758   0.21509   0.22086
     Eigenvalues ---    0.22424   0.22453   0.22510   0.22598   0.23265
     Eigenvalues ---    0.23515   0.24364   0.24433   0.24534   0.24813
     Eigenvalues ---    0.24814   0.24852   0.24941   0.24948   0.24959
     Eigenvalues ---    0.24963   0.24977   0.24988   0.24992   0.24998
     Eigenvalues ---    0.24998   0.24999   0.24999   0.28688   0.28728
     Eigenvalues ---    0.31094   0.32931   0.33663   0.34198   0.34235
     Eigenvalues ---    0.34239   0.34304   0.34547   0.34939   0.34942
     Eigenvalues ---    0.35093   0.35139   0.35187   0.35206   0.35242
     Eigenvalues ---    0.35712   0.35794   0.36164   0.36443   0.37055
     Eigenvalues ---    0.37171   0.39197   0.39585   0.39615   0.40505
     Eigenvalues ---    0.41369   0.41541   0.41790   0.43243   0.43758
     Eigenvalues ---    0.44005   0.44610   0.44755   0.44825   0.45306
     Eigenvalues ---    0.46618   0.47773   0.48305   0.48812   0.49170
     Eigenvalues ---    0.51134   0.52555   0.52810   0.54635   0.55209
     Eigenvalues ---    0.55481   0.61179
 RFO step:  Lambda=-4.17920210D-01 EMin= 7.26338795D-03
 Linear search not attempted -- first point.
 Maximum step size (   0.300) exceeded in Quadratic search.
    -- Step size scaled by   0.388
 Iteration  1 RMS(Cart)=  0.17532730 RMS(Int)=  0.01070106
 Iteration  2 RMS(Cart)=  0.17797007 RMS(Int)=  0.00567408
 Iteration  3 RMS(Cart)=  0.09373361 RMS(Int)=  0.00101511
 Iteration  4 RMS(Cart)=  0.00292369 RMS(Int)=  0.00003661
 Iteration  5 RMS(Cart)=  0.00000063 RMS(Int)=  0.00003661
 Variable       Old X    -DE/DX   Delta X   Delta X   Delta X     New X
                                 (Linear)    (Quad)   (Total)
    R1        2.83343  -0.00416   0.00000  -0.00275  -0.00275   2.83069
    R2        2.82726  -0.00280   0.00000  -0.00184  -0.00184   2.82542
    R3        3.62596  -0.00733   0.00000  -0.00569  -0.00575   3.62021
    R4        3.43430   0.04722   0.00000   0.02684   0.02685   3.46115
    R5        2.89609  -0.01144   0.00000  -0.00591  -0.00593   2.89016
    R6        2.05774   0.00504   0.00000   0.00254   0.00254   2.06029
    R7        2.05769   0.00491   0.00000   0.00248   0.00248   2.06017
    R8        2.60742   0.00448   0.00000   0.00194   0.00190   2.60932
    R9        2.64214   0.05312   0.00000   0.02536   0.02543   2.66757
   R10        2.65095  -0.03272   0.00000  -0.01557  -0.01564   2.63531
   R11        2.04405   0.00450   0.00000   0.00225   0.00225   2.04630
   R12        2.65005  -0.02306   0.00000  -0.01130  -0.01133   2.63872
   R13        2.05341  -0.00048   0.00000  -0.00024  -0.00024   2.05317
   R14        2.64695   0.02394   0.00000   0.01054   0.01058   2.65753
   R15        2.05524  -0.00209   0.00000  -0.00105  -0.00105   2.05419
   R16        2.82473   0.06243   0.00000   0.03238   0.03238   2.85711
   R17        2.67978   0.06805   0.00000   0.03224   0.03231   2.71209
   R18        2.69771  -0.02718   0.00000  -0.01354  -0.01348   2.68423
   R19        2.70645   0.06073   0.00000   0.02943   0.02941   2.73586
   R20        2.65965  -0.01735   0.00000  -0.00930  -0.00923   2.65041
   R21        2.05450  -0.00268   0.00000  -0.00135  -0.00135   2.05315
   R22        2.65234  -0.02983   0.00000  -0.01414  -0.01412   2.63822
   R23        2.06929  -0.00787   0.00000  -0.00401  -0.00401   2.06528
   R24        2.69734   0.07735   0.00000   0.03605   0.03605   2.73340
   R25        2.65594   0.05019   0.00000   0.02327   0.02321   2.67915
   R26        2.60024  -0.02461   0.00000  -0.01059  -0.01056   2.58968
   R27        2.70295   0.05539   0.00000   0.02646   0.02647   2.72942
   R28        2.54196  -0.00002   0.00000  -0.00059  -0.00057   2.54139
   R29        2.60616  -0.01028   0.00000  -0.00487  -0.00487   2.60129
   R30        2.05373   0.00088   0.00000   0.00044   0.00044   2.05417
   R31        2.75763   0.04248   0.00000   0.02089   0.02089   2.77851
   R32        2.68109   0.00321   0.00000   0.00164   0.00161   2.68270
   R33        3.49271   0.02555   0.00000   0.01532   0.01533   3.50804
   R34        2.88997   0.01041   0.00000   0.00574   0.00575   2.89572
   R35        2.05284   0.01546   0.00000   0.00778   0.00778   2.06062
   R36        2.77654   0.00770   0.00000   0.00497   0.00497   2.78151
   R37        2.83059  -0.00486   0.00000  -0.00320  -0.00320   2.82738
   R38        3.58664  -0.00075   0.00000  -0.00071  -0.00072   3.58592
   R39        2.54784  -0.00561   0.00000  -0.00222  -0.00224   2.54561
   R40        2.03394   0.00821   0.00000   0.00407   0.00407   2.03801
   R41        2.84174   0.00974   0.00000   0.00532   0.00531   2.84706
   R42        2.04534   0.00520   0.00000   0.00260   0.00260   2.04794
   R43        2.07902  -0.00136   0.00000  -0.00070  -0.00070   2.07832
   R44        2.06819   0.00375   0.00000   0.00191   0.00191   2.07010
   R45        2.55535  -0.01527   0.00000  -0.00613  -0.00614   2.54921
   R46        2.70510   0.05228   0.00000   0.02570   0.02566   2.73076
   R47        3.07585  -0.00191   0.00000  -0.00129  -0.00128   3.07457
   R48        3.04905  -0.00092   0.00000  -0.00061  -0.00059   3.04846
   R49        2.53673   0.00387   0.00000   0.00180   0.00180   2.53853
   R50        2.48675  -0.00604   0.00000  -0.00202  -0.00204   2.48472
   R51        2.71546   0.09290   0.00000   0.04632   0.04622   2.76168
   R52        3.01596   0.00580   0.00000   0.00200   0.00203   3.01798
   R53        2.99919   0.00676   0.00000   0.00228   0.00231   3.00150
   R54        2.53681  -0.00994   0.00000  -0.00380  -0.00381   2.53300
   R55        2.78213   0.01876   0.00000   0.00986   0.00991   2.79205
   R56        2.06935  -0.00627   0.00000  -0.00320  -0.00320   2.06616
   R57        2.06997  -0.01030   0.00000  -0.00525  -0.00525   2.06471
    A1        1.95865   0.00307   0.00000   0.00125   0.00119   1.95984
    A2        2.15018  -0.00630   0.00000  -0.00447  -0.00455   2.14564
    A3        1.75987  -0.00115   0.00000   0.00231   0.00238   1.76225
    A4        2.12114  -0.00507   0.00000  -0.00353  -0.00362   2.11752
    A5        1.75784   0.00031   0.00000   0.00332   0.00337   1.76121
    A6        1.51249   0.02292   0.00000   0.01287   0.01282   1.52531
    A7        1.91091  -0.01553   0.00000  -0.00965  -0.00973   1.90118
    A8        1.83560   0.01069   0.00000   0.00755   0.00757   1.84317
    A9        1.85071   0.01175   0.00000   0.00829   0.00831   1.85902
   A10        1.93213   0.00180   0.00000   0.00083   0.00087   1.93300
   A11        1.94232   0.00161   0.00000   0.00069   0.00074   1.94306
   A12        1.98612  -0.01007   0.00000  -0.00738  -0.00742   1.97869
   A13        2.22018  -0.06145   0.00000  -0.03717  -0.03717   2.18301
   A14        2.01622   0.03037   0.00000   0.01836   0.01837   2.03459
   A15        2.04675   0.03108   0.00000   0.01881   0.01880   2.06556
   A16        2.08720  -0.00090   0.00000  -0.00169  -0.00179   2.08541
   A17        2.10503   0.00191   0.00000   0.00182   0.00187   2.10690
   A18        2.09095  -0.00101   0.00000  -0.00013  -0.00008   2.09087
   A19        2.12103  -0.00339   0.00000  -0.00464  -0.00474   2.11629
   A20        2.09935  -0.00003   0.00000   0.00117   0.00121   2.10056
   A21        2.06281   0.00342   0.00000   0.00348   0.00353   2.06633
   A22        2.11940   0.04389   0.00000   0.02536   0.02537   2.14477
   A23        2.03620  -0.02002   0.00000  -0.01139  -0.01139   2.02480
   A24        2.12759  -0.02387   0.00000  -0.01397  -0.01398   2.11361
   A25        2.11706  -0.17042   0.00000  -0.09960  -0.09966   2.01740
   A26        1.99167  -0.02500   0.00000  -0.01312  -0.01300   1.97866
   A27        2.17440   0.19541   0.00000   0.11271   0.11265   2.28705
   A28        2.13986  -0.16703   0.00000  -0.09694  -0.09696   2.04290
   A29        2.19348   0.19702   0.00000   0.11434   0.11432   2.30780
   A30        1.94980  -0.03000   0.00000  -0.01741  -0.01738   1.93242
   A31        2.16587   0.04795   0.00000   0.02612   0.02622   2.19210
   A32        2.11409  -0.02850   0.00000  -0.01609  -0.01614   2.09795
   A33        2.00314  -0.01944   0.00000  -0.01002  -0.01007   1.99307
   A34        2.15133   0.02908   0.00000   0.01464   0.01470   2.16603
   A35        2.05234  -0.01164   0.00000  -0.00538  -0.00541   2.04693
   A36        2.07951  -0.01743   0.00000  -0.00926  -0.00929   2.07022
   A37        2.18023  -0.11279   0.00000  -0.06544  -0.06541   2.11481
   A38        2.00846  -0.03335   0.00000  -0.01938  -0.01944   1.98902
   A39        2.09448   0.14614   0.00000   0.08483   0.08485   2.17933
   A40        1.99400  -0.09386   0.00000  -0.05479  -0.05480   1.93920
   A41        2.22019   0.12538   0.00000   0.07245   0.07243   2.29262
   A42        2.06896  -0.03153   0.00000  -0.01767  -0.01765   2.05131
   A43        2.11836   0.03892   0.00000   0.02133   0.02140   2.13975
   A44        2.17149   0.00872   0.00000   0.00401   0.00402   2.17551
   A45        1.98759  -0.00024   0.00000   0.00076   0.00075   1.98834
   A46        2.12409  -0.00847   0.00000  -0.00476  -0.00477   2.11932
   A47        2.20912  -0.01030   0.00000  -0.00588  -0.00586   2.20326
   A48        2.02653  -0.01853   0.00000  -0.01101  -0.01106   2.01548
   A49        2.04218   0.02884   0.00000   0.01690   0.01692   2.05910
   A50        2.38347  -0.00352   0.00000  -0.00214  -0.00216   2.38130
   A51        1.94388   0.02168   0.00000   0.01293   0.01291   1.95678
   A52        1.62195   0.00446   0.00000   0.00474   0.00479   1.62674
   A53        1.95362  -0.01874   0.00000  -0.01131  -0.01130   1.94233
   A54        1.35908   0.00741   0.00000   0.00564   0.00562   1.36470
   A55        1.86190  -0.01062   0.00000  -0.00795  -0.00796   1.85395
   A56        1.95013   0.00715   0.00000   0.00605   0.00606   1.95619
   A57        1.88499   0.00114   0.00000   0.00151   0.00150   1.88649
   A58        1.51337   0.01039   0.00000   0.00643   0.00642   1.51979
   A59        2.10120  -0.00953   0.00000  -0.00788  -0.00788   2.09332
   A60        2.01546  -0.00503   0.00000  -0.00354  -0.00356   2.01190
   A61        1.90769   0.00260   0.00000   0.00241   0.00237   1.91006
   A62        1.97316  -0.00474   0.00000  -0.00331  -0.00332   1.96983
   A63        2.10428   0.01275   0.00000   0.00862   0.00863   2.11292
   A64        2.20276  -0.00785   0.00000  -0.00519  -0.00519   2.19758
   A65        2.04258   0.00537   0.00000   0.00326   0.00324   2.04582
   A66        2.15898  -0.00397   0.00000  -0.00249  -0.00248   2.15650
   A67        2.08139  -0.00138   0.00000  -0.00074  -0.00073   2.08066
   A68        1.84865   0.00696   0.00000   0.00435   0.00437   1.85302
   A69        1.93990  -0.00373   0.00000  -0.00212  -0.00214   1.93776
[...]
 00249,0.00000187,0.00000405,-0.00000288,-0.00000278,-0.00000926,-0.000
 00070,0.00000612,0.00001052,-0.00000449,0.00005144,0.00007409,0.000528
 06,-0.00005947,0.00102938,0.00050245,-0.00003499,-0.00113735,-0.000295
 58,0.00027980,-0.00000513,-0.00082701,-0.08147848,0.18440014,0.0000019
 2,0.00000131,-0.00000981,-0.00000122,-0.00000038,0.00000253,0.00000018
 ,-0.00000008,0.00000235,-0.00000087,0.00000103,0.00000161,-0.00000014,
 -0.00000195,-0.00000046,-0.00000039,0.00000246,0.00000029,0.00000019,0
 .00000009,0.00000120,-0.00000302,0.00000225,0.00000130,0.00000026,-0.0
 0000538,-0.00000044,0.00000321,0.00000267,0.00000126,-0.00000877,0.000
 00067,0.00000946,-0.00000437,0.00001040,-0.00000124,0.00001318,-0.0000
 4034,0.00000278,-0.00007886,0.00006634,-0.00006836,0.00004554,-0.00016
 089,0.00009911,-0.00018347,0.00037588,-0.00014509,-0.00204502,0.000031
 83,0.00008894,-0.00678266,0.00816803,0.00487610,-0.00076123,-0.0005764
 0,-0.00208856,0.00027044,-0.00010251,0.00046211,0.00010007,0.00000947,
 0.00021941,-0.00146924,0.00029052,-0.00208983,0.01536220,-0.01961990,-
 0.02190539,0.06291648,-0.10704737,-0.12772060,0.00004522,0.00048815,-0
 .00002681,-0.00000221,-0.00008446,0.00005140,-0.00005381,0.00000425,-0
 .00004489,-0.00001669,0.00002180,-0.00002448,0.00003632,0.00006656,-0.
 00010946,0.00001146,0.00000891,-0.00000063,0.00000127,-0.00000809,0.00
 000608,-0.00001157,0.00000068,-0.00000209,-0.00000138,0.00000869,0.000
 00137,-0.00000226,0.00000624,-0.00000514,0.00000325,0.00000513,-0.0000
 0334,-0.00000200,0.00000015,0.00000294,-0.00000014,0.00000030,0.000000
 46,-0.00000046,0.00000045,0.00000042,-0.00000014,0.00000039,0.00000002
 ,0.00000010,0.00000072,-0.00000005,-0.00000041,-0.00000061,0.00000095,
 0.00000049,0.00000238,-0.00000065,-0.00000161,-0.00000160,-0.00000343,
 0.00011225,0.00002221,-0.00007105,-0.00044773,0.00079264,0.00125961,0.
 00021850,0.00277799,0.00064357,-0.00072992,0.00080945,0.00020694,-0.06
 487766,0.11179951,0.14367718,-0.00000589,0.00000891,0.00001335,0.00000
 256,-0.00000174,-0.00000354,0.00000036,-0.00000220,-0.00000324,0.00000
 216,-0.00000426,-0.00000183,-0.00000050,0.00000179,0.00000034,0.000001
 61,-0.00000248,-0.00000059,-0.00000226,-0.00000116,-0.00000149,0.00000
 592,-0.00000465,-0.00000241,0.00000142,0.00001008,0.00000238,-0.000004
 66,0.00000147,-0.00000025,0.00001887,0.00000135,-0.00000354,-0.0000085
 1,0.00000364,-0.00000625,0.00000851,0.00002854,0.00003030,0.00025534,-
 0.00000651,0.00037105,0.00023978,0.00036767,0.00005675,-0.00034802,0.0
 0044836,-0.00057652,0.00204576,-0.00286376,0.00029818,-0.01931176,-0.0
 1932328,0.00173142,-0.00197685,0.00088110,-0.00355968,-0.00015753,-0.0
 0023156,0.00079026,-0.00030205,-0.00051488,0.00074310,0.00150198,-0.00
 053758,-0.00050919,0.00047996,0.00123308,0.00312751,-0.12168879,-0.116
 73722,0.01429968,-0.00051650,0.00012192,-0.00077941,0.00008681,0.00031
 385,0.00008286,0.00011526,-0.00008186,0.00009854,0.00004879,0.00013346
 ,0.00011412,-0.00011493,-0.00039232,-0.00010332,-0.00001910,-0.0000084
 1,0.00000421,0.00000558,0.00000751,-0.00000211,0.00001031,0.00000353,0
 .00000030,0.00000267,-0.00001991,-0.00000028,0.00000583,-0.00001070,-0
 .00000284,-0.00000414,-0.00000699,0.00000243,0.00000161,-0.00000292,-0
 .00000445,-0.00000026,-0.00000142,-0.00000032,0.00000138,-0.00000067,-
 0.00000045,0.00000041,-0.00000168,-0.00000012,-0.00000038,-0.00000135,
 0.00000089,0.00000052,0.00000170,-0.00000200,-0.00000151,-0.00000221,0
 .00000040,0.00000490,0.00001120,-0.00000325,-0.00035745,0.00058271,0.0
 0103177,-0.00199274,-0.00024346,0.00017954,0.00010756,-0.00003752,0.00
 017612,0.00028747,0.00011161,0.00040528,0.00743932,0.01091137,-0.00165
 632,0.13413158,-0.00000251,-0.00001103,-0.00000766,0.00000021,0.000002
 43,0.00000175,0.00000168,0.00000268,0.00000224,-0.00000028,0.00000351,
 0.00000057,0.00000015,0.00000101,-0.00000081,-0.00000116,0.00000287,0.
 00000062,0.00000408,0.00000132,0.00000101,-0.00000622,0.00000678,0.000
 00436,0.00000160,-0.00000986,-0.00000291,-0.00000412,-0.00000350,0.000
 00171,-0.00000382,-0.00000615,0.00001200,-0.00002678,0.00002463,-0.000
 01092,0.00003810,-0.00001012,-0.00002986,-0.00013073,0.00000895,-0.000
 00413,0.00013182,-0.00026892,0.00015331,0.00082156,-0.00022062,-0.0005
 5850,0.00134473,0.00067083,-0.00032016,0.00350052,0.00502594,-0.000893
 67,0.00118003,-0.00062104,0.00047900,-0.00007141,0.00012528,-0.0002616
 1,-0.00017258,0.00001226,-0.00016607,0.00091817,-0.00030479,0.00098085
 ,-0.00473354,-0.00596218,0.00107818,-0.11755057,-0.22252398,0.02502864
 ,0.00006431,0.00043476,-0.00001117,0.00003492,-0.00008004,-0.00008934,
 -0.00000123,-0.00003277,0.00003438,-0.00006721,0.00003696,-0.00001760,
 -0.00003331,0.00003787,0.00008853,0.00001016,0.00001673,0.00000433,-0.
 00001003,0.00000336,-0.00000499,0.00000824,-0.00001614,0.00000270,-0.0
 0000571,0.00001838,-0.00000167,0.00000558,0.00000955,0.00000004,0.0000
 0342,0.00000396,-0.00000094,-0.00000011,0.00000482,0.00000241,-0.00000
 003,0.00000168,-0.00000023,-0.00000067,-0.00000003,0.00000063,-0.00000
 092,0.00000135,-0.00000008,-0.00000044,0.00000212,-0.00000161,-0.00000
 152,-0.00000238,0.00000056,0.00000072,0.00000751,0.,-0.00000200,-0.000
 00500,0.00000241,0.00114611,-0.00085947,-0.00045758,0.00001263,-0.0000
 7387,0.00037000,-0.00033019,0.00036014,0.00012031,0.00025156,0.0003236
 1,0.00052603,-0.01217908,-0.02026680,0.00187206,0.12585561,0.24413016,
 0.00000456,-0.00000708,-0.00000626,-0.00000164,0.00000133,0.00000172,-
 0.00000069,0.00000171,0.00000145,-0.00000140,0.00000264,0.00000068,0.0
 0000038,0.00000050,-0.00000053,-0.00000040,0.00000182,0.00000005,0.000
 00053,0.00000021,0.00000031,-0.00000395,0.00000345,0.00000261,0.000002
 61,-0.00000601,-0.00000012,0.00000346,-0.00000346,0.00000231,-0.000008
 47,0.00000230,-0.00000231,-0.00000374,-0.00000483,-0.00000257,-0.00002
 327,-0.00001002,-0.00000874,0.00002687,-0.00000741,0.00001120,-0.00028
 471,0.00032083,-0.00017391,0.00098980,-0.00001548,0.00074524,-0.000200
 69,-0.00053278,0.00055107,-0.00669601,-0.00707841,0.00064411,-0.001125
 61,0.00141692,-0.00224766,0.00010505,-0.00013277,0.00031086,0.00030016
 ,-0.00012956,0.00044195,-0.00077447,0.00161378,-0.00399043,0.01958551,
 0.02806874,-0.00375788,0.01493097,0.02494193,-0.04854378,-0.00000112,-
 0.00020285,-0.00010852,-0.00009116,0.00001869,-0.00009257,-0.00003335,
 0.00001213,-0.00003393,-0.00000557,0.00005716,-0.00000957,-0.00002966,
 0.00001443,-0.00005681,0.00000877,0.00000998,0.00000093,-0.00000296,0.
 00000148,0.00000353,0.00000161,-0.00000794,-0.00000045,-0.00000201,0.0
 0001558,-0.00000035,-0.00000575,0.00000219,-0.00000093,0.00000045,0.00
 000259,-0.00000149,-0.00000047,0.00000214,0.00000263,0.00000027,0.0000
 0087,0.00000008,-0.00000079,0.00000029,0.00000008,-0.00000031,0.000000
 96,0.00000009,0.00000025,0.00000135,-0.00000070,-0.00000035,-0.0000011
 8,0.00000087,0.00000100,0.00000230,0.00000185,-0.00000262,-0.00000298,
 0.00000970,0.00032953,-0.00073618,-0.00040600,-0.00095667,-0.00015571,
 -0.00012422,0.00128926,-0.00177682,-0.00132317,-0.00052312,-0.00091357
 ,0.00078495,-0.01045939,-0.01686811,0.00270485,-0.01634107,-0.02792380
 ,0.05467261,-0.00260626,-0.00073896,-0.00119240,0.00012179,0.00049284,
 0.00042093,0.00042073,-0.00014140,0.00014696,0.00047609,-0.00042835,0.
 00035689,-0.00056745,-0.00052713,0.00117660,-0.00031152,-0.00061718,0.
 00014420,0.00013200,-0.00024617,-0.00011905,-0.00010681,0.00005765,-0.
 00037422,0.00037783,0.00039268,0.00029971,0.00032765,0.00013491,0.0002
 5532,0.00005123,-0.00013964,0.00004855,-0.00002767,0.00014381,-0.00006
 022,-0.00007631,-0.00006479,-0.00000689,-0.00001928,-0.00000888,-0.000
 01092,-0.00001307,-0.00000071,0.00002224,0.00000812,-0.00000312,0.0000
 0402,0.00000285,-0.00000602,-0.00000339,-0.00000139,0.00000612,-0.0000
 0077,0.00001173,-0.00001718,-0.00000323,-0.00000408,0.00000497,0.00000
 175,-0.00000208,0.00000514,0.00000102,-0.00000545,0.00000597,0.0000028
 1,0.00000177,0.00000289,-0.00000154,0.00000157,-0.00000015,0.00000116,
 0.00000148,0.00000289,0.00000031,-0.00000647,0.00001048,-0.00000213,0.
 00000314,-0.00000608,-0.00000388,-0.00000991,0.00000350,0.00000699,0.0
 0001129,-0.00000192,0.00000378,0.00024283,-0.00024760,0.00001661,-0.00
 000938,-0.00001316,0.00002736,-0.00013902,0.00001009,-0.00009016,-0.00
 029634,0.00000731,0.00009674,0.00024481,0.00001006,0.00009811,0.008482
 39,-0.00832378,0.00389568,-0.17332374,0.12101426,-0.06125333,0.0000287
 7,-0.00007676,-0.00007370,0.00001468,-0.00022746,0.00009206,-0.0000512
 3,-0.00007924,0.00012593,0.00001784,-0.00000190,0.00000745,-0.00000229
 ,0.00001655,-0.00004333,-0.00006085,0.00000480,0.00004127,-0.00000171,
 -0.00000095,0.00000247,0.00000136,0.00000041,-0.00000264,-0.00000093,0
 .00000020,0.00000101,0.00000025,-0.00000201,-0.00000081,-0.00000098,-0
 .00000161,-0.00000143,-0.00000083,0.00000164,0.00000110,0.00000042,-0.
 00000139,-0.00000047,0.18672489,0.00960628,-0.00757622,0.00619551,-0.0
 0013342,-0.00064371,-0.00084408,-0.00078623,0.00148338,0.00027481,-0.0
 0032057,-0.00259700,-0.00063259,0.00012644,-0.00038124,0.00168288,-0.0
 0030240,-0.00094993,-0.00003853,0.00009706,0.00027257,-0.00020245,-0.0
 0041089,-0.00037135,0.00032707,0.00050486,-0.00009239,-0.00165263,0.00
 016344,0.00041570,-0.00046213,0.00000039,0.00008592,-0.00014125,0.0000
 0226,0.00000989,0.00002632,0.00000965,-0.00000201,0.00001552,0.0000055
 8,-0.00006213,-0.00000291,-0.00001515,0.00000597,-0.00001364,0.0000119
 1,0.00001411,0.00001890,-0.00000748,-0.00001893,-0.00000588,0.00000359
 ,0.00001404,-0.00000854,0.00000165,-0.00001070,0.00001887,-0.00000091,
 0.00000208,-0.00000325,-0.00000023,0.00000384,-0.00000393,-0.00000056,
 0.00000289,-0.00000506,-0.00000020,-0.00000057,0.00000165,0.00000388,0
 .00000151,0.00000256,0.00000124,0.00000290,0.00000365,-0.00000582,0.00
 001412,-0.00000658,0.00000392,-0.00001104,0.00000180,-0.00000761,0.000
 00594,-0.00000009,0.00000480,0.00001340,-0.00000156,0.00002556,-0.0000
 9910,-0.00006814,0.00000801,0.00003272,-0.00002079,-0.00009020,-0.0000
 6928,0.00001388,0.00001019,0.00012174,0.00011789,0.00012670,0.00001528
 ,-0.00014462,0.00669383,-0.01032378,0.00436700,0.12583155,-0.15284982,
 0.06069799,0.00023784,-0.00042745,0.00060495,0.00004305,-0.00024702,0.
 00008151,-0.00011325,-0.00005639,0.00021617,0.00006452,0.00002804,0.00
 007818,-0.00001322,0.00004052,0.00002312,-0.00004251,-0.00000714,0.000
 05882,-0.00000387,0.00000684,0.00000876,-0.00000304,0.00000420,-0.0000
 0105,-0.00000218,0.00000023,0.00000046,-0.00000184,0.00000063,-0.00000
 161,-0.00000198,0.00000069,-0.00000149,-0.00000154,0.00000154,-0.00000
 053,0.00000019,-0.00000108,-0.00000008,-0.12901150,0.16294606,0.010693
 56,-0.00692911,0.00564806,0.00002502,-0.00085995,-0.00126281,-0.000481
 76,0.00136316,0.00057409,-0.00070513,-0.00297127,-0.00162802,0.0015522
 5,0.00038442,-0.00428107,0.00058618,0.00084905,0.00101195,0.00005746,-
 0.00004779,-0.00054761,0.00046150,0.00076545,0.00045029,-0.00018997,0.
 00036992,0.00126639,-0.00051972,-0.00011061,-0.00054204,0.00037784,-0.
 00034771,0.00017539,0.00013833,-0.00001680,-0.00006656,-0.00004420,0.0
 0004398,-0.00000478,0.00002521,-0.00019056,-0.00002067,-0.00002130,0.0
 0003881,-0.00003450,0.00002701,0.00004333,0.00006213,-0.00001814,-0.00
 005371,-0.00002186,0.00001420,0.00004433,-0.00002432,-0.00001352,-0.00
 003387,0.00005041,0.00000203,0.00000664,-0.00000875,0.00000376,0.00001
 327,-0.00001052,0.00000318,0.00001156,-0.00001372,-0.00000182,0.000000
 77,0.00000767,0.00000943,0.00000203,0.00000642,0.00000073,0.00001064,0
 .00001145,-0.00001603,0.00004408,-0.00001425,0.00001544,-0.00001686,0.
 00001147,-0.00001959,0.00000161,-0.00000394,0.00000544,0.00004175,0.00
 000233,-0.00004719,-0.00009390,0.00002084,-0.00005024,0.00001072,-0.00
 002895,0.00008850,-0.00001204,-0.00001228,-0.00012574,-0.00002473,0.00
 010409,0.00009315,-0.00053223,-0.00021485,-0.01974723,0.01828284,-0.00
 878501,-0.05201722,0.05183920,-0.06639013,0.00005994,-0.00037844,0.000
 87771,-0.00008995,0.00007676,0.00012069,0.00012274,0.00022107,-0.00027
 346,-0.00006241,-0.00004397,-0.00003583,0.00002515,-0.00005799,0.00001
 665,-0.00001548,0.00004041,-0.00002408,-0.00000939,0.00000132,0.000005
 84,-0.00000988,0.00000732,-0.00000306,-0.00000679,0.00000136,0.0000022
 6,-0.00000519,-0.00000007,-0.00000474,-0.00000360,-0.00000052,-0.00000
 416,-0.00000465,0.00000527,-0.00000164,0.00000224,-0.00000242,-0.00000
 158,0.06416268,-0.06501860,0.07551425,0.00368310,0.00190671,0.00051185
 ,0.00032326,-0.00036207,-0.00033611,0.00033464,0.00098161,0.00081712,-
 0.00047067,-0.00024495,-0.00048117,-0.00074677,0.00171854,0.00016015,0
 .00003611,-0.00012416,0.00063412,-0.00001512,-0.00019335,-0.00018234,0
 .00046108,0.00007262,0.00033716,0.00071012,-0.00068965,0.00001163,-0.0
 0061342,-0.00045669,-0.00001234,0.00002066,0.00008589,-0.00008412,0.00
 007019,-0.00000767,0.00004165,-0.00005971,0.00002098,-0.00000826,0.000
 01772,0.00004298,-0.00001337,0.00001467,0.00000399,-0.00000380,-0.0000
 1839,-0.00001787,-0.00001338,0.00000837,0.00002337,0.00000798,-0.00000
 247,-0.00001660,0.00000845,-0.00000563,0.00002286,-0.00001555,0.000002
 64,-0.00000568,0.00000214,0.00000068,-0.00000760,0.00000296,0.00000255
 ,-0.00000760,0.00000268,-0.00000002,-0.00000179,-0.00000138,-0.0000040
 4,-0.00000096,-0.00000285,-0.00000828,-0.00000335,-0.00000638,0.000013
 21,-0.00002718,0.00001019,-0.00000424,0.00002007,0.00000662,0.00001966
 ,-0.00000741,-0.00001090,-0.00001871,-0.00000733,-0.00001063,-0.000187
 36,0.00030155,0.00020924,0.00005315,-0.00035123,0.00016766,0.00037759,
 0.00009878,-0.00019537,-0.00019291,-0.00057863,-0.00132831,-0.00043144
 ,0.00019864,-0.00004779,-0.00609409,-0.00554636,0.00242840,-0.22488464
 ,-0.11187902,-0.03297278,-0.00009810,0.00001831,-0.00009001,-0.0000693
 0,-0.00001356,-0.00011800,0.00004535,-0.00002237,0.00008807,-0.0000588
 2,-0.00000961,-0.00001976,-0.00000794,-0.00000793,0.00006075,0.0000613
 0,-0.00000462,-0.00002120,0.00000581,0.00000811,0.00000267,0.00000200,
 -0.00000258,0.00000279,0.00000235,-0.00000034,-0.00000124,0.00000168,0
 .00000115,0.00000218,0.00000204,0.00000109,0.00000234,0.00000210,-0.00
 000279,-0.00000009,-0.00000080,0.00000167,0.00000082,-0.02006242,-0.01
 231179,-0.00432681,0.24778328,-0.01312984,-0.00748784,-0.00257736,0.00
 054719,0.00145547,0.00083531,0.00064370,-0.00143941,-0.00126131,0.0004
 5371,-0.00031399,0.00056338,-0.00060428,-0.00052372,0.00168176,0.00106
 089,-0.00014585,0.00019534,-0.00022593,0.00048383,0.00014692,0.0002365
 7,-0.00078590,0.00070186,0.00078339,-0.00008145,-0.00168409,-0.0005934
 9,0.00017690,-0.00020443,0.00006538,-0.00002289,-0.00005824,0.00001261
 ,0.00006342,0.00009489,-0.00003626,0.00001294,-0.00000004,0.00001027,-
 0.00014121,-0.00003687,-0.00001964,0.00003144,-0.00002360,0.00001877,0
 .00002781,0.00004130,-0.00001457,-0.00004207,-0.00001694,0.00001075,0.
 00003401,-0.00001859,-0.00001104,-0.00003217,0.00003727,0.00000146,0.0
 0000679,-0.00000652,0.00000325,0.00001206,-0.00000768,0.00000252,0.000
 01152,-0.00000972,-0.00000125,0.00000123,0.00000649,0.00000713,0.00000
 083,0.00000484,0.00000463,0.00001062,0.00001013,-0.00001466,0.00004015
 ,-0.00001380,0.00000840,-0.00002026,0.00000555,-0.00001704,0.00000055,
 -0.00000220,0.00001433,0.00002231,0.00000892,0.00015178,0.00012211,0.0
 0006002,-0.00014932,0.00005653,-0.00000055,-0.00018463,-0.00048197,-0.
 00012678,-0.00010825,-0.00067581,-0.00052070,0.00075155,-0.00036749,-0
 .00056970,-0.01021310,-0.00847971,0.00111889,-0.12560924,-0.11446056,-
 0.01857456,0.00029433,-0.00015735,-0.00004787,0.00012406,-0.00037536,0
 .00012842,-0.00011426,-0.00008862,0.00008621,-0.00011775,-0.00001667,-
 0.00004064,0.00001703,0.00001047,-0.00000027,-0.00001893,-0.00000607,-
 0.00002247,-0.00000956,0.00000735,0.00000086,-0.00000669,0.00000484,-0
 .00000271,-0.00000517,0.00000074,0.00000212,-0.00000413,-0.00000090,-0
 .00000400,-0.00000266,-0.00000116,-0.00000352,-0.00000378,0.00000420,-
 0.00000112,0.00000207,-0.00000166,-0.00000129,0.01860586,0.01125155,0.
 00322209,0.12738383,0.12230037,-0.01341922,-0.00557648,-0.00349962,0.0
 0049719,0.00136202,0.00082392,0.00081959,-0.00280542,-0.00167728,0.001
 13495,-0.00022121,0.00073743,0.00081021,-0.00011096,-0.00210426,-0.001
 28205,-0.00009578,-0.00061246,0.00031410,0.00020170,-0.00032874,-0.001
 24168,0.00010280,-0.00058460,-0.00055214,0.00053254,-0.00014667,0.0005
 5078,0.00028360,0.00025427,-0.00000980,-0.00040450,0.00007423,0.000004
 42,0.00000212,-0.00002485,0.00003437,-0.00006698,-0.00000055,-0.000019
 89,-0.00006780,-0.00000720,-0.00001381,0.00001144,-0.00001143,0.000016
 13,0.00002150,0.00001403,-0.00000466,-0.00002865,-0.00000558,0.0000043
 4,0.00001896,-0.00001084,-0.00000834,-0.00002161,0.00002761,0.00000141
 ,0.00000438,-0.00000535,0.00000229,0.00000752,-0.00000542,0.00000253,0
 .00000735,-0.00000620,-0.00000178,0.00000008,0.00000403,0.00000512,0.0
 0000031,0.00000184,0.00000950,0.00000116,0.00000479,-0.00001552,0.0000
 3674,-0.00001024,-0.00000011,-0.00003128,-0.00001043,-0.00001921,0.000
 01133,0.00001487,0.00001900,0.00000768,0.00000957,0.00017510,0.0002518
 5,0.00000990,-0.00045289,0.00065468,-0.00016873,-0.00061918,-0.0007937
 2,0.00024661,0.00013046,-0.00001001,0.00011246,0.00134379,-0.00044044,
 -0.00069717,0.02573256,0.01664258,0.00276882,-0.04060370,-0.02091683,-
 0.04411538,0.00004176,0.00002034,0.00010013,-0.00007892,-0.00004919,0.
 00017233,0.00006461,0.00014611,-0.00011624,0.00013196,0.00001211,0.000
 05616,0.00000670,-0.00003010,-0.00008388,-0.00005927,0.00002388,-0.000
 01067,-0.00000593,-0.00002671,-0.00001104,-0.00000430,0.00000300,-0.00
 000301,-0.00000193,0.00000019,0.00000112,-0.00000317,-0.00000030,-0.00
 000282,-0.00000157,-0.00000078,-0.00000230,-0.00000242,0.00000294,-0.0
 0000078,0.00000144,-0.00000091,-0.00000127,-0.00821717,-0.00555626,-0.
 00167518,0.03478433,0.01688499,0.05050608\\-0.00001125,0.00000612,0.00
 000333,-0.00000493,-0.00000231,-0.00000202,-0.00000488,-0.00000190,-0.
 00000098,-0.00000118,-0.00000084,-0.00000277,0.00000030,0.00000373,-0.
 00000095,-0.00000032,-0.00000028,0.00000612,0.00000541,-0.00000216,-0.
 00000072,0.00000093,0.00000137,-0.00000250,-0.00000189,0.00000799,0.00
 000641,0.00000204,-0.00000513,-0.00000126,0.00000198,0.00000133,0.0000
 0474,0.00000236,0.00000192,0.00000067,-0.00000940,0.00000053,-0.000002
 31,0.00000481,-0.00000104,0.00000225,0.00000064,0.00000104,-0.00000181
 ,-0.00000384,0.00000163,0.00001064,0.00000621,-0.00000473,-0.00000287,
 -0.00001862,0.00001624,-0.00000408,0.00000307,-0.00000882,0.00000012,-
 0.00000148,0.00000111,-0.00000268,0.00000082,0.00000216,-0.00000522,0.
 00000207,-0.00000027,0.00000133,-0.00000716,0.00000101,0.00000029,-0.0
 0000215,-0.00000421,0.00002016,0.00000250,-0.00000264,0.00000157,-0.00
 000112,0.00000467,-0.00000603,0.00001191,0.00000311,-0.00000145,0.0000
 0070,-0.00000128,-0.00000591,0.00000715,-0.00000129,-0.00000023,0.0000
 0857,0.00000401,-0.00000517,-0.00000749,-0.00000330,0.00000117,0.00000
 782,0.00000052,-0.00001037,-0.00000523,0.00000483,-0.00000059,0.000005
 88,-0.00000373,0.00000062,0.00000184,-0.00000293,-0.00000514,-0.000001
 66,-0.00001832,0.00000072,-0.00000236,-0.00000154,0.00000164,-0.000002
 39,0.00000054,-0.00000321,0.00000133,0.00000060,0.00000046,0.00000386,
 0.00000221,0.00000315,0.00000420,0.00000146,0.00000250,0.00000154,-0.0
 0000049,0.00000398,0.00000090,-0.00000026,0.00000476,0.00000163,-0.000
 00085,-0.00000291,0.00000657,-0.00000381,-0.00000133,-0.00000701,-0.00
 000209,-0.00000103,-0.00000321,0.00000003,0.00000370,0.00000350,0.0000
 0017,-0.00000077,0.00000365,0.00000210,-0.00000061,-0.00000380,0.00000
 238,0.00000134,-0.00000284,0.00000140,-0.00000676\\\@


 IF AT FIRST YOU DON'T SUCCEED, TRY LOOKING IN 
 THE WASTEBASKET FOR THE DIRECTIONS.
 Job cpu time:  1 days 15 hours 43 minutes  2.5 seconds.
 File lengths (MBytes):  RWF=   2825 Int=      0 D2E=      0 Chk=     41 Scr=      1
 Normal termination of Gaussian 09 at Mon Dec 30 23:48:21 2013.
