 Entering Gaussian System, Link 0=g09
 Initial command:
 /opt/gaussian/g09/l1.exe /panfs/panfs.cluster/home/shuo/Gau-6604.inp -scrdir=/panfs/panfs.cluster/home/shuo/
 Default is to use a total of  12 processors:
                               12 via shared-memory
                                1 via Linda
 Entering Link 1 = /opt/gaussian/g09/l1.exe PID=      6605.
  
 Copyright (c) 1988,1990,1992,1993,1995,1998,2003,2009,2011,
            Gaussian, Inc.  All Rights Reserved.
  
 This is part of the Gaussian(R) 09 program.  It is based on
 the Gaussian(R) 03 system (copyright 2003, Gaussian, Inc.),
 the Gaussian(R) 98 system (copyright 1998, Gaussian, Inc.),
 the Gaussian(R) 94 system (copyright 1995, Gaussian, Inc.),
 the Gaussian 92(TM) system (copyright 1992, Gaussian, Inc.),
 the Gaussian 90(TM) system (copyright 1990, Gaussian, Inc.),
 the Gaussian 88(TM) system (copyright 1988, Gaussian, Inc.),
 the Gaussian 86(TM) system (copyright 1986, Carnegie Mellon
 University), and the Gaussian 82(TM) system (copyright 1983,
 Carnegie Mellon University). Gaussian is a federally registered
 trademark of Gaussian, Inc.
  
 This software contains proprietary and confidential information,
 including trade secrets, belonging to Gaussian, Inc.
  
 This software is provided under written license and may be
 used, copied, transmitted, or stored only in accord with that
 written license.
  
 The following legend is applicable only to US Government
 contracts under FAR:
  
                    RESTRICTED RIGHTS LEGEND
  
 Use, reproduction and disclosure by the US Government is
 subject to restrictions as set forth in subparagraphs (a)
 and (c) of the Commercial Computer Software - Restricted
 Rights clause in FAR 52.227-19.
  
 Gaussian, Inc.
 340 Quinnipiac St., Bldg. 40, Wallingford CT 06492
  
  
 ---------------------------------------------------------------
 Warning -- This program may not be used in any manner that
 competes with the business of Gaussian, Inc. or will provide
 assistance to any competitor of Gaussian, Inc.  The licensee
 of this program is prohibited from giving any competitor of
 Gaussian, Inc. access to this program.  By using this program,
 the user acknowledges that Gaussian, Inc. is engaged in the
 business of creating and licensing software in the field of
 computational chemistry and represents and warrants to the
 licensee that it is not a competitor of Gaussian, Inc. and that
 it will not use this program in any manner prohibited above.
 ---------------------------------------------------------------
  

 Cite this work as:
 Gaussian 09, Revision C.01,
 M. J. Frisch, G. W. Trucks, H. B. Schlegel, G. E. Scuseria, 
 M. A. Robb, J. R. Cheeseman, G. Scalmani, V. Barone, B. Mennucci, 
 G. A. Petersson, H. Nakatsuji, M. Caricato, X. Li, H. P. Hratchian, 
 A. F. Izmaylov, J. Bloino, G. Zheng, J. L. Sonnenberg, M. Hada, 
 M. Ehara, K. Toyota, R. Fukuda, J. Hasegawa, M. Ishida, T. Nakajima, 
 Y. Honda, O. Kitao, H. Nakai, T. Vreven, J. A. Montgomery, Jr., 
 J. E. Peralta, F. Ogliaro, M. Bearpark, J. J. Heyd, E. Brothers, 
 K. N. Kudin, V. N. Staroverov, T. Keith, R. Kobayashi, J. Normand, 
 K. Raghavachari, A. Rendell, J. C. Burant, S. S. Iyengar, J. Tomasi, 
 M. Cossi, N. Rega, J. M. Millam, M. Klene, J. E. Knox, J. B. Cross, 
 V. Bakken, C. Adamo, J. Jaramillo, R. Gomperts, R. E. Stratmann, 
 O. Yazyev, A. J. Austin, R. Cammi, C. Pomelli, J. W. Ochterski, 
 R. L. Martin, K. Morokuma, V. G. Zakrzewski, G. A. Voth, 
 P. Salvador, J. J. Dannenberg, S. Dapprich, A. D. Daniels, 
 O. Farkas, J. B. Foresman, J. V. Ortiz, J. Cioslowski, 
 and D. J. Fox, Gaussian, Inc., Wallingford CT, 2010.
 
 ******************************************
 Gaussian 09:  EM64L-G09RevC.01 23-Sep-2011
                29-Dec-2013 
 ******************************************
 %chk=39_C26H12N4OS2.chk
 %NProcShared=12
 Will use up to   12 processors via shared memory.
 %Mem=8000MB
 Default route:  MaxDisk=100GB
 --------------------------------------------
 #B3LYP/6-31++G(d,p) opt scf=direct freq test
 --------------------------------------------
 1/14=-1,18=20,19=15,26=3,38=1/1,3;
 2/9=110,12=2,17=6,18=5,40=1/2;
 3/5=1,6=6,7=1111,11=2,16=1,25=1,30=1,71=1,74=-5/1,2,3;
 4//1;
 5/5=2,38=5/2;
 6/7=2,8=2,9=2,10=2,28=1/1;
 7//1,2,3,16;
 1/14=-1,18=20,19=15/3(2);
 2/9=110/2;
 99//99;
 2/9=110/2;
 3/5=1,6=6,7=1111,11=2,16=1,25=1,30=1,71=1,74=-5/1,2,3;
 4/5=5,16=3/1;
 5/5=2,38=5/2;
 7//1,2,3,16;
 1/14=-1,18=20,19=15/3(-5);
 2/9=110/2;
 6/7=2,8=2,9=2,10=2,19=2,28=1/1;
 99/9=1/99;
 ----------------------------------------------------------------------
 Geom opt of No.39 candidate from the CEPDB database with SMILE code of
  c1c[nH]c(c1)-c1cc2c3nsnc3c3c4[Se]ccc4c4nsnc4c3c2c2nsnc12, HPC, 201312
 27, Shuo Dai, Gaussian09
 ----------------------------------------------------------------------
 Charge =  0 Multiplicity = 1
 Symbolic Z-Matrix:
 C                    -1.144     0.       -0.002 
 C                    -0.328     1.082     0.001 
 N                     0.901     0.643     0.001 
 H                     1.71843   1.21902   0.00302 
 C                     0.901    -0.643    -0.002 
 C                    -0.328    -1.082     0.003 
 C                     2.08135  -1.47478  -0.00973 
 C                     1.9473   -2.83222  -0.00833 
 C                     3.09034  -3.64407  -0.01822 
 C                     2.98264  -5.05385  -0.01805 
 N                     1.80463  -5.60065  -0.01049 
 S                     0.49254  -4.67845  -0.0015 
 N                     3.92844  -7.13389  -0.02311 
 C                     4.07628  -5.84359  -0.02555 
 C                     5.38035  -5.29649  -0.03603 
 C                     6.51015  -6.12838  -0.04583 
 Se                    6.29901  -8.03875  -0.04647 
 C                     4.39057  -8.48513  -0.03215 
 C                     8.94768  -6.46414  -0.06955 
 C                     7.75937  -5.57868  -0.05489 
 C                     7.93206  -4.19853  -0.05056 
 N                     9.13142  -3.70027  -0.04886 
 S                     10.40482  -4.67524  -0.05174 
 N                     7.01347  -2.06815  -0.05531 
 C                     6.84342  -3.3557   -0.04807 
 C                     5.5552   -3.8945   -0.03771 
 C                     4.36672  -3.03627  -0.02746 
 C                     4.47072  -1.64356  -0.02862 
 N                     5.63905  -1.07642  -0.03894 
 S                     5.75393   0.52324  -0.04023 
 N                     3.43571   0.41411  -0.01802 
 C                     3.33778  -0.88094  -0.01883 
 H                    -2.17599   0.       -0.00706 
 H                    -0.62388   2.07067   0.00293 
 H                    -0.62387  -2.07066   0.00955 
 H                     1.00817  -3.26     -0.00004 
 H                     3.41216  -8.81327  -0.02447 
 H                     9.97322  -6.57894  -0.07994 
 

 GradGradGradGradGradGradGradGradGradGradGradGradGradGradGradGradGradGrad
 Berny optimization.
 Initialization pass.
                           ----------------------------
                           !    Initial Parameters    !
                           ! (Angstroms and Degrees)  !
 --------------------------                            --------------------------
 ! Name  Definition              Value          Derivative Info.                !
 --------------------------------------------------------------------------------
 ! R1    R(1,2)                  1.3552         estimate D2E/DX2                !
 ! R2    R(1,6)                  1.3552         estimate D2E/DX2                !
 ! R3    R(1,33)                 1.032          estimate D2E/DX2                !
 ! R4    R(2,3)                  1.3051         estimate D2E/DX2                !
 ! R5    R(2,34)                 1.032          estimate D2E/DX2                !
 ! R6    R(3,4)                  1.0            estimate D2E/DX2                !
 ! R7    R(3,5)                  1.286          estimate D2E/DX2                !
 ! R8    R(5,6)                  1.3051         estimate D2E/DX2                !
 ! R9    R(5,7)                  1.444          estimate D2E/DX2                !
 ! R10   R(6,35)                 1.032          estimate D2E/DX2                !
 ! R11   R(7,8)                  1.364          estimate D2E/DX2                !
 ! R12   R(7,32)                 1.3897         estimate D2E/DX2                !
 ! R13   R(8,9)                  1.402          estimate D2E/DX2                !
 ! R14   R(8,36)                 1.032          estimate D2E/DX2                !
 ! R15   R(9,10)                 1.4139         estimate D2E/DX2                !
 ! R16   R(9,27)                 1.4137         estimate D2E/DX2                !
 ! R17   R(10,11)                1.2988         estimate D2E/DX2                !
 ! R18   R(10,14)                1.349          estimate D2E/DX2                !
 ! R19   R(11,12)                1.6038         estimate D2E/DX2                !
 ! R20   R(12,36)                1.5093         estimate D2E/DX2                !
 ! R21   R(13,14)                1.2987         estimate D2E/DX2                !
 ! R22   R(13,18)                1.4281         estimate D2E/DX2                !
 ! R23   R(14,15)                1.4142         estimate D2E/DX2                !
 ! R24   R(15,16)                1.4031         estimate D2E/DX2                !
 ! R25   R(15,26)                1.4129         estimate D2E/DX2                !
 ! R26   R(16,17)                1.922          estimate D2E/DX2                !
 ! R27   R(16,20)                1.3648         estimate D2E/DX2                !
 ! R28   R(17,18)                1.96           estimate D2E/DX2                !
 ! R29   R(18,37)                1.032          estimate D2E/DX2                !
 ! R30   R(19,20)                1.482          estimate D2E/DX2                !
 ! R31   R(19,38)                1.032          estimate D2E/DX2                !
 ! R32   R(20,21)                1.3909         estimate D2E/DX2                !
 ! R33   R(21,22)                1.2987         estimate D2E/DX2                !
 ! R34   R(21,25)                1.3768         estimate D2E/DX2                !
 ! R35   R(22,23)                1.6038         estimate D2E/DX2                !
 ! R36   R(24,25)                1.2988         estimate D2E/DX2                !
 ! R37   R(24,29)                1.6949         estimate D2E/DX2                !
 ! R38   R(25,26)                1.3964         estimate D2E/DX2                !
 ! R39   R(26,27)                1.466          estimate D2E/DX2                !
 ! R40   R(27,28)                1.3966         estimate D2E/DX2                !
 ! R41   R(28,29)                1.2987         estimate D2E/DX2                !
 ! R42   R(28,32)                1.3657         estimate D2E/DX2                !
 ! R43   R(29,30)                1.6038         estimate D2E/DX2                !
 ! R44   R(31,32)                1.2987         estimate D2E/DX2                !
 ! A1    A(2,1,6)              105.9552         estimate D2E/DX2                !
 ! A2    A(2,1,33)             127.0223         estimate D2E/DX2                !
 ! A3    A(6,1,33)             127.0226         estimate D2E/DX2                !
 ! A4    A(1,2,3)              107.3653         estimate D2E/DX2                !
 ! A5    A(1,2,34)             126.3171         estimate D2E/DX2                !
 ! A6    A(3,2,34)             126.3176         estimate D2E/DX2                !
 ! A7    A(2,3,4)              125.1719         estimate D2E/DX2                !
 ! A8    A(2,3,5)              109.6567         estimate D2E/DX2                !
 ! A9    A(4,3,5)              125.1714         estimate D2E/DX2                !
 ! A10   A(3,5,6)              109.656          estimate D2E/DX2                !
 ! A11   A(3,5,7)              125.1721         estimate D2E/DX2                !
 ! A12   A(6,5,7)              125.1718         estimate D2E/DX2                !
 ! A13   A(1,6,5)              107.3642         estimate D2E/DX2                !
 ! A14   A(1,6,35)             126.3179         estimate D2E/DX2                !
 ! A15   A(5,6,35)             126.3179         estimate D2E/DX2                !
 ! A16   A(5,7,8)              119.5313         estimate D2E/DX2                !
 ! A17   A(5,7,32)             119.5319         estimate D2E/DX2                !
 ! A18   A(8,7,32)             120.9368         estimate D2E/DX2                !
 ! A19   A(7,8,9)              119.7434         estimate D2E/DX2                !
 ! A20   A(7,8,36)             120.1288         estimate D2E/DX2                !
 ! A21   A(9,8,36)             120.1278         estimate D2E/DX2                !
 ! A22   A(8,9,10)             121.0149         estimate D2E/DX2                !
 ! A23   A(8,9,27)             119.1537         estimate D2E/DX2                !
 ! A24   A(10,9,27)            119.8313         estimate D2E/DX2                !
 ! A25   A(9,10,11)            119.2676         estimate D2E/DX2                !
 ! A26   A(9,10,14)            121.4646         estimate D2E/DX2                !
 ! A27   A(11,10,14)           119.2678         estimate D2E/DX2                !
 ! A28   A(10,11,12)           120.0002         estimate D2E/DX2                !
 ! A29   A(11,12,36)           105.1244         estimate D2E/DX2                !
 ! A30   A(14,13,18)           154.5785         estimate D2E/DX2                !
 ! A31   A(10,14,13)           119.2963         estimate D2E/DX2                !
 ! A32   A(10,14,15)           121.4078         estimate D2E/DX2                !
 ! A33   A(13,14,15)           119.2959         estimate D2E/DX2                !
 ! A34   A(14,15,16)           120.8772         estimate D2E/DX2                !
 ! A35   A(14,15,26)           119.8683         estimate D2E/DX2                !
 ! A36   A(16,15,26)           119.2545         estimate D2E/DX2                !
 ! A37   A(15,16,17)           120.0573         estimate D2E/DX2                !
 ! A38   A(15,16,20)           119.8856         estimate D2E/DX2                !
 ! A39   A(17,16,20)           120.0572         estimate D2E/DX2                !
 ! A40   A(16,17,18)           109.4709         estimate D2E/DX2                !
 ! A41   A(13,18,17)            95.7186         estimate D2E/DX2                !
 ! A42   A(13,18,37)            89.6569         estimate D2E/DX2                !
 ! A43   A(20,19,38)           149.6973         estimate D2E/DX2                !
 ! A44   A(16,20,19)           119.5595         estimate D2E/DX2                !
 ! A45   A(16,20,21)           120.8809         estimate D2E/DX2                !
 ! A46   A(19,20,21)           119.5596         estimate D2E/DX2                !
 ! A47   A(20,21,22)           119.692          estimate D2E/DX2                !
 ! A48   A(20,21,25)           120.6153         estimate D2E/DX2                !
 ! A49   A(22,21,25)           119.6927         estimate D2E/DX2                !
 ! A50   A(21,22,23)           120.0007         estimate D2E/DX2                !
 ! A51   A(25,24,29)           118.2837         estimate D2E/DX2                !
 ! A52   A(21,25,24)           120.2223         estimate D2E/DX2                !
 ! A53   A(21,25,26)           119.5555         estimate D2E/DX2                !
 ! A54   A(24,25,26)           120.2222         estimate D2E/DX2                !
 ! A55   A(15,26,25)           119.8058         estimate D2E/DX2                !
 ! A56   A(15,26,27)           118.7237         estimate D2E/DX2                !
 ! A57   A(25,26,27)           121.4705         estimate D2E/DX2                !
 ! A58   A(9,27,26)            118.7042         estimate D2E/DX2                !
 ! A59   A(9,27,28)            119.7336         estimate D2E/DX2                !
 ! A60   A(26,27,28)           121.5621         estimate D2E/DX2                !
 ! A61   A(27,28,29)           120.1632         estimate D2E/DX2                !
 ! A62   A(27,28,32)           119.674          estimate D2E/DX2                !
 ! A63   A(29,28,32)           120.1628         estimate D2E/DX2                !
 ! A64   A(24,29,28)           118.2965         estimate D2E/DX2                !
 ! A65   A(24,29,30)           121.703          estimate D2E/DX2                !
 ! A66   A(28,29,30)           120.0003         estimate D2E/DX2                !
 ! A67   A(7,32,28)            120.7584         estimate D2E/DX2                !
 ! A68   A(7,32,31)            119.6208         estimate D2E/DX2                !
 ! A69   A(28,32,31)           119.6209         estimate D2E/DX2                !
 ! A70   A(8,36,12)            134.4642         estimate D2E/DX2                !
 ! A71   L(17,18,37,13,-1)     185.3755         estimate D2E/DX2                !
 ! A72   L(17,18,37,13,-2)     180.0398         estimate D2E/DX2                !
 ! D1    D(6,1,2,3)              0.2958         estimate D2E/DX2                !
 ! D2    D(6,1,2,34)          -179.7041         estimate D2E/DX2                !
 ! D3    D(33,1,2,3)          -179.7041         estimate D2E/DX2                !
 ! D4    D(33,1,2,34)            0.296          estimate D2E/DX2                !
 ! D5    D(2,1,6,5)             -0.4885         estimate D2E/DX2                !
 ! D6    D(2,1,6,35)           179.5117         estimate D2E/DX2                !
 ! D7    D(33,1,6,5)           179.5115         estimate D2E/DX2                !
 ! D8    D(33,1,6,35)           -0.4884         estimate D2E/DX2                !
 ! D9    D(1,2,3,4)           -179.9913         estimate D2E/DX2                !
 ! D10   D(1,2,3,5)              0.009          estimate D2E/DX2                !
 ! D11   D(34,2,3,4)             0.0086         estimate D2E/DX2                !
 ! D12   D(34,2,3,5)          -179.9911         estimate D2E/DX2                !
 ! D13   D(2,3,5,6)             -0.3286         estimate D2E/DX2                !
 ! D14   D(2,3,5,7)            179.6712         estimate D2E/DX2                !
 ! D15   D(4,3,5,6)            179.6718         estimate D2E/DX2                !
 ! D16   D(4,3,5,7)             -0.3284         estimate D2E/DX2                !
 ! D17   D(3,5,6,1)              0.5105         estimate D2E/DX2                !
 ! D18   D(3,5,6,35)          -179.4897         estimate D2E/DX2                !
 ! D19   D(7,5,6,1)           -179.4893         estimate D2E/DX2                !
 ! D20   D(7,5,6,35)             0.5105         estimate D2E/DX2                !
 ! D21   D(3,5,7,8)            179.8113         estimate D2E/DX2                !
 ! D22   D(3,5,7,32)            -0.2048         estimate D2E/DX2                !
 ! D23   D(6,5,7,8)             -0.1889         estimate D2E/DX2                !
 ! D24   D(6,5,7,32)           179.795          estimate D2E/DX2                !
 ! D25   D(5,7,8,9)            179.8867         estimate D2E/DX2                !
 ! D26   D(5,7,8,36)            -0.1122         estimate D2E/DX2                !
 ! D27   D(32,7,8,9)            -0.0969         estimate D2E/DX2                !
 ! D28   D(32,7,8,36)          179.9041         estimate D2E/DX2                !
 ! D29   D(5,7,32,28)         -179.8853         estimate D2E/DX2                !
 ! D30   D(5,7,32,31)            0.1144         estimate D2E/DX2                !
 ! D31   D(8,7,32,28)            0.0984         estimate D2E/DX2                !
 ! D32   D(8,7,32,31)         -179.9019         estimate D2E/DX2                !
 ! D33   D(7,8,9,10)          -179.9524         estimate D2E/DX2                !
 ! D34   D(7,8,9,27)             0.0953         estimate D2E/DX2                !
 ! D35   D(36,8,9,10)            0.0466         estimate D2E/DX2                !
 ! D36   D(36,8,9,27)         -179.9058         estimate D2E/DX2                !
 ! D37   D(7,8,36,12)          179.6697         estimate D2E/DX2                !
 ! D38   D(9,8,36,12)           -0.3292         estimate D2E/DX2                !
 ! D39   D(8,9,10,11)            0.0973         estimate D2E/DX2                !
 ! D40   D(8,9,10,14)         -179.9019         estimate D2E/DX2                !
 ! D41   D(27,9,10,11)        -179.9507         estimate D2E/DX2                !
 ! D42   D(27,9,10,14)           0.0501         estimate D2E/DX2                !
 ! D43   D(8,9,27,26)          179.9978         estimate D2E/DX2                !
 ! D44   D(8,9,27,28)           -0.0948         estimate D2E/DX2                !
 ! D45   D(10,9,27,26)           0.0449         estimate D2E/DX2                !
 ! D46   D(10,9,27,28)         179.9523         estimate D2E/DX2                !
 ! D47   D(9,10,11,12)           0.0007         estimate D2E/DX2                !
 ! D48   D(14,10,11,12)        179.9999         estimate D2E/DX2                !
 ! D49   D(9,10,14,13)         179.9008         estimate D2E/DX2                !
 ! D50   D(9,10,14,15)          -0.1            estimate D2E/DX2                !
 ! D51   D(11,10,14,13)         -0.0984         estimate D2E/DX2                !
 ! D52   D(11,10,14,15)        179.9008         estimate D2E/DX2                !
 ! D53   D(10,11,12,36)         -0.1703         estimate D2E/DX2                !
 ! D54   D(11,12,36,8)           0.3816         estimate D2E/DX2                !
 ! D55   D(18,13,14,10)        179.3542         estimate D2E/DX2                !
 ! D56   D(18,13,14,15)         -0.645          estimate D2E/DX2                !
 ! D57   D(14,13,18,17)          0.6295         estimate D2E/DX2                !
 ! D58   D(14,13,18,37)       -179.4103         estimate D2E/DX2                !
 ! D59   D(10,14,15,16)       -179.9016         estimate D2E/DX2                !
 ! D60   D(10,14,15,26)          0.0513         estimate D2E/DX2                !
 ! D61   D(13,14,15,16)          0.0976         estimate D2E/DX2                !
 ! D62   D(13,14,15,26)       -179.9495         estimate D2E/DX2                !
 ! D63   D(14,15,16,17)          0.0459         estimate D2E/DX2                !
 ! D64   D(14,15,16,20)       -179.9533         estimate D2E/DX2                !
 ! D65   D(26,15,16,17)       -179.9073         estimate D2E/DX2                !
 ! D66   D(26,15,16,20)          0.0936         estimate D2E/DX2                !
 ! D67   D(14,15,26,25)       -179.9996         estimate D2E/DX2                !
 ! D68   D(14,15,26,27)          0.0437         estimate D2E/DX2                !
 ! D69   D(16,15,26,25)         -0.046          estimate D2E/DX2                !
 ! D70   D(16,15,26,27)        179.9973         estimate D2E/DX2                !
 ! D71   D(15,16,17,18)          0.0006         estimate D2E/DX2                !
 ! D72   D(20,16,17,18)        179.9997         estimate D2E/DX2                !
 ! D73   D(15,16,20,19)       -179.8071         estimate D2E/DX2                !
 ! D74   D(15,16,20,21)          0.1923         estimate D2E/DX2                !
 ! D75   D(17,16,20,19)          0.1937         estimate D2E/DX2                !
 ! D76   D(17,16,20,21)       -179.8068         estimate D2E/DX2                !
 ! D77   D(16,17,18,13)         -0.1544         estimate D2E/DX2                !
 ! D78   D(38,19,20,16)        179.9424         estimate D2E/DX2                !
 ! D79   D(38,19,20,21)         -0.0571         estimate D2E/DX2                !
 ! D80   D(16,20,21,22)        179.4655         estimate D2E/DX2                !
 ! D81   D(16,20,21,25)         -0.535          estimate D2E/DX2                !
 ! D82   D(19,20,21,22)         -0.5351         estimate D2E/DX2                !
 ! D83   D(19,20,21,25)        179.4644         estimate D2E/DX2                !
 ! D84   D(20,21,22,23)         -0.0005         estimate D2E/DX2                !
 ! D85   D(25,21,22,23)       -179.9999         estimate D2E/DX2                !
 ! D86   D(20,21,25,24)       -179.4241         estimate D2E/DX2                !
 ! D87   D(20,21,25,26)          0.5758         estimate D2E/DX2                !
 ! D88   D(22,21,25,24)          0.5754         estimate D2E/DX2                !
 ! D89   D(22,21,25,26)       -179.4247         estimate D2E/DX2                !
 ! D90   D(29,24,25,21)       -179.5057         estimate D2E/DX2                !
 ! D91   D(29,24,25,26)          0.4944         estimate D2E/DX2                !
 ! D92   D(25,24,29,28)         -0.4413         estimate D2E/DX2                !
 ! D93   D(25,24,29,30)        179.7355         estimate D2E/DX2                !
 ! D94   D(21,25,26,15)         -0.2869         estimate D2E/DX2                !
 ! D95   D(21,25,26,27)        179.6686         estimate D2E/DX2                !
 ! D96   D(24,25,26,15)        179.713          estimate D2E/DX2                !
 ! D97   D(24,25,26,27)         -0.3315         estimate D2E/DX2                !
 ! D98   D(15,26,27,9)          -0.0896         estimate D2E/DX2                !
 ! D99   D(15,26,27,28)       -179.9953         estimate D2E/DX2                !
 ! D100  D(25,26,27,9)         179.9544         estimate D2E/DX2                !
 ! D101  D(25,26,27,28)          0.0488         estimate D2E/DX2                !
 ! D102  D(9,27,28,29)        -179.9052         estimate D2E/DX2                !
 ! D103  D(9,27,28,32)           0.0957         estimate D2E/DX2                !
 ! D104  D(26,27,28,29)         -0.0005         estimate D2E/DX2                !
 ! D105  D(26,27,28,32)       -179.9996         estimate D2E/DX2                !
 ! D106  D(27,28,29,24)          0.1738         estimate D2E/DX2                !
 ! D107  D(27,28,29,30)       -179.9999         estimate D2E/DX2                !
 ! D108  D(32,28,29,24)       -179.8271         estimate D2E/DX2                !
 ! D109  D(32,28,29,30)         -0.0008         estimate D2E/DX2                !
 ! D110  D(27,28,32,7)          -0.0966         estimate D2E/DX2                !
 ! D111  D(27,28,32,31)        179.9036         estimate D2E/DX2                !
 ! D112  D(29,28,32,7)         179.9043         estimate D2E/DX2                !
 ! D113  D(29,28,32,31)         -0.0955         estimate D2E/DX2                !
 --------------------------------------------------------------------------------
 Trust Radius=3.00D-01 FncErr=1.00D-07 GrdErr=1.00D-06
 Number of steps in this run=    228 maximum allowed number of steps=    228.
 GradGradGradGradGradGradGradGradGradGradGradGradGradGradGradGradGradGrad

                          Input orientation:                          
 ---------------------------------------------------------------------
 Center     Atomic      Atomic             Coordinates (Angstroms)
 Number     Number       Type             X           Y           Z
 ---------------------------------------------------------------------
      1          6           0       -1.144000    0.000000   -0.002000
      2          6           0       -0.328000    1.082000    0.001000
      3          7           0        0.901000    0.643000    0.001000
      4          1           0        1.718430    1.219020    0.003020
      5          6           0        0.901000   -0.643000   -0.002000
      6          6           0       -0.328000   -1.082000    0.003000
      7          6           0        2.081350   -1.474780   -0.009730
      8          6           0        1.947300   -2.832220   -0.008330
      9          6           0        3.090340   -3.644070   -0.018220
     10          6           0        2.982640   -5.053850   -0.018050
     11          7           0        1.804630   -5.600650   -0.010490
     12         16           0        0.492540   -4.678450   -0.001500
     13          7           0        3.928440   -7.133890   -0.023110
     14          6           0        4.076280   -5.843590   -0.025550
     15          6           0        5.380350   -5.296490   -0.036030
     16          6           0        6.510150   -6.128380   -0.045830
     17         34           0        6.299010   -8.038750   -0.046470
     18          6           0        4.390570   -8.485130   -0.032150
     19          6           0        8.947680   -6.464140   -0.069550
     20          6           0        7.759370   -5.578680   -0.054890
     21          6           0        7.932060   -4.198530   -0.050560
     22          7           0        9.131420   -3.700270   -0.048860
     23         16           0       10.404820   -4.675240   -0.051740
     24          7           0        7.013470   -2.068150   -0.055310
     25          6           0        6.843420   -3.355700   -0.048070
     26          6           0        5.555200   -3.894500   -0.037710
     27          6           0        4.366720   -3.036270   -0.027460
     28          6           0        4.470720   -1.643560   -0.028620
     29          7           0        5.639050   -1.076420   -0.038940
     30         16           0        5.753930    0.523240   -0.040230
     31          7           0        3.435710    0.414110   -0.018020
     32          6           0        3.337780   -0.880940   -0.018830
     33          1           0       -2.175990    0.000000   -0.007060
     34          1           0       -0.623880    2.070670    0.002930
     35          1           0       -0.623870   -2.070660    0.009550
     36          1           0        1.008170   -3.260000   -0.000040
     37          1           0        3.412160   -8.813270   -0.024470
     38          1           0        9.973220   -6.578940   -0.079940
 ---------------------------------------------------------------------
                    Distance matrix (angstroms):
                    1          2          3          4          5
     1  C    0.000000
     2  C    1.355208   0.000000
     3  N    2.143708   1.305052   0.000000
     4  H    3.111196   2.051013   0.999997   0.000000
     5  C    2.143706   2.118036   1.286003   2.033552   0.000000
     6  C    1.355214   2.164001   2.118034   3.079378   1.305062
     7  C    3.546536   3.513148   2.424527   2.718167   1.444003
     8  C    4.192570   4.527493   3.629323   4.057716   2.426411
     9  C    5.586515   5.832766   4.813787   5.052943   3.714821
    10  C    6.524631   6.972041   6.065285   6.399029   4.877405
    11  N    6.329437   7.014703   6.308712   6.820228   5.039337
    12  S    4.956426   5.818597   5.337104   6.023535   4.056069
    13  N    8.753427   9.253038   8.345417   8.640366   7.162227
    14  C    7.835778   8.207447   7.222116   7.445853   6.093365
    15  C    8.403637   8.559893   7.439320   7.474159   6.459157
    16  C    9.805354   9.937408   8.792971   8.771958   7.845628
    17  Se  10.955450  11.274200  10.223187  10.329108   9.156288
    18  C   10.130637  10.667520   9.772459  10.065391   8.583531
    19  C   11.984643  11.957736  10.736176  10.549800   9.931732
    20  C   10.506877  10.477277   9.260111   9.094231   8.449910
    21  C   10.000244   9.803838   8.536913   8.243902   7.879083
    22  N   10.921467  10.599680   9.306250   8.896883   8.780029
    23  S   12.459357  12.179574  10.890778  10.497555  10.323954
    24  N    8.415724   7.988980   6.686987   6.232683   6.276638
    25  C    8.663817   8.433555   7.162707   6.869949   6.532474
    26  C    7.749044   7.705783   6.500152   6.393008   5.677597
    27  C    6.291869   6.245106   5.054607   5.012171   4.211841
    28  C    5.850391   5.518810   4.239355   3.971205   3.707389
    29  N    6.868028   6.345554   5.040547   4.543354   4.757976
    30  S    6.917852   6.107682   4.854583   4.095271   4.991243
    31  N    4.598422   3.822558   2.545095   1.896674   2.746360
    32  C    4.567569   4.158301   2.874140   2.651906   2.448427
    33  H    1.032002   2.141461   3.143466   4.080762   3.143460
    34  H    2.135000   1.031997   2.088900   2.492333   3.112762
    35  H    2.135018   3.166524   3.112756   4.038367   2.088917
    36  H    3.906333   4.542941   3.904471   4.534986   2.619194
    37  H    9.921332  10.578554   9.784049  10.174297   8.547499
    38  H   12.918247  12.837900  11.596040  11.355907  10.841893
                    6          7          8          9         10
     6  C    0.000000
     7  C    2.441189   0.000000
     8  C    2.870608   1.364044   0.000000
     9  C    4.271967   2.392478   1.402048   0.000000
    10  C    5.170723   3.690818   2.451053   1.413888   0.000000
    11  N    4.996648   4.135139   2.772105   2.341221   1.298751
    12  S    3.688870   3.576015   2.350519   2.796209   2.518292
    13  N    7.398874   5.952936   4.735979   3.589050   2.284979
    14  C    6.486234   4.802759   3.687981   2.410398   1.348997
    15  C    7.095682   5.048719   4.226018   2.823996   2.410023
    16  C    8.498743   6.424295   5.629003   4.227015   3.687643
    17  Se   9.608126   7.802289   6.785778   5.441468   4.461922
    18  C    8.779093   7.380922   6.158370   5.012649   3.708928
    19  C   10.724315   8.487861   7.886692   6.501066   6.129704
    20  C    9.253596   7.005994   6.428481   5.054098   4.805617
    21  C    8.828602   6.453781   6.138887   4.873471   5.022886
    22  N    9.815226   7.393093   7.236486   6.041419   6.296080
    23  S   11.318471   8.917671   8.656111   7.386884   7.431907
    24  N    7.407636   4.967894   5.123679   4.227984   5.016312
    25  C    7.523402   5.120219   4.924185   3.764261   4.217847
    26  C    6.521032   4.233611   3.761149   2.477626   2.821798
    27  C    5.085322   2.767938   2.428085   1.413737   2.446711
    28  C    4.831569   2.395398   2.789440   2.430555   3.720829
    29  N    5.967200   3.580052   4.088128   3.617897   4.782980
    30  S    6.290353   4.181012   5.074501   4.945874   6.227718
    31  N    4.050222   2.324277   3.571291   4.072850   5.486698
    32  C    3.671355   1.389728   2.396046   2.774187   4.187995
    33  H    2.141470   4.505544   5.002299   6.404186   7.221702
    34  H    3.166524   4.459669   5.536192   6.815727   7.985375
    35  H    1.032003   2.770137   2.681643   4.033825   4.680502
    36  H    2.555199   2.082983   1.032003   2.117374   2.667724
    37  H    8.588486   7.458197   6.157843   5.179212   3.783883
    38  H   11.676402   9.398882   8.857676   7.482734   7.155273
                   11         12         13         14         15
    11  N    0.000000
    12  S    1.603781   0.000000
    13  N    2.619457   4.223158   0.000000
    14  C    2.284653   3.768464   1.298744   0.000000
    15  C    3.588724   4.926850   2.341847   1.414223   0.000000
    16  C    4.735152   6.189983   2.770703   2.450559   1.403063
    17  Se   5.113226   6.708855   2.537503   3.124051   2.892064
    18  C    3.873988   5.448522   1.428109   2.660180   3.338728
    19  C    7.195295   8.641916   5.063940   4.910963   3.753715
    20  C    5.954946   7.322574   4.134696   3.692721   2.395772
    21  C    6.285932   7.455145   4.964480   4.192122   2.777940
    22  N    7.569331   8.694212   6.233892   5.490793   4.076593
    23  S    8.649934   9.912408   6.927429   6.435538   5.062756
    24  N    6.293852   7.024179   5.931287   4.783505   3.617960
    25  C    5.516395   6.487335   4.772049   3.721178   2.430511
    26  C    4.120493   5.123126   3.624943   2.446692   1.412852
    27  C    3.625002   4.207933   4.120995   2.822305   2.477118
    28  C    4.771470   5.003720   5.517048   4.218512   3.764489
    29  N    5.930619   6.281925   6.294393   5.016806   4.227993
    30  S    7.286967   7.398737   7.871744   6.584167   5.831710
    31  N    6.231999   5.881895   7.564067   6.290405   6.032653
    32  C    4.962487   4.745184   6.280787   5.017302   4.865128
    33  H    6.871145   5.385998   9.389180   8.557965   9.227780
    34  H    8.046552   6.840836  10.268798   9.204772   9.504070
    35  H    4.284722   2.836734   6.808883   6.027242   6.816063
    36  H    2.472468   1.509264   4.851343   4.011095   4.823333
    37  H    3.592391   5.061763   1.756947   3.043034   4.030093
    38  H    8.227256   9.669607   6.070467   5.942861   4.768759
                   16         17         18         19         20
    16  C    0.000000
    17  Se   1.922003   0.000000
    18  C    3.169712   1.960001   0.000000
    19  C    2.460660   3.081458   4.985283   0.000000
    20  C    1.364845   2.860886   4.449357   1.482004   0.000000
    21  C    2.397117   4.173028   5.560344   2.482908   1.390919
    22  N    3.573064   5.181212   6.735787   2.770048   2.326152
    23  S    4.156935   5.307627   7.119470   2.307323   2.795464
    24  N    4.091319   6.013202   6.932371   4.802718   3.588898
    25  C    2.792638   4.714588   5.685752   3.753768   2.404298
    26  C    2.429448   4.210480   4.736061   4.255935   2.774008
    27  C    3.762416   5.362734   5.448914   5.721648   4.239655
    28  C    4.926782   6.651422   6.842040   6.578969   5.128458
    29  N    5.126516   6.993543   7.513171   6.322618   4.976581
    30  S    6.694472   8.579325   9.110957   7.682732   6.423039
    31  N    7.228909   8.924693   8.950331   8.814465   7.389785
    32  C    6.131907   7.746218   7.676734   7.914902   6.451397
    33  H   10.630502  11.681125  10.729295  12.865654  11.394531
    34  H   10.868357  12.252723  11.686353  12.824313  11.348779
    35  H    8.207460   9.140432   8.141976  10.532022   9.087853
    36  H    6.204956   7.129628   6.224439   8.561960   7.138486
    37  H    4.099589   2.989025   1.031999   6.013520   5.418647
    38  H    3.492423   3.953730   5.899307   1.031998   2.429461
                   21         22         23         24         25
    21  C    0.000000
    22  N    1.298742   0.000000
    23  S    2.518292   1.603784   0.000000
    24  N    2.319989   2.673868   4.277638   0.000000
    25  C    1.376774   2.313801   3.797995   1.298751   0.000000
    26  C    2.396260   3.581508   4.912084   2.337181   1.396397
    27  C    3.750071   4.810792   6.256634   2.818389   2.497299
    28  C    4.302235   5.094368   6.663720   2.578094   2.926005
    29  N    3.873706   4.368219   5.971954   1.694942   2.577927
    30  S    5.199949   5.407915   6.975321   2.881314   4.029048
    31  N    6.441636   7.026392   8.629665   4.354695   5.081816
    32  C    5.666994   6.443275   8.021275   3.862835   4.291247
    33  H   10.945420  11.897532  13.421499   9.419435   9.623521
    34  H   10.607066  11.334563  12.928361   8.686906   9.230854
    35  H    8.816767   9.890638  11.332237   7.637616   7.577273
    36  H    6.987392   8.135319   9.502768   6.122678   5.836232
    37  H    6.459567   7.671590   8.125351   7.646374   6.446640
    38  H    3.135849   2.999389   1.952216   5.395179   4.492877
                   26         27         28         29         30
    26  C    0.000000
    27  C    1.465997   0.000000
    28  C    2.498582   1.396588   0.000000
    29  N    2.819327   2.336657   1.298749   0.000000
    30  S    4.422208   3.820291   2.518290   1.603780   0.000000
    31  N    4.801744   3.573792   2.303338   2.660230   2.320893
    32  C    3.741504   2.388355   1.365737   2.309645   2.794631
    33  H    8.656753   7.212933   6.846934   7.888888   7.947233
    34  H    8.588710   7.140578   6.304875   7.009295   6.562992
    35  H    6.442789   5.083282   5.112604   6.341532   6.885283
    36  H    4.591241   3.366105   3.821380   5.120018   6.069329
    37  H    5.365361   5.855333   7.247435   8.050969   9.625724
    38  H    5.169807   6.632202   7.391760   7.004601   8.261050
                   31         32         33         34         35
    31  N    0.000000
    32  C    1.298748   0.000000
    33  H    5.626969   5.583713   0.000000
    34  H    4.384621   4.940367   2.587821   0.000000
    35  H    4.759730   4.136534   2.587853   4.141335   0.000000
    36  H    4.403676   3.329769   4.557030   5.574912   2.019449
    37  H    9.227412   7.932681  10.435586  11.608209   7.858339
    38  H    9.573172   8.746428  13.816333  13.679223  11.516550
                   36         37         38
    36  H    0.000000
    37  H    6.051328   0.000000
    38  H    9.560014   6.931293   0.000000
 Stoichiometry    C20H7N7S3Se
 Framework group  C1[X(C20H7N7S3Se)]
 Deg. of freedom   108
 Full point group                 C1      NOp   1
 Largest Abelian subgroup         C1      NOp   1
 Largest concise Abelian subgroup C1      NOp   1
                         Standard orientation:                         
 ---------------------------------------------------------------------
 Center     Atomic      Atomic             Coordinates (Angstroms)
 Number     Number       Type             X           Y           Z
 ---------------------------------------------------------------------
      1          6           0       -6.802266   -1.011074   -0.009255
      2          6           0       -6.912555    0.339619   -0.001901
      3          7           0       -5.702825    0.829166    0.005823
      4          1           0       -5.475521    1.802965    0.012492
      5          6           0       -4.847510   -0.131165    0.003549
      6          6           0       -5.473319   -1.276392    0.001319
      7          6           0       -3.412840    0.032739    0.003469
      8          6           0       -2.610135   -1.070110    0.004818
      9          6           0       -1.216570   -0.916129    0.002340
     10          6           0       -0.359372   -2.040535    0.002650
     11          7           0       -0.875421   -3.232361    0.003352
     12         16           0       -2.468611   -3.416365    0.003839
     13          7           0        1.730334   -2.964794    0.004517
     14          6           0        0.982586   -1.902906    0.002249
     15          6           0        1.592585   -0.627007   -0.000606
     16          6           0        2.989591   -0.496796   -0.003063
     17         34           0        4.102484   -2.063819   -0.003910
     18          6           0        2.974165   -3.666471   -0.000949
     19          6           0        5.033244    0.873698   -0.011764
     20          6           0        3.556894    0.744560   -0.004833
     21          6           0        2.767911    1.890047   -0.000231
     22          7           0        3.332141    3.059790    0.008485
     23         16           0        4.931506    3.178633    0.013902
     24          7           0        0.665092    2.870030   -0.011770
     25          6           0        1.394402    1.795407   -0.004839
     26          6           0        0.790719    0.536248   -0.002012
     27          6           0       -0.667626    0.386679    0.000523
     28          6           0       -1.516229    1.495881   -0.000790
     29          7           0       -1.020924    2.696468   -0.004321
     30         16           0       -1.999041    3.967450   -0.005814
     31          7           0       -3.657703    2.344082    0.002353
     32          6           0       -2.869509    1.311854    0.001678
     33          1           0       -7.572881   -1.697408   -0.020594
     34          1           0       -7.791063    0.881135   -0.002329
     35          1           0       -5.036749   -2.211491    0.006626
     36          1           0       -3.026962   -2.014185    0.007636
     37          1           0        2.461740   -4.562259    0.000963
     38          1           0        5.875470    1.470068   -0.015850
 ---------------------------------------------------------------------
 Rotational constants (GHZ):      0.1838313      0.0776018      0.0545673
 Standard basis: 6-31++G(d,p) (6D, 7F)
 There are   658 symmetry adapted basis functions of A   symmetry.
 Integral buffers will be    131072 words long.
 Raffenetti 2 integral format.
 Two-electron integral symmetry is turned on.
   658 basis functions,  1175 primitive gaussians,   658 cartesian basis functions
   129 alpha electrons      129 beta electrons
       nuclear repulsion energy      3961.9951043592 Hartrees.
 NAtoms=   38 NActive=   38 NUniq=   38 SFac= 1.00D+00 NAtFMM=   60 NAOKFM=F Big=F
 One-electron integrals computed using PRISM.
 NBasis=   658 RedAO= T  NBF=   658
 NBsUse=   642 1.00D-06 NBFU=   642
 Harris functional with IExCor=  402 diagonalized for initial guess.
 ExpMin= 3.00D-02 ExpMax= 5.61D+05 ExpMxC= 5.42D+03 IAcc=3 IRadAn=         5 AccDes= 0.00D+00
 HarFok:  IExCor=  402 AccDes= 0.00D+00 IRadAn=         5 IDoV= 1
 ScaDFX=  1.000000  1.000000  1.000000  1.000000
 FoFCou: FMM=F IPFlag=           0 FMFlag=      100000 FMFlg1=           0
         NFxFlg=           0 DoJE=T BraDBF=F KetDBF=T FulRan=T
         Omega=  0.000000  0.000000  1.000000  0.000000  0.000000 ICntrl=     500 IOpCl=  0
         NMat0=    1 NMatS0=    1 NMatT0=    0 NMatD0=    1 NMtDS0=    0 NMtDT0=    0
         I1Cent=           4 NGrid=           0.
 Petite list used in FoFCou.
 Initial guess orbital symmetries:
       Occupied  (A) (A) (A) (A) (A) (A) (A) (A) (A) (A) (A) (A)
                 (A) (A) (A) (A) (A) (A) (A) (A) (A) (A) (A) (A)
                 (A) (A) (A) (A) (A) (A) (A) (A) (A) (A) (A) (A)
                 (A) (A) (A) (A) (A) (A) (A) (A) (A) (A) (A) (A)
                 (A) (A) (A) (A) (A) (A) (A) (A) (A) (A) (A) (A)
                 (A) (A) (A) (A) (A) (A) (A) (A) (A) (A) (A) (A)
                 (A) (A) (A) (A) (A) (A) (A) (A) (A) (A) (A) (A)
                 (A) (A) (A) (A) (A) (A) (A) (A) (A) (A) (A) (A)
                 (A) (A) (A) (A) (A) (A) (A) (A) (A) (A) (A) (A)
                 (A) (A) (A) (A) (A) (A) (A) (A) (A) (A) (A) (A)
                 (A) (A) (A) (A) (A) (A) (A) (A) (A)
       Virtual   (A) (A) (A) (A) (A) (A) (A) (A) (A) (A) (A) (A)
                 (A) (A) (A) (A) (A) (A) (A) (A) (A) (A) (A) (A)
                 (A) (A) (A) (A) (A) (A) (A) (A) (A) (A) (A) (A)
                 (A) (A) (A) (A) (A) (A) (A) (A) (A) (A) (A) (A)
                 (A) (A) (A) (A) (A) (A) (A) (A) (A) (A) (A) (A)
                 (A) (A) (A) (A) (A) (A) (A) (A) (A) (A) (A) (A)
                 (A) (A) (A) (A) (A) (A) (A) (A) (A) (A) (A) (A)
                 (A) (A) (A) (A) (A) (A) (A) (A) (A) (A) (A) (A)
                 (A) (A) (A) (A) (A) (A) (A) (A) (A) (A) (A) (A)
                 (A) (A) (A) (A) (A) (A) (A) (A) (A) (A) (A) (A)
                 (A) (A) (A) (A) (A) (A) (A) (A) (A) (A) (A) (A)
                 (A) (A) (A) (A) (A) (A) (A) (A) (A) (A) (A) (A)
                 (A) (A) (A) (A) (A) (A) (A) (A) (A) (A) (A) (A)
                 (A) (A) (A) (A) (A) (A) (A) (A) (A) (A) (A) (A)
                 (A) (A) (A) (A) (A) (A) (A) (A) (A) (A) (A) (A)
                 (A) (A) (A) (A) (A) (A) (A) (A) (A) (A) (A) (A)
                 (A) (A) (A) (A) (A) (A) (A) (A) (A) (A) (A) (A)
                 (A) (A) (A) (A) (A) (A) (A) (A) (A) (A) (A) (A)
                 (A) (A) (A) (A) (A) (A) (A) (A) (A) (A) (A) (A)
                 (A) (A) (A) (A) (A) (A) (A) (A) (A) (A) (A) (A)
                 (A) (A) (A) (A) (A) (A) (A) (A) (A) (A) (A) (A)
                 (A) (A) (A) (A) (A) (A) (A) (A) (A) (A) (A) (A)
                 (A) (A) (A) (A) (A) (A) (A) (A) (A) (A) (A) (A)
                 (A) (A) (A) (A) (A) (A) (A) (A) (A) (A) (A) (A)
                 (A) (A) (A) (A) (A) (A) (A) (A) (A) (A) (A) (A)
                 (A) (A) (A) (A) (A) (A) (A) (A) (A) (A) (A) (A)
                 (A) (A) (A) (A) (A) (A) (A) (A) (A) (A) (A) (A)
                 (A) (A) (A) (A) (A) (A) (A) (A) (A) (A) (A) (A)
                 (A) (A) (A) (A) (A) (A) (A) (A) (A) (A) (A) (A)
                 (A) (A) (A) (A) (A) (A) (A) (A) (A) (A) (A) (A)
                 (A) (A) (A) (A) (A) (A) (A) (A) (A) (A) (A) (A)
                 (A) (A) (A) (A) (A) (A) (A) (A) (A) (A) (A) (A)
                 (A) (A) (A) (A) (A) (A) (A) (A) (A) (A) (A) (A)
                 (A) (A) (A) (A) (A) (A) (A) (A) (A) (A) (A) (A)
                 (A) (A) (A) (A) (A) (A) (A) (A) (A) (A) (A) (A)
                 (A) (A) (A) (A) (A) (A) (A) (A) (A) (A) (A) (A)
                 (A) (A) (A) (A) (A) (A) (A) (A) (A) (A) (A) (A)
                 (A) (A) (A) (A) (A) (A) (A) (A) (A) (A) (A) (A)
                 (A) (A) (A) (A) (A) (A) (A) (A) (A) (A) (A) (A)
                 (A) (A) (A) (A) (A) (A) (A) (A) (A) (A) (A) (A)
                 (A) (A) (A) (A) (A) (A) (A) (A) (A) (A) (A) (A)
                 (A) (A) (A) (A) (A) (A) (A) (A) (A) (A) (A) (A)
                 (A) (A) (A) (A) (A) (A) (A) (A) (A)
 The electronic state of the initial guess is 1-A.
 Requested convergence on RMS density matrix=1.00D-08 within 128 cycles.
 Requested convergence on MAX density matrix=1.00D-06.
 Requested convergence on             energy=1.00D-06.
 No special actions if energy rises.
 EnCoef did     4 forward-backward iterations
 EnCoef did   100 forward-backward iterations
 EnCoef did   100 forward-backward iterations
 EnCoef did     8 forward-backward iterations
 EnCoef did     3 forward-backward iterations
 EnCoef did     6 forward-backward iterations
 EnCoef did     4 forward-backward iterations
 EnCoef did     7 forward-backward iterations
 EnCoef did     3 forward-backward iterations
 EnCoef did     2 forward-backward iterations
 EnCoef did   100 forward-backward iterations
 Restarting incremental Fock formation.
 Matrix for removal  3 Erem= -4734.81819264696     Crem= 0.000D+00
 SCF Done:  E(RB3LYP) =  -4742.96472071     A.U. after   37 cycles
             Convg  =    0.5893D-08             -V/T =  2.0046

 **********************************************************************

            Population analysis using the SCF density.

 **********************************************************************

 Orbital symmetries:
       Occupied  (A) (A) (A) (A) (A) (A) (A) (A) (A) (A) (A) (A)
                 (A) (A) (A) (A) (A) (A) (A) (A) (A) (A) (A) (A)
                 (A) (A) (A) (A) (A) (A) (A) (A) (A) (A) (A) (A)
                 (A) (A) (A) (A) (A) (A) (A) (A) (A) (A) (A) (A)
                 (A) (A) (A) (A) (A) (A) (A) (A) (A) (A) (A) (A)
                 (A) (A) (A) (A) (A) (A) (A) (A) (A) (A) (A) (A)
                 (A) (A) (A) (A) (A) (A) (A) (A) (A) (A) (A) (A)
                 (A) (A) (A) (A) (A) (A) (A) (A) (A) (A) (A) (A)
                 (A) (A) (A) (A) (A) (A) (A) (A) (A) (A) (A) (A)
                 (A) (A) (A) (A) (A) (A) (A) (A) (A) (A) (A) (A)
                 (A) (A) (A) (A) (A) (A) (A) (A) (A)
       Virtual   (A) (A) (A) (A) (A) (A) (A) (A) (A) (A) (A) (A)
                 (A) (A) (A) (A) (A) (A) (A) (A) (A) (A) (A) (A)
                 (A) (A) (A) (A) (A) (A) (A) (A) (A) (A) (A) (A)
                 (A) (A) (A) (A) (A) (A) (A) (A) (A) (A) (A) (A)
                 (A) (A) (A) (A) (A) (A) (A) (A) (A) (A) (A) (A)
                 (A) (A) (A) (A) (A) (A) (A) (A) (A) (A) (A) (A)
                 (A) (A) (A) (A) (A) (A) (A) (A) (A) (A) (A) (A)
                 (A) (A) (A) (A) (A) (A) (A) (A) (A) (A) (A) (A)
                 (A) (A) (A) (A) (A) (A) (A) (A) (A) (A) (A) (A)
                 (A) (A) (A) (A) (A) (A) (A) (A) (A) (A) (A) (A)
                 (A) (A) (A) (A) (A) (A) (A) (A) (A) (A) (A) (A)
                 (A) (A) (A) (A) (A) (A) (A) (A) (A) (A) (A) (A)
                 (A) (A) (A) (A) (A) (A) (A) (A) (A) (A) (A) (A)
                 (A) (A) (A) (A) (A) (A) (A) (A) (A) (A) (A) (A)
                 (A) (A) (A) (A) (A) (A) (A) (A) (A) (A) (A) (A)
                 (A) (A) (A) (A) (A) (A) (A) (A) (A) (A) (A) (A)
                 (A) (A) (A) (A) (A) (A) (A) (A) (A) (A) (A) (A)
                 (A) (A) (A) (A) (A) (A) (A) (A) (A) (A) (A) (A)
                 (A) (A) (A) (A) (A) (A) (A) (A) (A) (A) (A) (A)
                 (A) (A) (A) (A) (A) (A) (A) (A) (A) (A) (A) (A)
                 (A) (A) (A) (A) (A) (A) (A) (A) (A) (A) (A) (A)
                 (A) (A) (A) (A) (A) (A) (A) (A) (A) (A) (A) (A)
                 (A) (A) (A) (A) (A) (A) (A) (A) (A) (A) (A) (A)
                 (A) (A) (A) (A) (A) (A) (A) (A) (A) (A) (A) (A)
                 (A) (A) (A) (A) (A) (A) (A) (A) (A) (A) (A) (A)
                 (A) (A) (A) (A) (A) (A) (A) (A) (A) (A) (A) (A)
                 (A) (A) (A) (A) (A) (A) (A) (A) (A) (A) (A) (A)
                 (A) (A) (A) (A) (A) (A) (A) (A) (A) (A) (A) (A)
                 (A) (A) (A) (A) (A) (A) (A) (A) (A) (A) (A) (A)
                 (A) (A) (A) (A) (A) (A) (A) (A) (A) (A) (A) (A)
                 (A) (A) (A) (A) (A) (A) (A) (A) (A) (A) (A) (A)
                 (A) (A) (A) (A) (A) (A) (A) (A) (A) (A) (A) (A)
                 (A) (A) (A) (A) (A) (A) (A) (A) (A) (A) (A) (A)
                 (A) (A) (A) (A) (A) (A) (A) (A) (A) (A) (A) (A)
                 (A) (A) (A) (A) (A) (A) (A) (A) (A) (A) (A) (A)
                 (A) (A) (A) (A) (A) (A) (A) (A) (A) (A) (A) (A)
                 (A) (A) (A) (A) (A) (A) (A) (A) (A) (A) (A) (A)
                 (A) (A) (A) (A) (A) (A) (A) (A) (A) (A) (A) (A)
                 (A) (A) (A) (A) (A) (A) (A) (A) (A) (A) (A) (A)
                 (A) (A) (A) (A) (A) (A) (A) (A) (A) (A) (A) (A)
                 (A) (A) (A) (A) (A) (A) (A) (A) (A) (A) (A) (A)
                 (A) (A) (A) (A) (A) (A) (A) (A) (A) (A) (A) (A)
                 (A) (A) (A) (A) (A) (A) (A) (A) (A)
 The electronic state is 1-A.
 Alpha  occ. eigenvalues -- -453.95256 -88.96646 -88.96202 -88.92603 -57.54973
 Alpha  occ. eigenvalues --  -52.22350 -52.22230 -52.21926 -14.49022 -14.40702
 Alpha  occ. eigenvalues --  -14.40205 -14.39004 -14.37766 -14.37674 -14.35881
 Alpha  occ. eigenvalues --  -10.30670 -10.28407 -10.28215 -10.27822 -10.27653
 Alpha  occ. eigenvalues --  -10.27444 -10.27323 -10.26178 -10.25903 -10.25126
 Alpha  occ. eigenvalues --  -10.25001 -10.24981 -10.24274 -10.22908 -10.22255
 Alpha  occ. eigenvalues --  -10.21927 -10.20360 -10.19620 -10.15857 -10.15507
 Alpha  occ. eigenvalues --   -8.02287  -8.01669  -7.98598  -7.79094  -5.98800
 Alpha  occ. eigenvalues --   -5.98311  -5.98294  -5.97948  -5.97600  -5.97329
 Alpha  occ. eigenvalues --   -5.95090  -5.94763  -5.94050  -5.83286  -5.82901
 Alpha  occ. eigenvalues --   -5.82185  -2.18894  -2.18860  -2.18230  -2.17925
 Alpha  occ. eigenvalues --   -2.17821  -1.06460  -1.03262  -1.01685  -1.00114
 Alpha  occ. eigenvalues --   -0.96240  -0.95458  -0.93706  -0.90119  -0.89004
 Alpha  occ. eigenvalues --   -0.85671  -0.82818  -0.80552  -0.80303  -0.79967
 Alpha  occ. eigenvalues --   -0.78860  -0.76969  -0.76183  -0.73115  -0.71590
 Alpha  occ. eigenvalues --   -0.70128  -0.69096  -0.68300  -0.64957  -0.64023
 Alpha  occ. eigenvalues --   -0.61787  -0.61172  -0.60763  -0.59334  -0.58072
 Alpha  occ. eigenvalues --   -0.57282  -0.55086  -0.53565  -0.53016  -0.51472
 Alpha  occ. eigenvalues --   -0.50864  -0.50210  -0.49746  -0.48567  -0.48045
 Alpha  occ. eigenvalues --   -0.47598  -0.46706  -0.46257  -0.45633  -0.45178
 Alpha  occ. eigenvalues --   -0.44701  -0.43623  -0.42997  -0.41948  -0.41387
 Alpha  occ. eigenvalues --   -0.40061  -0.39516  -0.39495  -0.39263  -0.38607
 Alpha  occ. eigenvalues --   -0.37737  -0.36892  -0.35620  -0.35208  -0.33393
 Alpha  occ. eigenvalues --   -0.33127  -0.32554  -0.31022  -0.30829  -0.29638
 Alpha  occ. eigenvalues --   -0.28423  -0.27692  -0.27282  -0.26003  -0.25757
 Alpha  occ. eigenvalues --   -0.23459  -0.22915  -0.18543  -0.17635
 Alpha virt. eigenvalues --   -0.15613  -0.13860  -0.13524  -0.12527  -0.11537
 Alpha virt. eigenvalues --   -0.08138  -0.08015  -0.05667  -0.04841  -0.02437
 Alpha virt. eigenvalues --   -0.02298  -0.01561  -0.00571  -0.00101   0.00015
 Alpha virt. eigenvalues --    0.00684   0.00949   0.01280   0.01641   0.01716
 Alpha virt. eigenvalues --    0.02359   0.02459   0.02645   0.03001   0.03625
 Alpha virt. eigenvalues --    0.04172   0.04260   0.04892   0.05048   0.05168
 Alpha virt. eigenvalues --    0.05256   0.05950   0.06215   0.06443   0.06675
 Alpha virt. eigenvalues --    0.06933   0.07242   0.07982   0.08015   0.08344
 Alpha virt. eigenvalues --    0.08589   0.08650   0.09104   0.09191   0.09533
 Alpha virt. eigenvalues --    0.10095   0.10189   0.10223   0.10977   0.11098
 Alpha virt. eigenvalues --    0.11392   0.11405   0.12004   0.12088   0.12113
 Alpha virt. eigenvalues --    0.12543   0.12554   0.12960   0.13230   0.13414
 Alpha virt. eigenvalues --    0.13910   0.14125   0.14523   0.15087   0.15232
 Alpha virt. eigenvalues --    0.15464   0.15826   0.16039   0.16238   0.16371
 Alpha virt. eigenvalues --    0.16737   0.16958   0.17140   0.17457   0.17578
 Alpha virt. eigenvalues --    0.17831   0.17997   0.18494   0.19128   0.19192
 Alpha virt. eigenvalues --    0.19322   0.19506   0.19750   0.19924   0.20317
 Alpha virt. eigenvalues --    0.20805   0.21042   0.21692   0.21814   0.21946
 Alpha virt. eigenvalues --    0.22095   0.22305   0.22508   0.22801   0.23258
 Alpha virt. eigenvalues --    0.23344   0.23428   0.23491   0.24002   0.24261
 Alpha virt. eigenvalues --    0.24308   0.24628   0.24952   0.25408   0.25709
 Alpha virt. eigenvalues --    0.25956   0.26088   0.26536   0.26583   0.26780
 Alpha virt. eigenvalues --    0.27334   0.27370   0.27818   0.27823   0.28447
 Alpha virt. eigenvalues --    0.28486   0.28723   0.28885   0.29085   0.29235
 Alpha virt. eigenvalues --    0.29627   0.30132   0.30364   0.30655   0.31125
 Alpha virt. eigenvalues --    0.31318   0.31568   0.31699   0.32112   0.32873
 Alpha virt. eigenvalues --    0.33135   0.33485   0.34031   0.34404   0.34431
 Alpha virt. eigenvalues --    0.35135   0.35520   0.35919   0.36132   0.36656
 Alpha virt. eigenvalues --    0.36921   0.37390   0.38034   0.38272   0.38378
 Alpha virt. eigenvalues --    0.39319   0.39604   0.40621   0.41389   0.41953
 Alpha virt. eigenvalues --    0.42117   0.42630   0.43123   0.43626   0.44307
 Alpha virt. eigenvalues --    0.44355   0.44824   0.45086   0.45641   0.45936
 Alpha virt. eigenvalues --    0.46861   0.47563   0.48336   0.48552   0.49613
 Alpha virt. eigenvalues --    0.50453   0.51014   0.51371   0.51605   0.52252
 Alpha virt. eigenvalues --    0.52618   0.52765   0.53939   0.54670   0.55349
 Alpha virt. eigenvalues --    0.56313   0.57071   0.57421   0.57570   0.57896
 Alpha virt. eigenvalues --    0.59129   0.60005   0.61953   0.62425   0.62887
 Alpha virt. eigenvalues --    0.63484   0.63718   0.64421   0.65390   0.66137
 Alpha virt. eigenvalues --    0.67850   0.67877   0.68417   0.68920   0.69413
 Alpha virt. eigenvalues --    0.69996   0.70537   0.70580   0.71010   0.71408
 Alpha virt. eigenvalues --    0.71957   0.71996   0.72211   0.73467   0.73959
 Alpha virt. eigenvalues --    0.74108   0.74336   0.75165   0.75358   0.75622
 Alpha virt. eigenvalues --    0.76144   0.76316   0.76584   0.77255   0.78269
 Alpha virt. eigenvalues --    0.78649   0.79004   0.79584   0.79691   0.80287
 Alpha virt. eigenvalues --    0.80364   0.80496   0.80816   0.81264   0.81638
 Alpha virt. eigenvalues --    0.81932   0.83416   0.83605   0.83829   0.85053
 Alpha virt. eigenvalues --    0.85172   0.85748   0.87325   0.88036   0.88925
 Alpha virt. eigenvalues --    0.89996   0.90056   0.91054   0.92011   0.92243
 Alpha virt. eigenvalues --    0.92671   0.93641   0.95087   0.95850   0.97556
 Alpha virt. eigenvalues --    0.97890   0.98840   1.00365   1.00573   1.00745
 Alpha virt. eigenvalues --    1.01150   1.01381   1.01910   1.02217   1.02502
 Alpha virt. eigenvalues --    1.04433   1.05943   1.06213   1.06467   1.06603
 Alpha virt. eigenvalues --    1.08209   1.09621   1.09761   1.10993   1.11509
 Alpha virt. eigenvalues --    1.12038   1.12470   1.13269   1.14227   1.14714
 Alpha virt. eigenvalues --    1.15468   1.15982   1.16529   1.16801   1.17833
 Alpha virt. eigenvalues --    1.17985   1.18494   1.19259   1.19298   1.19946
 Alpha virt. eigenvalues --    1.21083   1.21246   1.22296   1.22884   1.23131
 Alpha virt. eigenvalues --    1.23812   1.24704   1.24780   1.25564   1.26791
 Alpha virt. eigenvalues --    1.27012   1.28198   1.28915   1.29157   1.29645
 Alpha virt. eigenvalues --    1.30156   1.31008   1.32087   1.32545   1.33069
 Alpha virt. eigenvalues --    1.33443   1.34314   1.35590   1.35988   1.36413
 Alpha virt. eigenvalues --    1.36558   1.37458   1.39163   1.39729   1.40280
 Alpha virt. eigenvalues --    1.40458   1.41699   1.42263   1.44518   1.45184
 Alpha virt. eigenvalues --    1.45322   1.45417   1.46446   1.47436   1.49319
 Alpha virt. eigenvalues --    1.50246   1.51271   1.51910   1.52387   1.55664
 Alpha virt. eigenvalues --    1.56600   1.56999   1.58917   1.59885   1.60939
 Alpha virt. eigenvalues --    1.61207   1.61404   1.63686   1.64648   1.66244
 Alpha virt. eigenvalues --    1.67166   1.67457   1.67530   1.70750   1.71501
 Alpha virt. eigenvalues --    1.73953   1.74097   1.74318   1.75985   1.76119
 Alpha virt. eigenvalues --    1.76686   1.77337   1.78518   1.79219   1.80338
 Alpha virt. eigenvalues --    1.80605   1.80892   1.82489   1.83361   1.84120
 Alpha virt. eigenvalues --    1.84258   1.85812   1.85926   1.86963   1.88222
 Alpha virt. eigenvalues --    1.88982   1.90637   1.91614   1.94239   1.95613
 Alpha virt. eigenvalues --    1.95682   1.96714   1.98116   1.99435   1.99727
 Alpha virt. eigenvalues --    2.00332   2.00626   2.00682   2.01845   2.02323
 Alpha virt. eigenvalues --    2.03678   2.04546   2.05781   2.06683   2.08193
 Alpha virt. eigenvalues --    2.08465   2.10094   2.12854   2.13969   2.16563
 Alpha virt. eigenvalues --    2.16902   2.19028   2.19267   2.21232   2.21523
 Alpha virt. eigenvalues --    2.23260   2.24022   2.24586   2.24631   2.25970
 Alpha virt. eigenvalues --    2.27069   2.27239   2.27486   2.30700   2.31420
 Alpha virt. eigenvalues --    2.32215   2.32562   2.34285   2.37523   2.37648
 Alpha virt. eigenvalues --    2.38836   2.39972   2.40969   2.42014   2.42119
 Alpha virt. eigenvalues --    2.43723   2.44649   2.45880   2.46041   2.46867
 Alpha virt. eigenvalues --    2.48737   2.49043   2.49311   2.49545   2.51208
 Alpha virt. eigenvalues --    2.53897   2.55302   2.56064   2.56496   2.56812
 Alpha virt. eigenvalues --    2.58057   2.58731   2.59970   2.60628   2.62017
 Alpha virt. eigenvalues --    2.62443   2.64920   2.65092   2.67556   2.69080
 Alpha virt. eigenvalues --    2.70332   2.71963   2.72194   2.75367   2.75772
 Alpha virt. eigenvalues --    2.76772   2.77869   2.79659   2.80931   2.83279
 Alpha virt. eigenvalues --    2.83675   2.84666   2.84886   2.86612   2.86808
 Alpha virt. eigenvalues --    2.88762   2.89281   2.90513   2.92057   2.96410
 Alpha virt. eigenvalues --    2.97806   2.99678   3.04183   3.05414   3.09632
 Alpha virt. eigenvalues --    3.11881   3.12209   3.13625   3.15917   3.19978
 Alpha virt. eigenvalues --    3.22549   3.23013   3.29130   3.31787   3.35736
 Alpha virt. eigenvalues --    3.36836   3.41451   3.47674   3.49572   3.52154
 Alpha virt. eigenvalues --    3.52814   3.59729   3.63838   3.72257   3.89942
 Alpha virt. eigenvalues --    3.91975   3.97489   4.00900   4.04825   4.05442
 Alpha virt. eigenvalues --    4.14258   4.21339   4.25123   4.27273   4.31154
 Alpha virt. eigenvalues --    4.32693   4.34112   4.34342   4.37842   4.39218
 Alpha virt. eigenvalues --    4.41081   4.42421   4.44025   4.47561   4.49382
 Alpha virt. eigenvalues --    4.50604   4.55361   4.58521   4.60775   4.69323
 Alpha virt. eigenvalues --    4.73232   4.78064   4.90235   4.91682   4.95209
 Alpha virt. eigenvalues --    5.10397   8.38478  81.94285
          Condensed to atoms (all electrons):
              1          2          3          4          5          6
     1  C   12.785800  -2.914187   0.011227   0.195927   0.772463  -4.704466
     2  C   -2.914187   7.722048   0.034814  -0.238608  -0.941597   1.957508
     3  N    0.011227   0.034814   7.074981   0.266642  -0.025565  -0.200644
     4  H    0.195927  -0.238608   0.266642   0.434413   0.073612   0.008356
     5  C    0.772463  -0.941597  -0.025565   0.073612   9.364699  -3.065783
     6  C   -4.704466   1.957508  -0.200644   0.008356  -3.065783  14.456821
     7  C    0.528497  -0.139576   0.023163  -0.104356   0.113050  -1.698183
     8  C    0.109185  -0.383324   0.068429   0.031490   0.237243  -0.165749
     9  C    0.222770   0.045516  -0.096577   0.007500   0.568607  -0.339927
    10  C    0.177407  -0.133379  -0.012931   0.009055  -0.329057  -1.011939
    11  N   -0.013636   0.003360   0.002596   0.000104  -0.015809   0.070492
    12  S    0.012023   0.023047  -0.017772   0.001230   0.130186  -0.053319
    13  N    0.001576  -0.000620   0.000087   0.000021  -0.014978   0.005355
    14  C   -0.020537   0.015587  -0.007308   0.002619   0.132781  -0.153887
    15  C   -0.006782   0.002294   0.003427  -0.002628  -0.052556   0.041355
    16  C   -0.008333   0.002915   0.000831  -0.000565   0.041818   0.024583
    17  Se   0.000151  -0.000080  -0.000014  -0.000006  -0.000769  -0.000764
    18  C    0.000542  -0.000127  -0.000019   0.000017  -0.001862   0.000364
    19  C    0.000139  -0.000051   0.000005   0.000006  -0.004135  -0.000277
    20  C    0.001540  -0.000516  -0.000134   0.000114   0.024098   0.010480
    21  C   -0.001998   0.001528   0.000260  -0.000506  -0.004566   0.005887
    22  N    0.000000  -0.000001   0.000004   0.000019   0.001028  -0.000125
    23  S   -0.000008   0.000008   0.000000   0.000006   0.000309   0.000058
    24  N   -0.005900   0.005680   0.001790  -0.003601  -0.028733   0.006982
    25  C    0.013723  -0.012633   0.005882  -0.003263  -0.158936  -0.107004
    26  C    0.013430  -0.002254  -0.006438   0.006038  -0.070064  -0.180724
    27  C   -0.066766  -0.016363   0.003193  -0.003904  -0.111416  -0.343182
    28  C    0.124639  -0.091936  -0.023370   0.004236   0.494283   0.347224
    29  N   -0.024157   0.020970   0.005894  -0.002578  -0.051578  -0.014595
    30  S   -0.016713   0.018150   0.001594  -0.013930  -0.032168   0.001079
    31  N    0.099638  -0.098816   0.032752   0.055726  -0.012584   0.047985
    32  C   -1.061794   0.657693   0.026555  -0.097551  -0.567041   0.204988
    33  H    0.679069  -0.215397   0.026432   0.003413   0.008923  -0.266314
    34  H   -0.424910   0.640915  -0.089703  -0.021591  -0.043683   0.155368
    35  H   -0.141223   0.075803   0.075415   0.005928  -0.307037   0.648125
    36  H    0.064368  -0.050880   0.017253  -0.000176  -0.108387   0.009666
    37  H   -0.000219   0.000054  -0.000000   0.000000   0.000936   0.000000
    38  H    0.000001   0.000000   0.000000  -0.000000  -0.000105   0.000002
              7          8          9         10         11         12
     1  C    0.528497   0.109185   0.222770   0.177407  -0.013636   0.012023
     2  C   -0.139576  -0.383324   0.045516  -0.133379   0.003360   0.023047
     3  N    0.023163   0.068429  -0.096577  -0.012931   0.002596  -0.017772
     4  H   -0.104356   0.031490   0.007500   0.009055   0.000104   0.001230
     5  C    0.113050   0.237243   0.568607  -0.329057  -0.015809   0.130186
     6  C   -1.698183  -0.165749  -0.339927  -1.011939   0.070492  -0.053319
     7  C    8.060486   0.064713   0.798229  -1.147055   0.080169  -0.097777
     8  C    0.064713  10.262686   1.536482  -5.332989   0.268253  -0.754734
     9  C    0.798229   1.536482  17.390759  -9.827716   0.028091  -0.512007
    10  C   -1.147055  -5.332989  -9.827716  25.752462  -0.487655  -0.143584
    11  N    0.080169   0.268253   0.028091  -0.487655   7.652673  -0.299233
    12  S   -0.097777  -0.754734  -0.512007  -0.143584  -0.299233  17.520081
    13  N    0.032291  -0.071099   0.371679   0.039810  -0.135602  -0.172706
    14  C   -0.931812  -2.306605  -8.050661   6.151623  -0.144413   0.675432
    15  C    0.313105   0.750905   1.740941  -3.144887   0.134037  -0.222918
    16  C    0.139312   0.529086   1.138855  -0.795732   0.028697   0.050168
    17  Se  -0.001215  -0.035406   0.052989  -0.167222  -0.003691  -0.006371
    18  C   -0.005817  -0.051023  -0.040066   0.040204  -0.066059  -0.042007
    19  C    0.004237   0.030509   0.190808  -0.187390  -0.001668  -0.004546
    20  C    0.088171   0.541628   3.307741  -1.644836  -0.052689  -0.070358
    21  C    0.069790  -0.065141  -1.459610   0.399755   0.029068   0.042329
    22  N   -0.009808  -0.010014   0.008704   0.015568  -0.000236  -0.000183
    23  S   -0.000865  -0.000317  -0.039952   0.023399  -0.000109   0.000286
    24  N    0.197586  -0.063294  -0.283161   0.172206  -0.001713   0.007951
    25  C   -0.017547  -0.329693  -0.472614  -0.771261   0.003400  -0.053090
    26  C   -0.297899  -1.291771  -1.662928   3.085719   0.046079   0.357207
    27  C   -0.419198  -0.389352  -1.194278   3.378917  -0.183669  -0.325096
    28  C    0.722944   1.320387   2.061503  -4.684888   0.130851  -0.076189
    29  N   -0.047813  -0.024571   0.297107  -0.134477   0.001453  -0.014800
    30  S   -0.014242   0.013070  -0.045235  -0.123210   0.000852  -0.003267
    31  N   -0.181425   0.098971  -0.069581  -0.023875   0.001072   0.006361
    32  C   -0.113347   0.897861  -0.467149  -1.523395   0.010526  -0.110867
    33  H    0.055134  -0.002571   0.001403   0.002276  -0.000214   0.000828
    34  H    0.021232  -0.020827   0.005140  -0.001717  -0.000040   0.000797
    35  H   -0.214598  -0.008384  -0.010625  -0.022470   0.016805  -0.004944
    36  H    0.116083   0.657154  -0.074918  -0.445294   0.065821  -0.527275
    37  H   -0.000095   0.014679   0.003409  -0.027067   0.019684   0.005410
    38  H    0.000537   0.001322  -0.004555   0.002067  -0.000011   0.000092
             13         14         15         16         17         18
     1  C    0.001576  -0.020537  -0.006782  -0.008333   0.000151   0.000542
     2  C   -0.000620   0.015587   0.002294   0.002915  -0.000080  -0.000127
     3  N    0.000087  -0.007308   0.003427   0.000831  -0.000014  -0.000019
     4  H    0.000021   0.002619  -0.002628  -0.000565  -0.000006   0.000017
     5  C   -0.014978   0.132781  -0.052556   0.041818  -0.000769  -0.001862
     6  C    0.005355  -0.153887   0.041355   0.024583  -0.000764   0.000364
     7  C    0.032291  -0.931812   0.313105   0.139312  -0.001215  -0.005817
     8  C   -0.071099  -2.306605   0.750905   0.529086  -0.035406  -0.051023
     9  C    0.371679  -8.050661   1.740941   1.138855   0.052989  -0.040066
    10  C    0.039810   6.151623  -3.144887  -0.795732  -0.167222   0.040204
    11  N   -0.135602  -0.144413   0.134037   0.028697  -0.003691  -0.066059
    12  S   -0.172706   0.675432  -0.222918   0.050168  -0.006371  -0.042007
    13  N    7.853459  -0.406868   0.165965  -0.310680  -0.147651  -0.019154
    14  C   -0.406868  24.412704  -3.656916  -5.442262   0.593147   0.366924
    15  C    0.165965  -3.656916  11.078127   0.005386  -0.170548  -0.131680
    16  C   -0.310680  -5.442262   0.005386  11.704198  -0.064561  -0.311618
    17  Se  -0.147651   0.593147  -0.170548  -0.064561  33.755031   0.261051
    18  C   -0.019154   0.366924  -0.131680  -0.311618   0.261051   5.835846
    19  C    0.112609   0.879771   0.154047  -0.497344   0.292255  -0.043158
    20  C   -0.114432  -3.196997  -5.312946  -2.638227  -0.249292   0.093691
    21  C    0.012938  -0.817405   2.545756   1.964491  -0.199763  -0.057008
    22  N   -0.000779   0.044402  -0.069035   0.105346   0.015326   0.002134
    23  S    0.000067  -0.068453   0.158118  -0.033733  -0.023560   0.000363
    24  N    0.000392  -0.133311   0.074082  -0.105362  -0.007985  -0.003015
    25  C   -0.017786  -1.670598   3.212400   1.268803  -0.084280  -0.018825
    26  C   -0.093308   3.566466  -2.897893  -0.249192   0.093811  -0.043386
    27  C    0.085831   1.131754  -0.027327  -0.788478  -0.022649   0.059490
    28  C   -0.018677  -3.452054   0.845818   0.608106  -0.019150  -0.028240
    29  N    0.000813   0.141378  -0.180036   0.008583   0.005823   0.001813
    30  S   -0.000078  -0.059760   0.006999   0.015929   0.000050  -0.000121
    31  N    0.000082  -0.007410  -0.004521  -0.001599   0.000009   0.000052
    32  C    0.007935  -0.416665   0.149883  -0.002760   0.001731   0.002856
    33  H    0.000017  -0.000554  -0.000043  -0.000099   0.000002   0.000008
    34  H   -0.000008   0.000452  -0.000017   0.000021  -0.000000  -0.000001
    35  H    0.000295  -0.010230   0.002319   0.003041  -0.000082  -0.000266
    36  H    0.032624  -0.260799   0.108486   0.009093  -0.000501   0.004970
    37  H   -0.103618  -0.006464  -0.024096   0.077562  -0.048028   0.335095
    38  H    0.000900  -0.023020   0.044345  -0.059715  -0.041860  -0.001944
             19         20         21         22         23         24
     1  C    0.000139   0.001540  -0.001998   0.000000  -0.000008  -0.005900
     2  C   -0.000051  -0.000516   0.001528  -0.000001   0.000008   0.005680
     3  N    0.000005  -0.000134   0.000260   0.000004   0.000000   0.001790
     4  H    0.000006   0.000114  -0.000506   0.000019   0.000006  -0.003601
     5  C   -0.004135   0.024098  -0.004566   0.001028   0.000309  -0.028733
     6  C   -0.000277   0.010480   0.005887  -0.000125   0.000058   0.006982
     7  C    0.004237   0.088171   0.069790  -0.009808  -0.000865   0.197586
     8  C    0.030509   0.541628  -0.065141  -0.010014  -0.000317  -0.063294
     9  C    0.190808   3.307741  -1.459610   0.008704  -0.039952  -0.283161
    10  C   -0.187390  -1.644836   0.399755   0.015568   0.023399   0.172206
    11  N   -0.001668  -0.052689   0.029068  -0.000236  -0.000109  -0.001713
    12  S   -0.004546  -0.070358   0.042329  -0.000183   0.000286   0.007951
    13  N    0.112609  -0.114432   0.012938  -0.000779   0.000067   0.000392
    14  C    0.879771  -3.196997  -0.817405   0.044402  -0.068453  -0.133311
    15  C    0.154047  -5.312946   2.545756  -0.069035   0.158118   0.074082
    16  C   -0.497344  -2.638227   1.964491   0.105346  -0.033733  -0.105362
    17  Se   0.292255  -0.249292  -0.199763   0.015326  -0.023560  -0.007985
    18  C   -0.043158   0.093691  -0.057008   0.002134   0.000363  -0.003015
    19  C   17.752772  -6.240490  -2.733384  -0.033288  -1.305560   0.284768
    20  C   -6.240490  34.316827 -11.548507   0.129698  -0.359143   0.176719
    21  C   -2.733384 -11.548507  17.159420  -0.146067   0.571237   0.073483
    22  N   -0.033288   0.129698  -0.146067   7.374011  -0.406155   0.028918
    23  S   -1.305560  -0.359143   0.571237  -0.406155  16.586586  -0.094318
    24  N    0.284768   0.176719   0.073483   0.028918  -0.094318   8.736177
    25  C   -3.036347  -9.046716   5.504700  -0.175899   0.835492  -0.251719
    26  C   -0.106629   3.902948  -3.338013   0.380731  -0.275243  -0.706143
    27  C    0.171600   0.478384  -0.827125  -0.031592   0.019823   0.306911
    28  C    0.067793   0.965802   0.648851  -0.118473  -0.024960   0.699877
    29  N    0.044049   0.416088  -0.284715  -0.079414  -0.034992  -0.858520
    30  S   -0.000713   0.008985   0.031207  -0.001486  -0.000580  -0.036044
    31  N    0.000218   0.007130  -0.001354  -0.001108  -0.000211  -0.065262
    32  C    0.023030   0.325230  -0.190769   0.003969  -0.003474  -0.557176
    33  H    0.000001   0.000016  -0.000040   0.000000  -0.000000  -0.000085
    34  H   -0.000000  -0.000005   0.000027  -0.000001   0.000000   0.000083
    35  H   -0.000095  -0.000045   0.000932  -0.000005   0.000009   0.002501
    36  H    0.000373   0.023848  -0.015700   0.000109  -0.000162  -0.018119
    37  H   -0.020465   0.017257   0.006372   0.000080   0.000317  -0.000015
    38  H    0.956868  -0.620775  -0.099095   0.017409   0.033649   0.014883
             25         26         27         28         29         30
     1  C    0.013723   0.013430  -0.066766   0.124639  -0.024157  -0.016713
     2  C   -0.012633  -0.002254  -0.016363  -0.091936   0.020970   0.018150
     3  N    0.005882  -0.006438   0.003193  -0.023370   0.005894   0.001594
     4  H   -0.003263   0.006038  -0.003904   0.004236  -0.002578  -0.013930
     5  C   -0.158936  -0.070064  -0.111416   0.494283  -0.051578  -0.032168
     6  C   -0.107004  -0.180724  -0.343182   0.347224  -0.014595   0.001079
     7  C   -0.017547  -0.297899  -0.419198   0.722944  -0.047813  -0.014242
     8  C   -0.329693  -1.291771  -0.389352   1.320387  -0.024571   0.013070
     9  C   -0.472614  -1.662928  -1.194278   2.061503   0.297107  -0.045235
    10  C   -0.771261   3.085719   3.378917  -4.684888  -0.134477  -0.123210
    11  N    0.003400   0.046079  -0.183669   0.130851   0.001453   0.000852
    12  S   -0.053090   0.357207  -0.325096  -0.076189  -0.014800  -0.003267
    13  N   -0.017786  -0.093308   0.085831  -0.018677   0.000813  -0.000078
    14  C   -1.670598   3.566466   1.131754  -3.452054   0.141378  -0.059760
    15  C    3.212400  -2.897893  -0.027327   0.845818  -0.180036   0.006999
    16  C    1.268803  -0.249192  -0.788478   0.608106   0.008583   0.015929
    17  Se  -0.084280   0.093811  -0.022649  -0.019150   0.005823   0.000050
    18  C   -0.018825  -0.043386   0.059490  -0.028240   0.001813  -0.000121
    19  C   -3.036347  -0.106629   0.171600   0.067793   0.044049  -0.000713
    20  C   -9.046716   3.902948   0.478384   0.965802   0.416088   0.008985
    21  C    5.504700  -3.338013  -0.827125   0.648851  -0.284715   0.031207
    22  N   -0.175899   0.380731  -0.031592  -0.118473  -0.079414  -0.001486
    23  S    0.835492  -0.275243   0.019823  -0.024960  -0.034992  -0.000580
    24  N   -0.251719  -0.706143   0.306911   0.699877  -0.858520  -0.036044
    25  C   18.377875  -4.797240  -1.704129  -0.254548  -0.290310   0.083006
    26  C   -4.797240  13.252595  -0.165930  -2.654940   0.488453  -0.120225
    27  C   -1.704129  -0.165930  10.305764  -2.457612  -0.093483  -0.246895
    28  C   -0.254548  -2.654940  -2.457612  11.527154  -0.569299  -0.018305
    29  N   -0.290310   0.488453  -0.093483  -0.569299   8.236462   0.075371
    30  S    0.083006  -0.120225  -0.246895  -0.018305   0.075371  15.922854
    31  N    0.006871  -0.036680  -0.082469  -0.051412  -0.130690   0.033092
    32  C    0.343237  -0.442417  -0.558932  -0.124721   0.163426   0.152301
    33  H    0.000333  -0.000596   0.000656   0.006441  -0.000329  -0.000166
    34  H   -0.000417   0.000168   0.001043  -0.004951   0.000567   0.000604
    35  H   -0.007117   0.003704  -0.016581  -0.024659   0.000018  -0.000458
    36  H    0.061318  -0.219910   0.176470   0.128121   0.012295   0.004523
    37  H    0.002290   0.011573  -0.009479   0.004393  -0.000150   0.000028
    38  H    0.024082  -0.101441   0.015123   0.007479  -0.001390  -0.000036
             31         32         33         34         35         36
     1  C    0.099638  -1.061794   0.679069  -0.424910  -0.141223   0.064368
     2  C   -0.098816   0.657693  -0.215397   0.640915   0.075803  -0.050880
     3  N    0.032752   0.026555   0.026432  -0.089703   0.075415   0.017253
     4  H    0.055726  -0.097551   0.003413  -0.021591   0.005928  -0.000176
     5  C   -0.012584  -0.567041   0.008923  -0.043683  -0.307037  -0.108387
     6  C    0.047985   0.204988  -0.266314   0.155368   0.648125   0.009666
     7  C   -0.181425  -0.113347   0.055134   0.021232  -0.214598   0.116083
     8  C    0.098971   0.897861  -0.002571  -0.020827  -0.008384   0.657154
     9  C   -0.069581  -0.467149   0.001403   0.005140  -0.010625  -0.074918
    10  C   -0.023875  -1.523395   0.002276  -0.001717  -0.022470  -0.445294
    11  N    0.001072   0.010526  -0.000214  -0.000040   0.016805   0.065821
    12  S    0.006361  -0.110867   0.000828   0.000797  -0.004944  -0.527275
    13  N    0.000082   0.007935   0.000017  -0.000008   0.000295   0.032624
    14  C   -0.007410  -0.416665  -0.000554   0.000452  -0.010230  -0.260799
    15  C   -0.004521   0.149883  -0.000043  -0.000017   0.002319   0.108486
    16  C   -0.001599  -0.002760  -0.000099   0.000021   0.003041   0.009093
    17  Se   0.000009   0.001731   0.000002  -0.000000  -0.000082  -0.000501
    18  C    0.000052   0.002856   0.000008  -0.000001  -0.000266   0.004970
    19  C    0.000218   0.023030   0.000001  -0.000000  -0.000095   0.000373
    20  C    0.007130   0.325230   0.000016  -0.000005  -0.000045   0.023848
    21  C   -0.001354  -0.190769  -0.000040   0.000027   0.000932  -0.015700
[...]
    14  C    6.919127   5.070830   3.862848   2.536767   1.486304
    15  C    7.499245   5.262632   4.337778   2.915475   2.566325
    16  C    8.893782   6.616060   5.732362   4.311113   3.851305
    17  Se  10.172995   8.125443   7.057223   5.654398   4.765498
    18  C    9.120326   7.441223   6.181642   4.910961   3.663430
    19  C   11.020842   8.552083   7.899151   6.523302   6.290729
    20  C    9.678296   7.213608   6.560929   5.194154   5.054151
    21  C    9.156406   6.564224   6.185188   4.963086   5.248869
    22  N   10.216942   7.583980   7.350951   6.198365   6.560936
    23  S   11.573714   8.978261   8.582535   7.315043   7.400380
    24  N    7.651957   5.008500   5.125807   4.335720   5.267579
    25  C    7.716828   5.100805   4.837567   3.743743   4.352791
    26  C    6.832028   4.352226   3.759594   2.487041   2.921802
    27  C    5.445014   2.957279   2.435309   1.392886   2.466916
    28  C    5.175476   2.527155   2.749911   2.401194   3.755618
    29  N    6.327678   3.718070   4.095885   3.650889   4.879602
    30  S    6.404884   4.088733   4.937478   4.908517   6.281994
    31  N    4.541544   2.534346   3.727670   4.232277   5.711610
    32  C    3.981226   1.485798   2.444057   2.898065   4.377987
    33  H    2.281463   4.817636   5.442421   6.864477   7.696820
    34  H    3.384585   4.693952   5.877437   7.199644   8.410687
    35  H    1.099159   3.063217   3.071202   4.416882   5.035372
    36  H    2.912172   2.315732   1.219065   2.169456   2.630512
    37  H    9.640781   8.188540   6.862125   5.695613   4.323461
    38  H   12.115875   9.644655   8.991642   7.610942   7.327062
                   11         12         13         14         15
    11  N    0.000000
    12  S    1.637237   0.000000
    13  N    2.723213   4.343239   0.000000
    14  C    2.419636   3.999981   1.346435   0.000000
    15  C    3.771243   5.247570   2.460985   1.471483   0.000000
    16  C    4.921939   6.483944   2.907846   2.502499   1.396249
    17  Se   5.459566   7.095156   2.818374   3.281427   2.931460
    18  C    3.958619   5.555839   1.263684   2.385322   2.981609
    19  C    7.403775   8.951029   5.263123   4.985344   3.737926
    20  C    6.236997   7.735549   4.368138   3.847504   2.488393
    21  C    6.561801   7.894656   5.225950   4.367072   2.896340
    22  N    7.879309   9.193752   6.480921   5.677452   4.205993
    23  S    8.633946  10.084998   6.782150   6.270407   4.863006
    24  N    6.611772   7.555052   6.258718   5.041875   3.837395
    25  C    5.711105   6.861389   5.000351   3.860886   2.545114
    26  C    4.278408   5.478595   3.752020   2.510860   1.443192
    27  C    3.748511   4.608939   4.175904   2.829760   2.445805
    28  C    4.928138   5.483926   5.592721   4.246494   3.721339
    29  N    6.135941   6.805568   6.396092   5.073251   4.193654
    30  S    7.438807   7.847390   8.000839   6.662495   5.860483
    31  N    6.626745   6.659685   7.833737   6.504173   6.115614
    32  C    5.286312   5.393536   6.554218   5.241886   5.009051
    33  H    7.459905   6.139265  10.035621   9.158732   9.779700
    34  H    8.611545   7.668835  10.839458   9.722216   9.945037
    35  H    4.713719   3.426110   7.318611   6.517193   7.292832
    36  H    2.525145   1.882044   4.963197   4.109973   4.935085
    37  H    4.286976   5.766238   1.943852   3.261775   4.060463
    38  H    8.394485   9.966624   6.115683   5.976745   4.794606
                   16         17         18         19         20
    16  C    0.000000
    17  Se   1.886689   0.000000
    18  C    2.807852   1.913974   0.000000
    19  C    2.483919   3.029460   4.785618   0.000000
    20  C    1.460530   2.801428   4.182851   1.343060   0.000000
    21  C    2.526752   4.198825   5.326119   2.394883   1.473510
    22  N    3.665526   5.108612   6.464324   2.573779   2.322444
    23  S    3.881576   4.771910   6.455266   1.759284   2.436438
    24  N    4.293229   6.168049   6.786073   4.795678   3.763147
    25  C    2.939914   4.820766   5.451009   3.769245   2.577345
    26  C    2.453277   4.251455   4.413497   4.204121   2.862951
    27  C    3.717809   5.376942   5.122231   5.602409   4.261165
    28  C    4.848067   6.624225   6.519062   6.358995   5.066936
    29  N    5.029731   6.904210   7.155264   6.019619   4.850866
    30  S    6.693178   8.572422   8.808837   7.499067   6.412808
    31  N    7.237529   9.023580   8.843305   8.568977   7.334400
    32  C    6.233263   7.940175   7.608392   7.839522   6.540833
    33  H   11.174599  12.427232  11.298784  13.291765  11.948859
    34  H   11.277195  12.819312  12.058923  13.048279  11.736045
    35  H    8.683871   9.798328   8.581969  10.939869   9.608515
    36  H    6.314623   7.390949   6.224817   8.634475   7.321497
    37  H    3.904074   2.728118   1.112271   5.731924   5.243525
    38  H    3.483256   3.596251   5.475586   1.095368   2.438428
                   21         22         23         24         25
    21  C    0.000000
    22  N    1.319349   0.000000
    23  S    2.417422   1.628907   0.000000
    24  N    2.401438   2.858912   4.458400   0.000000
    25  C    1.493364   2.518182   3.884611   1.358637   0.000000
    26  C    2.477961   3.736919   4.835992   2.531077   1.435750
    27  C    3.753663   4.919883   6.159805   2.946618   2.415761
    28  C    4.175547   5.095835   6.556124   2.489910   2.682597
    29  N    3.656422   4.285816   5.863710   1.440590   2.273706
    30  S    5.104390   5.459131   7.086637   2.707486   3.856938
    31  N    6.247474   6.898888   8.484175   4.041018   4.800639
    32  C    5.648540   6.513180   8.011367   3.766604   4.155439
    33  H   11.378720  12.393691  13.794284   9.733726   9.918243
    34  H   10.861316  11.654981  13.198178   8.818707   9.369921
    35  H    9.250666  10.392323  11.652496   7.995407   7.874147
    36  H    7.130327   8.352736   9.483060   6.281783   5.869075
    37  H    6.428174   7.544378   7.444709   7.883368   6.554609
    38  H    3.363531   3.209198   1.857117   5.733842   4.800793
                   26         27         28         29         30
    26  C    0.000000
    27  C    1.398326   0.000000
    28  C    2.394825   1.416877   0.000000
    29  N    2.750467   2.413660   1.347929   0.000000
    30  S    4.418221   3.883894   2.526722   1.674369   0.000000
    31  N    4.787277   3.729584   2.399357   2.620703   1.934201
    32  C    3.797260   2.566086   1.482600   2.373821   2.609789
    33  H    9.095206   7.701800   7.305962   8.348827   8.129311
    34  H    8.922768   7.567640   6.700751   7.378709   6.640480
    35  H    6.829932   5.497091   5.509913   6.765949   7.079925
    36  H    4.656076   3.457916   3.958093   5.305840   6.139656
    37  H    5.475595   6.077938   7.490270   8.200132   9.839430
    38  H    5.298657   6.696836   7.426178   7.019160   8.439899
                   31         32         33         34         35
    31  N    0.000000
    32  C    1.343331   0.000000
    33  H    6.195748   5.976209   0.000000
    34  H    4.823791   5.218760   2.751922   0.000000
    35  H    5.310321   4.526906   2.747559   4.417540   0.000000
    36  H    4.814740   3.595812   5.078473   6.089040   2.407650
    37  H    9.765474   8.494568  11.743999  12.714781   8.999580
    38  H    9.597465   8.908448  14.387028  14.122798  12.027618
                   36         37         38
    36  H    0.000000
    37  H    6.729309   0.000000
    38  H    9.711403   6.316466   0.000000
 Stoichiometry    C20H7N7S3Se
 Framework group  C1[X(C20H7N7S3Se)]
 Deg. of freedom   108
 Full point group                 C1      NOp   1
 Largest Abelian subgroup         C1      NOp   1
 Largest concise Abelian subgroup C1      NOp   1
                         Standard orientation:                         
 ---------------------------------------------------------------------
 Center     Atomic      Atomic             Coordinates (Angstroms)
 Number     Number       Type             X           Y           Z
 ---------------------------------------------------------------------
      1          6           0       -7.209545   -0.891404   -0.024805
      2          6           0       -7.252345    0.514001   -0.014310
      3          7           0       -5.936718    0.986520    0.000828
      4          1           0       -5.654365    1.962661    0.011059
      5          6           0       -5.014797   -0.093003   -0.000161
      6          6           0       -5.819727   -1.292302   -0.013770
      7          6           0       -3.555357    0.081407    0.007843
      8          6           0       -2.670228   -1.017636    0.009426
      9          6           0       -1.246984   -0.964048    0.008485
     10          6           0       -0.414932   -2.187986    0.012780
     11          7           0       -0.874875   -3.466953    0.038948
     12         16           0       -2.435334   -3.957742   -0.029151
     13          7           0        1.826618   -3.123738    0.033459
     14          6           0        1.061361   -2.015983    0.021278
     15          6           0        1.653506   -0.668915    0.015499
     16          6           0        3.036851   -0.479869    0.004157
     17         34           0        4.338198   -1.845817   -0.012576
     18          6           0        3.079641   -3.287319    0.024893
     19          6           0        4.932806    1.124710   -0.018979
     20          6           0        3.616003    0.860906   -0.003306
     21          6           0        2.714156    2.026190    0.000769
     22          7           0        3.371033    3.170390    0.000847
     23         16           0        4.974420    2.883490   -0.012504
     24          7           0        0.517449    2.996362   -0.011332
     25          6           0        1.232312    1.841062    0.000769
     26          6           0        0.778681    0.478884    0.009085
     27          6           0       -0.604204    0.271655    0.009359
     28          6           0       -1.418743    1.430995    0.009658
     29          7           0       -0.885337    2.668882    0.004385
     30         16           0       -2.041818    3.879688    0.007833
     31          7           0       -3.505467    2.615249    0.015645
     32          6           0       -2.901261    1.415476    0.011759
     33          1           0       -8.085641   -1.556812   -0.041028
     34          1           0       -8.115284    1.194831   -0.015416
     35          1           0       -5.448317   -2.326809   -0.014364
     36          1           0       -3.045311   -2.177374   -0.011576
     37          1           0        3.315048   -4.373465    0.069792
     38          1           0        6.006760    1.339863   -0.031761
 ---------------------------------------------------------------------
 Rotational constants (GHZ):      0.1802404      0.0727922      0.0518529
 Standard basis: 6-31++G(d,p) (6D, 7F)
 There are   658 symmetry adapted basis functions of A   symmetry.
 Integral buffers will be    131072 words long.
 Raffenetti 2 integral format.
 Two-electron integral symmetry is turned on.
   658 basis functions,  1175 primitive gaussians,   658 cartesian basis functions
   129 alpha electrons      129 beta electrons
       nuclear repulsion energy      3878.6128586494 Hartrees.
 NAtoms=   38 NActive=   38 NUniq=   38 SFac= 1.00D+00 NAtFMM=   60 NAOKFM=F Big=F
 One-electron integrals computed using PRISM.
 NBasis=   658 RedAO= T  NBF=   658
 NBsUse=   643 1.00D-06 NBFU=   643
 Initial guess read from the read-write file.
 B after Tr=    -0.000000   -0.000000   -0.000000
         Rot=    1.000000    0.000000    0.000000    0.000000 Ang=   0.00 deg.
 Initial guess orbital symmetries:
       Occupied  (A) (A) (A) (A) (A) (A) (A) (A) (A) (A) (A) (A)
                 (A) (A) (A) (A) (A) (A) (A) (A) (A) (A) (A) (A)
                 (A) (A) (A) (A) (A) (A) (A) (A) (A) (A) (A) (A)
                 (A) (A) (A) (A) (A) (A) (A) (A) (A) (A) (A) (A)
                 (A) (A) (A) (A) (A) (A) (A) (A) (A) (A) (A) (A)
                 (A) (A) (A) (A) (A) (A) (A) (A) (A) (A) (A) (A)
                 (A) (A) (A) (A) (A) (A) (A) (A) (A) (A) (A) (A)
                 (A) (A) (A) (A) (A) (A) (A) (A) (A) (A) (A) (A)
                 (A) (A) (A) (A) (A) (A) (A) (A) (A) (A) (A) (A)
                 (A) (A) (A) (A) (A) (A) (A) (A) (A) (A) (A) (A)
                 (A) (A) (A) (A) (A) (A) (A) (A) (A)
       Virtual   (A) (A) (A) (A) (A) (A) (A) (A) (A) (A) (A) (A)
                 (A) (A) (A) (A) (A) (A) (A) (A) (A) (A) (A) (A)
                 (A) (A) (A) (A) (A) (A) (A) (A) (A) (A) (A) (A)
                 (A) (A) (A) (A) (A) (A) (A) (A) (A) (A) (A) (A)
                 (A) (A) (A) (A) (A) (A) (A) (A) (A) (A) (A) (A)
                 (A) (A) (A) (A) (A) (A) (A) (A) (A) (A) (A) (A)
                 (A) (A) (A) (A) (A) (A) (A) (A) (A) (A) (A) (A)
                 (A) (A) (A) (A) (A) (A) (A) (A) (A) (A) (A) (A)
                 (A) (A) (A) (A) (A) (A) (A) (A) (A) (A) (A) (A)
                 (A) (A) (A) (A) (A) (A) (A) (A) (A) (A) (A) (A)
                 (A) (A) (A) (A) (A) (A) (A) (A) (A) (A) (A) (A)
                 (A) (A) (A) (A) (A) (A) (A) (A) (A) (A) (A) (A)
                 (A) (A) (A) (A) (A) (A) (A) (A) (A) (A) (A) (A)
                 (A) (A) (A) (A) (A) (A) (A) (A) (A) (A) (A) (A)
                 (A) (A) (A) (A) (A) (A) (A) (A) (A) (A) (A) (A)
                 (A) (A) (A) (A) (A) (A) (A) (A) (A) (A) (A) (A)
                 (A) (A) (A) (A) (A) (A) (A) (A) (A) (A) (A) (A)
                 (A) (A) (A) (A) (A) (A) (A) (A) (A) (A) (A) (A)
                 (A) (A) (A) (A) (A) (A) (A) (A) (A) (A) (A) (A)
                 (A) (A) (A) (A) (A) (A) (A) (A) (A) (A) (A) (A)
                 (A) (A) (A) (A) (A) (A) (A) (A) (A) (A) (A) (A)
                 (A) (A) (A) (A) (A) (A) (A) (A) (A) (A) (A) (A)
                 (A) (A) (A) (A) (A) (A) (A) (A) (A) (A) (A) (A)
                 (A) (A) (A) (A) (A) (A) (A) (A) (A) (A) (A) (A)
                 (A) (A) (A) (A) (A) (A) (A) (A) (A) (A) (A) (A)
                 (A) (A) (A) (A) (A) (A) (A) (A) (A) (A) (A) (A)
                 (A) (A) (A) (A) (A) (A) (A) (A) (A) (A) (A) (A)
                 (A) (A) (A) (A) (A) (A) (A) (A) (A) (A) (A) (A)
                 (A) (A) (A) (A) (A) (A) (A) (A) (A) (A) (A) (A)
                 (A) (A) (A) (A) (A) (A) (A) (A) (A) (A) (A) (A)
                 (A) (A) (A) (A) (A) (A) (A) (A) (A) (A) (A) (A)
                 (A) (A) (A) (A) (A) (A) (A) (A) (A) (A) (A) (A)
                 (A) (A) (A) (A) (A) (A) (A) (A) (A) (A) (A) (A)
                 (A) (A) (A) (A) (A) (A) (A) (A) (A) (A) (A) (A)
                 (A) (A) (A) (A) (A) (A) (A) (A) (A) (A) (A) (A)
                 (A) (A) (A) (A) (A) (A) (A) (A) (A) (A) (A) (A)
                 (A) (A) (A) (A) (A) (A) (A) (A) (A) (A) (A) (A)
                 (A) (A) (A) (A) (A) (A) (A) (A) (A) (A) (A) (A)
                 (A) (A) (A) (A) (A) (A) (A) (A) (A) (A) (A) (A)
                 (A) (A) (A) (A) (A) (A) (A) (A) (A) (A) (A) (A)
                 (A) (A) (A) (A) (A) (A) (A) (A) (A) (A) (A) (A)
                 (A) (A) (A) (A) (A) (A) (A) (A) (A) (A) (A) (A)
                 (A) (A) (A) (A) (A) (A) (A) (A) (A) (A)
 Harris functional with IExCor=  402 diagonalized for initial guess.
 ExpMin= 3.00D-02 ExpMax= 5.61D+05 ExpMxC= 5.42D+03 IAcc=3 IRadAn=         5 AccDes= 0.00D+00
 HarFok:  IExCor=  402 AccDes= 0.00D+00 IRadAn=         5 IDoV= 1
 ScaDFX=  1.000000  1.000000  1.000000  1.000000
 FoFCou: FMM=F IPFlag=           0 FMFlag=      100000 FMFlg1=           0
         NFxFlg=           0 DoJE=T BraDBF=F KetDBF=T FulRan=T
         Omega=  0.000000  0.000000  1.000000  0.000000  0.000000 ICntrl=     500 IOpCl=  0
         NMat0=    1 NMatS0=    1 NMatT0=    0 NMatD0=    1 NMtDS0=    0 NMtDT0=    0
         I1Cent=           4 NGrid=           0.
 Petite list used in FoFCou.
 Requested convergence on RMS density matrix=1.00D-08 within 128 cycles.
 Requested convergence on MAX density matrix=1.00D-06.
 Requested convergence on             energy=1.00D-06.
 No special actions if energy rises.
 Restarting incremental Fock formation.
 SCF Done:  E(RB3LYP) =  -4743.36592997     A.U. after   25 cycles
             Convg  =    0.9722D-08             -V/T =  2.0056
 Calling FoFJK, ICntrl=      2127 FMM=F ISym2X=0 I1Cent= 0 IOpClX= 0 NMat=1 NMatS=1 NMatT=0.
 ***** Axes restored to original set *****
 -------------------------------------------------------------------
 Center     Atomic                   Forces (Hartrees/Bohr)
 Number     Number              X              Y              Z
 -------------------------------------------------------------------
      1        6           0.015700541   -0.004868857    0.000144835
      2        6           0.006552497   -0.015139219   -0.000029442
      3        7          -0.016214539   -0.014733516   -0.000230669
      4        1          -0.002904311   -0.002558196   -0.000115255
      5        6          -0.027356028    0.011771213    0.000169892
      6        6           0.017297312    0.018796757    0.000016526
      7        6           0.015730059   -0.002535116    0.000284020
      8        6          -0.036638246   -0.006768224   -0.000979326
      9        6          -0.007705529   -0.005723469   -0.000005886
     10        6           0.016840994   -0.003662113    0.000464165
     11        7           0.010786420   -0.003698728   -0.000400992
     12       16          -0.006474231   -0.024784729   -0.000288580
     13        7          -0.024029358    0.006122002   -0.000051855
     14        6          -0.012938851    0.039818937    0.000097478
     15        6          -0.003046985   -0.015488329   -0.000848134
     16        6           0.011229879    0.007222508   -0.000282292
     17       34          -0.004297630   -0.009824972    0.000009638
     18        6          -0.014590146   -0.007459875    0.002203361
     19        6           0.092355063    0.037882900   -0.000208459
     20        6          -0.078100516   -0.008638443    0.000129793
     21        6          -0.004157431   -0.011488327    0.000025133
     22        7          -0.004768133    0.024665398   -0.000000143
     23       16           0.004613700    0.029639125    0.000136915
     24        7          -0.058839673    0.014888357    0.001845191
     25        6           0.026651713   -0.029978350   -0.000295881
     26        6           0.023888819    0.009329771    0.000176543
     27        6          -0.008568006    0.008803879    0.000130520
     28        6          -0.019438935    0.017608271    0.000142902
     29        7           0.027892278   -0.033801201   -0.001167168
     30       16          -0.045198288    0.022518607    0.000619889
     31        7           0.044028658   -0.012518392   -0.000775853
     32        6           0.006668104   -0.013216730   -0.000163355
     33        1           0.013086325   -0.001514499    0.000287619
     34        1           0.004579787   -0.012723745   -0.000081482
     35        1           0.006513866    0.011228900   -0.000178777
     36        1           0.045419418    0.041498722    0.000909915
     37        1           0.027880348   -0.000460747   -0.001606480
     38        1          -0.042448943   -0.060209570   -0.000084306
 -------------------------------------------------------------------
 Cartesian Forces:  Max     0.092355063 RMS     0.021046665

 GradGradGradGradGradGradGradGradGradGradGradGradGradGradGradGradGradGrad
 Berny optimization.
 Using GEDIIS/GDIIS optimizer.
 NTrRot=    -1 NTRed=   229 NAtoms=    38 NSkip=   121 IsLin=F
 Error in internal coordinate system.
 Error termination via Lnk1e in /opt/gaussian/g09/l103.exe at Sun Dec 29 06:44:28 2013.
 Job cpu time:  1 days  3 hours 46 minutes 42.4 seconds.
 File lengths (MBytes):  RWF=    262 Int=      0 D2E=      0 Chk=     25 Scr=      1
