 Entering Gaussian System, Link 0=g09
 Initial command:
 /opt/gaussian/g09/l1.exe /panfs/panfs.cluster/home/shuo/Gau-1673.inp -scrdir=/panfs/panfs.cluster/home/shuo/
 Default is to use a total of  12 processors:
                               12 via shared-memory
                                1 via Linda
 Entering Link 1 = /opt/gaussian/g09/l1.exe PID=      1674.
  
 Copyright (c) 1988,1990,1992,1993,1995,1998,2003,2009,2011,
            Gaussian, Inc.  All Rights Reserved.
  
 This is part of the Gaussian(R) 09 program.  It is based on
 the Gaussian(R) 03 system (copyright 2003, Gaussian, Inc.),
 the Gaussian(R) 98 system (copyright 1998, Gaussian, Inc.),
 the Gaussian(R) 94 system (copyright 1995, Gaussian, Inc.),
 the Gaussian 92(TM) system (copyright 1992, Gaussian, Inc.),
 the Gaussian 90(TM) system (copyright 1990, Gaussian, Inc.),
 the Gaussian 88(TM) system (copyright 1988, Gaussian, Inc.),
 the Gaussian 86(TM) system (copyright 1986, Carnegie Mellon
 University), and the Gaussian 82(TM) system (copyright 1983,
 Carnegie Mellon University). Gaussian is a federally registered
 trademark of Gaussian, Inc.
  
 This software contains proprietary and confidential information,
 including trade secrets, belonging to Gaussian, Inc.
  
 This software is provided under written license and may be
 used, copied, transmitted, or stored only in accord with that
 written license.
  
 The following legend is applicable only to US Government
 contracts under FAR:
  
                    RESTRICTED RIGHTS LEGEND
  
 Use, reproduction and disclosure by the US Government is
 subject to restrictions as set forth in subparagraphs (a)
 and (c) of the Commercial Computer Software - Restricted
 Rights clause in FAR 52.227-19.
  
 Gaussian, Inc.
 340 Quinnipiac St., Bldg. 40, Wallingford CT 06492
  
  
 ---------------------------------------------------------------
 Warning -- This program may not be used in any manner that
 competes with the business of Gaussian, Inc. or will provide
 assistance to any competitor of Gaussian, Inc.  The licensee
 of this program is prohibited from giving any competitor of
 Gaussian, Inc. access to this program.  By using this program,
 the user acknowledges that Gaussian, Inc. is engaged in the
 business of creating and licensing software in the field of
 computational chemistry and represents and warrants to the
 licensee that it is not a competitor of Gaussian, Inc. and that
 it will not use this program in any manner prohibited above.
 ---------------------------------------------------------------
  

 Cite this work as:
 Gaussian 09, Revision C.01,
 M. J. Frisch, G. W. Trucks, H. B. Schlegel, G. E. Scuseria, 
 M. A. Robb, J. R. Cheeseman, G. Scalmani, V. Barone, B. Mennucci, 
 G. A. Petersson, H. Nakatsuji, M. Caricato, X. Li, H. P. Hratchian, 
 A. F. Izmaylov, J. Bloino, G. Zheng, J. L. Sonnenberg, M. Hada, 
 M. Ehara, K. Toyota, R. Fukuda, J. Hasegawa, M. Ishida, T. Nakajima, 
 Y. Honda, O. Kitao, H. Nakai, T. Vreven, J. A. Montgomery, Jr., 
 J. E. Peralta, F. Ogliaro, M. Bearpark, J. J. Heyd, E. Brothers, 
 K. N. Kudin, V. N. Staroverov, T. Keith, R. Kobayashi, J. Normand, 
 K. Raghavachari, A. Rendell, J. C. Burant, S. S. Iyengar, J. Tomasi, 
 M. Cossi, N. Rega, J. M. Millam, M. Klene, J. E. Knox, J. B. Cross, 
 V. Bakken, C. Adamo, J. Jaramillo, R. Gomperts, R. E. Stratmann, 
 O. Yazyev, A. J. Austin, R. Cammi, C. Pomelli, J. W. Ochterski, 
 R. L. Martin, K. Morokuma, V. G. Zakrzewski, G. A. Voth, 
 P. Salvador, J. J. Dannenberg, S. Dapprich, A. D. Daniels, 
 O. Farkas, J. B. Foresman, J. V. Ortiz, J. Cioslowski, 
 and D. J. Fox, Gaussian, Inc., Wallingford CT, 2010.
 
 ******************************************
 Gaussian 09:  EM64L-G09RevC.01 23-Sep-2011
                28-Dec-2013 
 ******************************************
 %chk=26_C21H10N6S2.chk
 %NProcShared=12
 Will use up to   12 processors via shared memory.
 %Mem=8000MB
 Default route:  MaxDisk=100GB
 --------------------------------------------
 #B3LYP/6-31++G(d,p) opt scf=direct freq test
 --------------------------------------------
 1/14=-1,18=20,19=15,26=3,38=1/1,3;
 2/9=110,12=2,17=6,18=5,40=1/2;
 3/5=1,6=6,7=1111,11=2,16=1,25=1,30=1,71=1,74=-5/1,2,3;
 4//1;
 5/5=2,38=5/2;
 6/7=2,8=2,9=2,10=2,28=1/1;
 7//1,2,3,16;
 1/14=-1,18=20,19=15/3(2);
 2/9=110/2;
 99//99;
 2/9=110/2;
 3/5=1,6=6,7=1111,11=2,16=1,25=1,30=1,71=1,74=-5/1,2,3;
 4/5=5,16=3/1;
 5/5=2,38=5/2;
 7//1,2,3,16;
 1/14=-1,18=20,19=15/3(-5);
 2/9=110/2;
 6/7=2,8=2,9=2,10=2,19=2,28=1/1;
 99/9=1/99;
 ----------------------------------------------------------------------
 Geom opt of No.26 candidate from the CEPDB database with SMILE code of
  [SiH2]1C=c2ccc3c4nsnc4c(cc3c2=C1)-c1cc2ccccc2[nH]1, HPC, 20131227, Sh
 uo Dai, Gaussian09
 ----------------------------------------------------------------------
 Charge =  0 Multiplicity = 1
 Symbolic Z-Matrix:
 Si                    2.10722   0.62045  -0.07019 
 H                     2.86273   0.00535   1.09395 
 H                     2.38761   2.00994  -0.48306 
 C                     0.62621   0.04666  -1.52676 
 C                     1.09387  -1.00196  -2.20779 
 C                     0.49624  -1.91756  -3.1784 
 C                     1.29757  -2.7084   -3.86795 
 C                     2.76741  -2.76621  -3.62139 
 C                     3.5912   -3.43144  -4.59095 
 N                     3.15847  -4.12516  -5.66881 
 S                     4.48756  -4.78787  -6.39555 
 N                     5.69002  -4.14208  -5.46124 
 C                     5.10107  -3.41623  -4.48712 
 C                     5.75153  -2.69406  -3.42819 
 C                     4.83082  -2.08818  -2.43743 
 C                     3.36282  -2.15953  -2.46264 
 C                     2.2816   -1.52265  -1.53391 
 C                     2.04375  -1.32955  -0.19718 
 C                     7.26021  -2.82027  -3.38077 
 C                     8.02354  -3.74132  -2.66412 
 C                     9.30631  -3.90859  -3.28368 
 C                     10.38867  -4.80385  -3.09196 
 C                     11.52    -4.73892  -3.91798 
 C                     11.5948  -3.7779   -4.91962 
 C                     10.537   -2.87162  -5.12799 
 C                     9.38734  -2.96935  -4.30628 
 N                     8.17421  -2.27655  -4.29923 
 H                     7.98068  -1.51828  -4.9369 
 H                    -0.41761   0.05984  -1.19762 
 H                    -0.58619  -1.93833  -3.31442 
 H                     0.92077  -3.33748  -4.68536 
 H                     5.30723  -1.49833  -1.65179 
 H                     1.05308  -1.06168   0.34507 
 H                     7.65843  -4.36068  -1.85856 
 H                     10.33662  -5.56928  -2.32297 
 H                     12.33676  -5.44667  -3.77835 
 H                     12.48297  -3.7417   -5.55212 
 H                     10.61776  -2.13852  -5.92572 
 

 GradGradGradGradGradGradGradGradGradGradGradGradGradGradGradGradGradGrad
 Berny optimization.
 Initialization pass.
                           ----------------------------
                           !    Initial Parameters    !
                           ! (Angstroms and Degrees)  !
 --------------------------                            --------------------------
 ! Name  Definition              Value          Derivative Info.                !
 --------------------------------------------------------------------------------
 ! R1    R(1,2)                  1.518          estimate D2E/DX2                !
 ! R2    R(1,3)                  1.4764         estimate D2E/DX2                !
 ! R3    R(1,4)                  2.155          estimate D2E/DX2                !
 ! R4    R(1,18)                 1.9552         estimate D2E/DX2                !
 ! R5    R(4,5)                  1.335          estimate D2E/DX2                !
 ! R6    R(4,29)                 1.0946         estimate D2E/DX2                !
 ! R7    R(5,6)                  1.462          estimate D2E/DX2                !
 ! R8    R(5,17)                 1.4615         estimate D2E/DX2                !
 ! R9    R(6,7)                  1.3202         estimate D2E/DX2                !
 ! R10   R(6,30)                 1.0911         estimate D2E/DX2                !
 ! R11   R(7,8)                  1.4915         estimate D2E/DX2                !
 ! R12   R(7,31)                 1.0981         estimate D2E/DX2                !
 ! R13   R(8,9)                  1.4357         estimate D2E/DX2                !
 ! R14   R(8,16)                 1.4371         estimate D2E/DX2                !
 ! R15   R(9,10)                 1.3529         estimate D2E/DX2                !
 ! R16   R(9,13)                 1.5135         estimate D2E/DX2                !
 ! R17   R(10,11)                1.6534         estimate D2E/DX2                !
 ! R18   R(11,12)                1.6541         estimate D2E/DX2                !
 ! R19   R(12,13)                1.35           estimate D2E/DX2                !
 ! R20   R(13,14)                1.4373         estimate D2E/DX2                !
 ! R21   R(14,15)                1.482          estimate D2E/DX2                !
 ! R22   R(14,19)                1.5147         estimate D2E/DX2                !
 ! R23   R(15,16)                1.4699         estimate D2E/DX2                !
 ! R24   R(15,32)                1.0918         estimate D2E/DX2                !
 ! R25   R(16,17)                1.5612         estimate D2E/DX2                !
 ! R26   R(17,18)                1.3714         estimate D2E/DX2                !
 ! R27   R(18,33)                1.1607         estimate D2E/DX2                !
 ! R28   R(19,20)                1.3945         estimate D2E/DX2                !
 ! R29   R(19,27)                1.4052         estimate D2E/DX2                !
 ! R30   R(20,21)                1.4343         estimate D2E/DX2                !
 ! R31   R(20,34)                1.0797         estimate D2E/DX2                !
 ! R32   R(21,22)                1.4177         estimate D2E/DX2                !
 ! R33   R(21,26)                1.3908         estimate D2E/DX2                !
 ! R34   R(22,23)                1.4023         estimate D2E/DX2                !
 ! R35   R(22,35)                1.0862         estimate D2E/DX2                !
 ! R36   R(23,24)                1.3901         estimate D2E/DX2                !
 ! R37   R(23,36)                1.0897         estimate D2E/DX2                !
 ! R38   R(24,25)                1.4084         estimate D2E/DX2                !
 ! R39   R(24,37)                1.091          estimate D2E/DX2                !
 ! R40   R(25,26)                1.4165         estimate D2E/DX2                !
 ! R41   R(25,38)                1.0864         estimate D2E/DX2                !
 ! R42   R(26,27)                1.397          estimate D2E/DX2                !
 ! R43   R(27,28)                1.0095         estimate D2E/DX2                !
 ! A1    A(2,1,3)              120.085          estimate D2E/DX2                !
 ! A2    A(2,1,4)              138.805          estimate D2E/DX2                !
 ! A3    A(2,1,18)              70.2349         estimate D2E/DX2                !
 ! A4    A(3,1,4)              101.0745         estimate D2E/DX2                !
 ! A5    A(3,1,18)             157.9185         estimate D2E/DX2                !
 ! A6    A(4,1,18)              70.6243         estimate D2E/DX2                !
 ! A7    A(1,4,5)              108.2522         estimate D2E/DX2                !
 ! A8    A(1,4,29)             116.6745         estimate D2E/DX2                !
 ! A9    A(5,4,29)             119.7978         estimate D2E/DX2                !
 ! A10   A(4,5,6)              133.4247         estimate D2E/DX2                !
 ! A11   A(4,5,17)             109.2281         estimate D2E/DX2                !
 ! A12   A(6,5,17)             114.5312         estimate D2E/DX2                !
 ! A13   A(5,6,7)              118.2788         estimate D2E/DX2                !
 ! A14   A(5,6,30)             120.0118         estimate D2E/DX2                !
 ! A15   A(7,6,30)             121.7088         estimate D2E/DX2                !
 ! A16   A(6,7,8)              122.3454         estimate D2E/DX2                !
 ! A17   A(6,7,31)             121.5785         estimate D2E/DX2                !
 ! A18   A(8,7,31)             116.0398         estimate D2E/DX2                !
 ! A19   A(7,8,9)              118.1501         estimate D2E/DX2                !
 ! A20   A(7,8,16)             121.6833         estimate D2E/DX2                !
 ! A21   A(9,8,16)             120.1587         estimate D2E/DX2                !
 ! A22   A(8,9,10)             126.3065         estimate D2E/DX2                !
 ! A23   A(8,9,13)             121.4281         estimate D2E/DX2                !
 ! A24   A(10,9,13)            112.2654         estimate D2E/DX2                !
 ! A25   A(9,10,11)            107.3732         estimate D2E/DX2                !
 ! A26   A(10,11,12)           100.347          estimate D2E/DX2                !
 ! A27   A(11,12,13)           107.4784         estimate D2E/DX2                !
 ! A28   A(9,13,12)            112.3517         estimate D2E/DX2                !
 ! A29   A(9,13,14)            120.4671         estimate D2E/DX2                !
 ! A30   A(12,13,14)           127.1781         estimate D2E/DX2                !
 ! A31   A(13,14,15)           114.6312         estimate D2E/DX2                !
 ! A32   A(13,14,19)           115.5911         estimate D2E/DX2                !
 ! A33   A(15,14,19)           129.1919         estimate D2E/DX2                !
 ! A34   A(14,15,16)           126.0944         estimate D2E/DX2                !
 ! A35   A(14,15,32)           115.5195         estimate D2E/DX2                !
 ! A36   A(16,15,32)           118.3151         estimate D2E/DX2                !
 ! A37   A(8,16,15)            116.6207         estimate D2E/DX2                !
 ! A38   A(8,16,17)            111.4045         estimate D2E/DX2                !
 ! A39   A(15,16,17)           131.4263         estimate D2E/DX2                !
 ! A40   A(5,17,16)            115.7147         estimate D2E/DX2                !
 ! A41   A(5,17,18)            104.9706         estimate D2E/DX2                !
 ! A42   A(16,17,18)           139.2379         estimate D2E/DX2                !
 ! A43   A(1,18,17)            101.4267         estimate D2E/DX2                !
 ! A44   A(1,18,33)             76.5374         estimate D2E/DX2                !
 ! A45   A(17,18,33)           129.4865         estimate D2E/DX2                !
 ! A46   A(14,19,20)           128.0495         estimate D2E/DX2                !
 ! A47   A(14,19,27)           126.5237         estimate D2E/DX2                !
 ! A48   A(20,19,27)           103.6167         estimate D2E/DX2                !
 ! A49   A(19,20,21)           110.1566         estimate D2E/DX2                !
 ! A50   A(19,20,34)           125.2532         estimate D2E/DX2                !
 ! A51   A(21,20,34)           123.9025         estimate D2E/DX2                !
 ! A52   A(20,21,22)           134.2696         estimate D2E/DX2                !
 ! A53   A(20,21,26)           106.9139         estimate D2E/DX2                !
 ! A54   A(22,21,26)           118.7775         estimate D2E/DX2                !
 ! A55   A(21,22,23)           120.4679         estimate D2E/DX2                !
 ! A56   A(21,22,35)           120.2748         estimate D2E/DX2                !
 ! A57   A(23,22,35)           119.2283         estimate D2E/DX2                !
 ! A58   A(22,23,24)           119.9904         estimate D2E/DX2                !
 ! A59   A(22,23,36)           119.9426         estimate D2E/DX2                !
 ! A60   A(24,23,36)           120.0656         estimate D2E/DX2                !
 ! A61   A(23,24,25)           120.7323         estimate D2E/DX2                !
 ! A62   A(23,24,37)           118.9788         estimate D2E/DX2                !
 ! A63   A(25,24,37)           120.2856         estimate D2E/DX2                !
 ! A64   A(24,25,26)           118.6426         estimate D2E/DX2                !
 ! A65   A(24,25,38)           119.1434         estimate D2E/DX2                !
 ! A66   A(26,25,38)           122.1972         estimate D2E/DX2                !
 ! A67   A(21,26,25)           121.3581         estimate D2E/DX2                !
 ! A68   A(21,26,27)           106.2952         estimate D2E/DX2                !
 ! A69   A(25,26,27)           132.3371         estimate D2E/DX2                !
 ! A70   A(19,27,26)           112.1004         estimate D2E/DX2                !
 ! A71   A(19,27,28)           125.3678         estimate D2E/DX2                !
 ! A72   A(26,27,28)           122.3974         estimate D2E/DX2                !
 ! D1    D(2,1,4,5)            -57.3896         estimate D2E/DX2                !
 ! D2    D(2,1,4,29)            81.3116         estimate D2E/DX2                !
 ! D3    D(3,1,4,5)            120.2781         estimate D2E/DX2                !
 ! D4    D(3,1,4,29)          -101.0207         estimate D2E/DX2                !
 ! D5    D(18,1,4,5)           -38.4845         estimate D2E/DX2                !
 ! D6    D(18,1,4,29)          100.2167         estimate D2E/DX2                !
 ! D7    D(2,1,18,17)         -136.682          estimate D2E/DX2                !
 ! D8    D(2,1,18,33)           95.0967         estimate D2E/DX2                !
 ! D9    D(3,1,18,17)          -14.5961         estimate D2E/DX2                !
 ! D10   D(3,1,18,33)         -142.8173         estimate D2E/DX2                !
 ! D11   D(4,1,18,17)           56.424          estimate D2E/DX2                !
 ! D12   D(4,1,18,33)          -71.7973         estimate D2E/DX2                !
 ! D13   D(1,4,5,6)            170.9042         estimate D2E/DX2                !
 ! D14   D(1,4,5,17)            11.5864         estimate D2E/DX2                !
 ! D15   D(29,4,5,6)            33.7165         estimate D2E/DX2                !
 ! D16   D(29,4,5,17)         -125.6013         estimate D2E/DX2                !
 ! D17   D(4,5,6,7)            167.2953         estimate D2E/DX2                !
 ! D18   D(4,5,6,30)           -12.9938         estimate D2E/DX2                !
 ! D19   D(17,5,6,7)           -34.2089         estimate D2E/DX2                !
 ! D20   D(17,5,6,30)          145.502          estimate D2E/DX2                !
 ! D21   D(4,5,17,16)         -148.2849         estimate D2E/DX2                !
 ! D22   D(4,5,17,18)           34.2828         estimate D2E/DX2                !
 ! D23   D(6,5,17,16)           48.0924         estimate D2E/DX2                !
 ! D24   D(6,5,17,18)         -129.34           estimate D2E/DX2                !
 ! D25   D(5,6,7,8)              4.4437         estimate D2E/DX2                !
 ! D26   D(5,6,7,31)          -173.276          estimate D2E/DX2                !
 ! D27   D(30,6,7,8)          -175.262          estimate D2E/DX2                !
 ! D28   D(30,6,7,31)            7.0183         estimate D2E/DX2                !
 ! D29   D(6,7,8,9)           -167.1063         estimate D2E/DX2                !
 ! D30   D(6,7,8,16)            11.8759         estimate D2E/DX2                !
 ! D31   D(31,7,8,9)            10.7316         estimate D2E/DX2                !
 ! D32   D(31,7,8,16)         -170.2862         estimate D2E/DX2                !
 ! D33   D(7,8,9,10)            -6.1963         estimate D2E/DX2                !
 ! D34   D(7,8,9,13)           173.868          estimate D2E/DX2                !
 ! D35   D(16,8,9,10)          174.8054         estimate D2E/DX2                !
 ! D36   D(16,8,9,13)           -5.1303         estimate D2E/DX2                !
 ! D37   D(7,8,16,15)         -170.2572         estimate D2E/DX2                !
 ! D38   D(7,8,16,17)            2.2282         estimate D2E/DX2                !
 ! D39   D(9,8,16,15)            8.7049         estimate D2E/DX2                !
 ! D40   D(9,8,16,17)         -178.8097         estimate D2E/DX2                !
 ! D41   D(8,9,10,11)         -175.7528         estimate D2E/DX2                !
 ! D42   D(13,9,10,11)           4.188          estimate D2E/DX2                !
 ! D43   D(8,9,13,12)          177.4737         estimate D2E/DX2                !
 ! D44   D(8,9,13,14)           -1.9317         estimate D2E/DX2                !
 ! D45   D(10,9,13,12)          -2.4704         estimate D2E/DX2                !
 ! D46   D(10,9,13,14)         178.1243         estimate D2E/DX2                !
 ! D47   D(9,10,11,12)          -4.1527         estimate D2E/DX2                !
 ! D48   D(10,11,12,13)          2.7293         estimate D2E/DX2                !
 ! D49   D(11,12,13,9)          -0.5728         estimate D2E/DX2                !
 ! D50   D(11,12,13,14)        178.7839         estimate D2E/DX2                !
 ! D51   D(9,13,14,15)           4.4712         estimate D2E/DX2                !
 ! D52   D(9,13,14,19)         176.5157         estimate D2E/DX2                !
 ! D53   D(12,13,14,15)       -174.8385         estimate D2E/DX2                !
 ! D54   D(12,13,14,19)         -2.794          estimate D2E/DX2                !
 ! D55   D(13,14,15,16)         -0.4897         estimate D2E/DX2                !
 ! D56   D(13,14,15,32)       -177.3564         estimate D2E/DX2                !
 ! D57   D(19,14,15,16)       -171.2212         estimate D2E/DX2                !
 ! D58   D(19,14,15,32)         11.912          estimate D2E/DX2                !
 ! D59   D(13,14,19,20)        -92.2798         estimate D2E/DX2                !
 ! D60   D(13,14,19,27)         69.8349         estimate D2E/DX2                !
 ! D61   D(15,14,19,20)         78.378          estimate D2E/DX2                !
 ! D62   D(15,14,19,27)       -119.5072         estimate D2E/DX2                !
 ! D63   D(14,15,16,8)          -6.1754         estimate D2E/DX2                !
 ! D64   D(14,15,16,17)       -176.83           estimate D2E/DX2                !
 ! D65   D(32,15,16,8)         170.6126         estimate D2E/DX2                !
 ! D66   D(32,15,16,17)         -0.0419         estimate D2E/DX2                !
 ! D67   D(8,16,17,5)          -31.3403         estimate D2E/DX2                !
 ! D68   D(8,16,17,18)         144.8591         estimate D2E/DX2                !
 ! D69   D(15,16,17,5)         139.6892         estimate D2E/DX2                !
 ! D70   D(15,16,17,18)        -44.1114         estimate D2E/DX2                !
 ! D71   D(5,17,18,1)          -68.2958         estimate D2E/DX2                !
 ! D72   D(5,17,18,33)          13.5856         estimate D2E/DX2                !
 ! D73   D(16,17,18,1)         115.2484         estimate D2E/DX2                !
 ! D74   D(16,17,18,33)       -162.8702         estimate D2E/DX2                !
 ! D75   D(14,19,20,21)        155.8576         estimate D2E/DX2                !
 ! D76   D(14,19,20,34)        -14.9144         estimate D2E/DX2                !
 ! D77   D(27,19,20,21)         -9.4319         estimate D2E/DX2                !
 ! D78   D(27,19,20,34)        179.7961         estimate D2E/DX2                !
 ! D79   D(14,19,27,26)       -156.3746         estimate D2E/DX2                !
 ! D80   D(14,19,27,28)         19.4777         estimate D2E/DX2                !
 ! D81   D(20,19,27,26)          9.2166         estimate D2E/DX2                !
 ! D82   D(20,19,27,28)       -174.931          estimate D2E/DX2                !
 ! D83   D(19,20,21,22)       -171.0365         estimate D2E/DX2                !
 ! D84   D(19,20,21,26)          6.5718         estimate D2E/DX2                !
 ! D85   D(34,20,21,22)         -0.1145         estimate D2E/DX2                !
 ! D86   D(34,20,21,26)        177.4939         estimate D2E/DX2                !
 ! D87   D(20,21,22,23)        177.5327         estimate D2E/DX2                !
 ! D88   D(20,21,22,35)         -0.496          estimate D2E/DX2                !
 ! D89   D(26,21,22,23)          0.1434         estimate D2E/DX2                !
 ! D90   D(26,21,22,35)       -177.8852         estimate D2E/DX2                !
 ! D91   D(20,21,26,25)       -179.697          estimate D2E/DX2                !
 ! D92   D(20,21,26,27)         -0.6906         estimate D2E/DX2                !
 ! D93   D(22,21,26,25)         -1.6507         estimate D2E/DX2                !
 ! D94   D(22,21,26,27)        177.3557         estimate D2E/DX2                !
 ! D95   D(21,22,23,24)          1.0315         estimate D2E/DX2                !
 ! D96   D(21,22,23,36)       -178.5405         estimate D2E/DX2                !
 ! D97   D(35,22,23,24)        179.0807         estimate D2E/DX2                !
 ! D98   D(35,22,23,36)         -0.4914         estimate D2E/DX2                !
 ! D99   D(22,23,24,25)         -0.7136         estimate D2E/DX2                !
 ! D100  D(22,23,24,37)        179.9478         estimate D2E/DX2                !
 ! D101  D(36,23,24,25)        178.8579         estimate D2E/DX2                !
 ! D102  D(36,23,24,37)         -0.4807         estimate D2E/DX2                !
 ! D103  D(23,24,25,26)         -0.7518         estimate D2E/DX2                !
 ! D104  D(23,24,25,38)       -179.2927         estimate D2E/DX2                !
 ! D105  D(37,24,25,26)        178.5782         estimate D2E/DX2                !
 ! D106  D(37,24,25,38)          0.0373         estimate D2E/DX2                !
 ! D107  D(24,25,26,21)          1.9591         estimate D2E/DX2                !
 ! D108  D(24,25,26,27)       -176.7506         estimate D2E/DX2                !
 ! D109  D(38,25,26,21)       -179.5469         estimate D2E/DX2                !
 ! D110  D(38,25,26,27)          1.7434         estimate D2E/DX2                !
 ! D111  D(21,26,27,19)         -5.4284         estimate D2E/DX2                !
 ! D112  D(21,26,27,28)        178.577          estimate D2E/DX2                !
 ! D113  D(25,26,27,19)        173.4236         estimate D2E/DX2                !
 ! D114  D(25,26,27,28)         -2.5709         estimate D2E/DX2                !
 --------------------------------------------------------------------------------
 Trust Radius=3.00D-01 FncErr=1.00D-07 GrdErr=1.00D-06
 Number of steps in this run=    228 maximum allowed number of steps=    228.
 GradGradGradGradGradGradGradGradGradGradGradGradGradGradGradGradGradGrad

                          Input orientation:                          
 ---------------------------------------------------------------------
 Center     Atomic      Atomic             Coordinates (Angstroms)
 Number     Number       Type             X           Y           Z
 ---------------------------------------------------------------------
      1         14           0        2.107220    0.620450   -0.070190
      2          1           0        2.862730    0.005350    1.093950
      3          1           0        2.387610    2.009940   -0.483060
      4          6           0        0.626210    0.046660   -1.526760
      5          6           0        1.093870   -1.001960   -2.207790
      6          6           0        0.496240   -1.917560   -3.178400
      7          6           0        1.297570   -2.708400   -3.867950
      8          6           0        2.767410   -2.766210   -3.621390
      9          6           0        3.591200   -3.431440   -4.590950
     10          7           0        3.158470   -4.125160   -5.668810
     11         16           0        4.487560   -4.787870   -6.395550
     12          7           0        5.690020   -4.142080   -5.461240
     13          6           0        5.101070   -3.416230   -4.487120
     14          6           0        5.751530   -2.694060   -3.428190
     15          6           0        4.830820   -2.088180   -2.437430
     16          6           0        3.362820   -2.159530   -2.462640
     17          6           0        2.281600   -1.522650   -1.533910
     18          6           0        2.043750   -1.329550   -0.197180
     19          6           0        7.260210   -2.820270   -3.380770
     20          6           0        8.023540   -3.741320   -2.664120
     21          6           0        9.306310   -3.908590   -3.283680
     22          6           0       10.388670   -4.803850   -3.091960
     23          6           0       11.520000   -4.738920   -3.917980
     24          6           0       11.594800   -3.777900   -4.919620
     25          6           0       10.537000   -2.871620   -5.127990
     26          6           0        9.387340   -2.969350   -4.306280
     27          7           0        8.174210   -2.276550   -4.299230
     28          1           0        7.980680   -1.518280   -4.936900
     29          1           0       -0.417610    0.059840   -1.197620
     30          1           0       -0.586190   -1.938330   -3.314420
     31          1           0        0.920770   -3.337480   -4.685360
     32          1           0        5.307230   -1.498330   -1.651790
     33          1           0        1.053080   -1.061680    0.345070
     34          1           0        7.658430   -4.360680   -1.858560
     35          1           0       10.336620   -5.569280   -2.322970
     36          1           0       12.336760   -5.446670   -3.778350
     37          1           0       12.482970   -3.741700   -5.552120
     38          1           0       10.617760   -2.138520   -5.925720
 ---------------------------------------------------------------------
                    Distance matrix (angstroms):
                    1          2          3          4          5
     1  Si   0.000000
     2  H    1.518014   0.000000
     3  H    1.476402   2.594433   0.000000
     4  C    2.155046   3.445555   2.836601   0.000000
     5  C    2.868523   3.878792   3.704052   1.334958   0.000000
     6  C    4.324086   5.248889   5.125173   2.569624   1.462043
     7  C    5.114661   5.868102   5.908333   3.677261   2.389469
     8  C    4.951398   5.470380   5.727562   4.109069   2.812753
     9  C    6.249582   6.682835   6.923294   5.502509   4.221194
    10  N    7.414208   7.929912   8.070048   6.401016   5.098589
    11  S    8.655988   9.039228   9.250813   7.873234   6.586925
    12  N    8.036266   8.256226   8.575286   7.659494   6.447471
    13  C    6.690829   6.918505   7.269022   6.385899   5.204008
    14  C    5.961806   6.006807   6.489789   6.115218   5.103565
    15  C    4.512039   4.552680   5.155912   4.802667   3.898385
    16  C    3.876679   4.193582   4.717441   3.637606   2.559893
    17  C    2.601108   3.094858   3.687101   2.281031   1.461484
    18  C    1.955161   2.029705   3.369297   2.381419   2.247697
    19  C    7.025084   6.880776   7.447811   7.461005   6.534974
    20  C    7.794636   7.402337   8.342525   8.388258   7.465431
    21  C    9.092063   8.717929   9.525801   9.699222   8.777825
    22  C   10.350678   9.863570  10.828253  11.012853  10.081142
    23  C   11.494728  11.071398  11.863656  12.136489  11.206864
    24  C   11.527213  11.257222  11.745404  12.101600  11.195061
    25  C   10.432501  10.289991  10.574382  10.941160  10.059617
    26  C    9.155942   8.976740   9.402476   9.673647   8.778151
    27  N    7.942654   7.906028   8.149963   8.369958   7.491990
    28  H    7.921904   8.055185   7.972920   8.256290   7.425818
    29  H    2.821374   4.001861   3.490379   1.094562   2.105335
    30  H    4.932225   5.925088   5.696396   2.933569   2.219013
    31  H    6.194568   6.953139   6.957431   4.638526   3.409248
    32  H    4.150994   3.971866   4.711483   4.930981   4.278776
    33  H    2.028106   2.230293   3.449872   2.216841   2.553884
    34  H    7.669802   7.125887   8.382025   8.305833   7.382168
    35  H   10.540911   9.930301  11.136274  11.245657  10.310291
    36  H   12.458085  11.967501  12.862564  13.129483  12.191172
    37  H   12.519429  12.278422  12.676475  13.081971  12.182049
    38  H   10.692448  10.677661  10.703627  11.133595  10.286849
                    6          7          8          9         10
     6  C    0.000000
     7  C    1.320241   0.000000
     8  C    2.464683   1.491497   0.000000
     9  C    3.723695   2.511226   1.435691   0.000000
    10  N    4.261820   2.951822   2.488293   1.352880   0.000000
    11  S    5.875319   4.570448   3.839530   2.428980   1.653425
    12  N    6.093866   4.887497   3.717488   2.380643   2.540102
    13  C    5.016295   3.918036   2.572544   1.513512   2.381736
    14  C    5.318216   4.475640   2.991238   2.561790   3.713810
    15  C    4.400765   3.861983   2.473691   2.824651   4.169875
    16  C    2.964480   2.557618   1.437107   2.489903   3.766296
    17  C    2.459230   2.796795   2.477908   3.834583   4.963805
    18  C    3.410017   3.991562   3.783238   5.110554   6.244739
    19  C    6.826941   5.983555   4.499564   3.911483   4.874642
    20  C    7.762141   6.910485   5.430848   4.842968   5.731004
    21  C    9.032863   8.119221   6.646525   5.882101   6.597855
    22  C   10.305257   9.361686   7.906698   7.094792   7.705619
    23  C   11.403084  10.422264   8.977048   8.064010   8.564887
    24  C   11.387306  10.405901   8.979517   8.017835   8.476647
    25  C   10.272682   9.326382   7.915016   6.988988   7.503769
    26  C    9.023859   8.105838   6.658364   5.821495   6.480062
    27  N    7.767648   6.903671   5.471080   4.735277   5.518220
    28  H    7.698610   6.871899   5.519609   4.800770   5.530391
    29  H    2.944269   4.211372   4.899548   6.306686   7.091834
    30  H    1.091140   2.109018   3.467888   4.616221   4.934355
    31  H    2.113605   1.098125   2.206459   2.673750   2.568057
    32  H    5.064772   4.738460   3.455073   3.914120   5.258693
    33  H    3.668439   4.530011   4.645122   6.035073   7.069960
    34  H    7.681652   6.872279   5.438013   4.987164   5.901111
    35  H   10.530902   9.606041   8.175331   7.430665   8.050215
    36  H   12.369821  11.374088   9.938911   9.011453   9.463680
    37  H   12.354907  11.358579   9.953462   8.948949   9.333111
    38  H   10.490079   9.561649   8.205603   7.268136   7.723584
                   11         12         13         14         15
    11  S    0.000000
    12  N    1.654053   0.000000
    13  C    2.428970   1.350048   0.000000
    14  C    3.845372   2.496765   1.437345   0.000000
    15  C    4.803422   3.755018   2.457230   1.482027   0.000000
    16  C    4.862200   4.282285   2.949462   2.631339   1.469949
    17  C    6.258072   5.822599   4.500723   4.123216   2.763095
    18  C    7.506795   6.993993   5.666130   5.103817   3.655407
    19  C    4.544000   2.922505   2.498212   1.514692   2.706988
    20  C    5.246141   3.664670   3.459746   2.615834   3.602460
    21  C    5.803208   4.227746   4.401674   3.759312   4.905104
    22  C    6.762918   5.303653   5.641868   5.105618   6.220367
    23  C    7.456270   6.060242   6.578457   6.139755   7.345991
    24  C    7.328797   5.940741   6.518159   6.127224   7.400530
    25  C    6.471047   5.021786   5.500604   5.081493   6.357152
    26  C    5.628491   4.047148   4.313295   3.750459   5.003093
    27  N    4.928760   3.316876   3.283042   2.608142   3.831454
    28  H    5.001976   3.522269   3.478027   2.937307   4.061250
    29  H    8.635940   8.552060   7.304773   7.114611   5.804923
    30  H    6.584541   6.989718   5.992023   6.383633   5.489587
    31  H    4.213119   4.898481   4.185739   5.032962   4.680003
    32  H    5.830625   4.652725   3.429277   2.186954   1.091842
    33  H    8.433036   8.043837   6.729056   6.243203   4.802846
    34  H    5.551683   4.111171   3.787005   2.979535   3.673517
    35  H    7.169938   5.785891   6.060541   5.523717   6.514982
    36  H    8.300223   6.979486   7.548526   7.145959   8.331666
    37  H    8.107554   6.805346   7.465427   7.135889   8.425605
    38  H    6.694710   5.339721   5.842601   5.497861   6.757172
                   16         17         18         19         20
    16  C    0.000000
    17  C    1.561151   0.000000
    18  C    2.749749   1.371389   0.000000
    19  C    4.058225   5.466376   6.290385   0.000000
    20  C    4.925948   6.258574   6.903645   1.394487   0.000000
    21  C    6.249671   7.622398   8.301970   2.319567   1.434341
    22  C    7.533329   8.883602   9.491480   3.715543   2.627900
    23  C    8.678183  10.068576  10.736269   4.702725   3.846115
    24  C    8.741932  10.162917  10.932448   4.698275   4.224040
    25  C    7.686353   9.104326   9.941135   3.713862   3.625536
    26  C    6.352138   7.763409   8.573328   2.324538   2.269929
    27  N    5.151333   6.552726   7.436811   1.405203   2.200418
    28  H    5.278048   6.637761   7.599191   2.153090   3.179508
    29  H    4.562623   3.146919   2.998262   8.485876   9.372964
    30  H    4.045879   3.401062   4.123637   7.896088   8.820494
    31  H    3.505946   3.882925   5.043474   6.492916   7.395799
    32  H    2.208029   3.028023   3.576965   2.924214   3.665263
    33  H    3.797816   2.291794   1.160697   7.450033   8.051274
    34  H    4.864385   6.088523   6.593373   2.201946   1.079740
    35  H    7.764006   9.048822   9.553323   4.259143   2.967854
    36  H    9.647175  11.024595  11.649958   5.729521   4.770073
    37  H    9.758344  11.186516  11.977945   5.730708   5.312914
    38  H    8.039124   9.442397  10.343319   4.267868   4.465085
                   21         22         23         24         25
    21  C    0.000000
    22  C    1.417657   0.000000
    23  C    2.447899   1.402295   0.000000
    24  C    2.816126   2.418194   1.390121   0.000000
    25  C    2.447730   2.810860   2.432534   1.408440   0.000000
    26  C    1.390844   2.417152   2.798284   2.429572   1.416502
    27  N    2.230818   3.570515   4.171682   3.786736   2.573660
    28  H    3.194372   4.471822   4.892597   4.262399   2.898761
    29  H   10.707694  12.000820  13.150475  13.148366  12.001864
    30  H   10.086844  11.344966  12.440556  12.423252  11.308644
    31  H    8.521042   9.712378  10.718982  10.685680   9.637677
    32  H    4.946217   6.230697   7.364479   7.443701   6.428094
    33  H    9.454551  10.628747  11.884953  12.092257  11.098424
    34  H    2.225053   3.028512   4.392721   5.020431   4.603546
    35  H    2.177704   1.086249   2.152659   3.396270   3.896878
    36  H    3.434242   2.163193   1.089726   2.153554   3.419290
    37  H    3.907025   3.400977   2.142935   1.090969   2.173413
    38  H    3.439974   3.897007   3.406925   2.157408   1.086430
                   26         27         28         29         30
    26  C    0.000000
    27  N    1.397035   0.000000
    28  H    2.117068   1.009480   0.000000
    29  H   10.722724   9.428578   9.327591   0.000000
    30  H   10.075619   8.822066   8.729269   2.915809   0.000000
    31  H    8.483044   7.340781   7.294867   5.049493   2.471442
    32  H    5.085028   3.979213   4.235526   5.950459   6.139246
    33  H    9.733147   8.588127   8.723493   2.408449   4.104581
    34  H    3.303977   3.250615   4.202292   9.230399   8.715565
    35  H    3.405038   4.407232   5.365975  12.190442  11.553119
    36  H    3.887789   5.258117   5.979124  14.129960  13.398743
    37  H    3.425138   4.720361   5.058924  14.136419  13.381419
    38  H    2.196997   2.938615   2.883861  12.205208  11.505975
                   31         32         33         34         35
    31  H    0.000000
    32  H    5.641458   0.000000
    33  H    5.522861   4.719736   0.000000
    34  H    7.377926   3.709979   7.705195   0.000000
    35  H    9.960926   6.505219  10.659316   2.974742   0.000000
    36  H   11.644577   8.338222  12.788751   5.172208   2.476636
    37  H   11.601687   8.469742  13.137798   6.107512   4.286523
    38  H    9.849244   6.846755  11.487624   5.498856   4.982867
                   36         37         38
    36  H    0.000000
    37  H    2.464662   0.000000
    38  H    4.302327   2.487724   0.000000
 Stoichiometry    C20H13N3SSi
 Framework group  C1[X(C20H13N3SSi)]
 Deg. of freedom   108
 Full point group                 C1      NOp   1
 Largest Abelian subgroup         C1      NOp   1
 Largest concise Abelian subgroup C1      NOp   1
                         Standard orientation:                         
 ---------------------------------------------------------------------
 Center     Atomic      Atomic             Coordinates (Angstroms)
 Number     Number       Type             X           Y           Z
 ---------------------------------------------------------------------
      1         14           0       -4.827653   -2.929844    0.408996
      2          1           0       -4.278396   -3.821165   -0.690200
      3          1           0       -4.898383   -3.425714    1.797835
      4          6           0       -5.572869   -0.921910    0.647901
      5          6           0       -4.623625   -0.073174    0.247034
      6          6           0       -4.598568    1.370203    0.015508
      7          6           0       -3.426870    1.958619   -0.139177
      8          6           0       -2.148317    1.191799   -0.182238
      9          6           0       -0.916873    1.921298   -0.070064
     10          7           0       -0.782703    3.267250   -0.043660
     11         16           0        0.836389    3.601643   -0.020461
     12          7           0        1.454632    2.070477    0.075445
     13          6           0        0.415141    1.210077    0.033015
     14          6           0        0.474317   -0.225748    0.062416
     15          6           0       -0.831981   -0.901641   -0.119677
     16          6           0       -2.130544   -0.239536   -0.309674
     17          6           0       -3.574360   -0.817304   -0.446687
     18          6           0       -4.229627   -1.832800   -1.094838
     19          6           0        1.866161   -0.822894    0.084314
     20          6           0        2.646463   -1.224012   -0.999580
     21          6           0        4.035884   -1.199535   -0.644272
     22          6           0        5.245391   -1.345972   -1.369116
     23          6           0        6.482500   -1.217702   -0.721396
     24          6           0        6.528650   -0.966349    0.645034
     25          6           0        5.342583   -0.822905    1.390936
     26          6           0        4.100528   -0.923926    0.717458
     27          7           0        2.780696   -0.773543    1.150047
     28          1           0        2.545335   -0.586933    2.113807
     29          1           0       -6.614839   -0.747211    0.361816
     30          1           0       -5.532911    1.931881   -0.030409
     31          1           0       -3.336410    3.050906   -0.207030
     32          1           0       -0.810841   -1.991356   -0.054916
     33          1           0       -5.364788   -1.969524   -1.294672
     34          1           0        2.284625   -1.376707   -2.005362
     35          1           0        5.223601   -1.527367   -2.439891
     36          1           0        7.406857   -1.308291   -1.291361
     37          1           0        7.500029   -0.870432    1.132306
     38          1           0        5.408764   -0.615361    2.455303
 ---------------------------------------------------------------------
 Rotational constants (GHZ):      0.3571934      0.0999987      0.0821213
 Standard basis: 6-31++G(d,p) (6D, 7F)
 There are   561 symmetry adapted basis functions of A   symmetry.
 Integral buffers will be    131072 words long.
 Raffenetti 2 integral format.
 Two-electron integral symmetry is turned on.
   561 basis functions,   952 primitive gaussians,   561 cartesian basis functions
    92 alpha electrons       92 beta electrons
       nuclear repulsion energy      2152.1463207642 Hartrees.
 NAtoms=   38 NActive=   38 NUniq=   38 SFac= 1.00D+00 NAtFMM=   60 NAOKFM=F Big=F
 One-electron integrals computed using PRISM.
 NBasis=   561 RedAO= T  NBF=   561
 NBsUse=   553 1.00D-06 NBFU=   553
 Harris functional with IExCor=  402 diagonalized for initial guess.
 ExpMin= 3.31D-02 ExpMax= 2.19D+04 ExpMxC= 3.30D+03 IAcc=3 IRadAn=         5 AccDes= 0.00D+00
 HarFok:  IExCor=  402 AccDes= 0.00D+00 IRadAn=         5 IDoV= 1
 ScaDFX=  1.000000  1.000000  1.000000  1.000000
 FoFCou: FMM=F IPFlag=           0 FMFlag=      100000 FMFlg1=           0
         NFxFlg=           0 DoJE=T BraDBF=F KetDBF=T FulRan=T
         Omega=  0.000000  0.000000  1.000000  0.000000  0.000000 ICntrl=     500 IOpCl=  0
         NMat0=    1 NMatS0=    1 NMatT0=    0 NMatD0=    1 NMtDS0=    0 NMtDT0=    0
         I1Cent=           4 NGrid=           0.
 Petite list used in FoFCou.
 Initial guess orbital symmetries:
       Occupied  (A) (A) (A) (A) (A) (A) (A) (A) (A) (A) (A) (A)
                 (A) (A) (A) (A) (A) (A) (A) (A) (A) (A) (A) (A)
                 (A) (A) (A) (A) (A) (A) (A) (A) (A) (A) (A) (A)
                 (A) (A) (A) (A) (A) (A) (A) (A) (A) (A) (A) (A)
                 (A) (A) (A) (A) (A) (A) (A) (A) (A) (A) (A) (A)
                 (A) (A) (A) (A) (A) (A) (A) (A) (A) (A) (A) (A)
                 (A) (A) (A) (A) (A) (A) (A) (A) (A) (A) (A) (A)
                 (A) (A) (A) (A) (A) (A) (A) (A)
       Virtual   (A) (A) (A) (A) (A) (A) (A) (A) (A) (A) (A) (A)
                 (A) (A) (A) (A) (A) (A) (A) (A) (A) (A) (A) (A)
                 (A) (A) (A) (A) (A) (A) (A) (A) (A) (A) (A) (A)
                 (A) (A) (A) (A) (A) (A) (A) (A) (A) (A) (A) (A)
                 (A) (A) (A) (A) (A) (A) (A) (A) (A) (A) (A) (A)
                 (A) (A) (A) (A) (A) (A) (A) (A) (A) (A) (A) (A)
                 (A) (A) (A) (A) (A) (A) (A) (A) (A) (A) (A) (A)
                 (A) (A) (A) (A) (A) (A) (A) (A) (A) (A) (A) (A)
                 (A) (A) (A) (A) (A) (A) (A) (A) (A) (A) (A) (A)
                 (A) (A) (A) (A) (A) (A) (A) (A) (A) (A) (A) (A)
                 (A) (A) (A) (A) (A) (A) (A) (A) (A) (A) (A) (A)
                 (A) (A) (A) (A) (A) (A) (A) (A) (A) (A) (A) (A)
                 (A) (A) (A) (A) (A) (A) (A) (A) (A) (A) (A) (A)
                 (A) (A) (A) (A) (A) (A) (A) (A) (A) (A) (A) (A)
                 (A) (A) (A) (A) (A) (A) (A) (A) (A) (A) (A) (A)
                 (A) (A) (A) (A) (A) (A) (A) (A) (A) (A) (A) (A)
                 (A) (A) (A) (A) (A) (A) (A) (A) (A) (A) (A) (A)
                 (A) (A) (A) (A) (A) (A) (A) (A) (A) (A) (A) (A)
                 (A) (A) (A) (A) (A) (A) (A) (A) (A) (A) (A) (A)
                 (A) (A) (A) (A) (A) (A) (A) (A) (A) (A) (A) (A)
                 (A) (A) (A) (A) (A) (A) (A) (A) (A) (A) (A) (A)
                 (A) (A) (A) (A) (A) (A) (A) (A) (A) (A) (A) (A)
                 (A) (A) (A) (A) (A) (A) (A) (A) (A) (A) (A) (A)
                 (A) (A) (A) (A) (A) (A) (A) (A) (A) (A) (A) (A)
                 (A) (A) (A) (A) (A) (A) (A) (A) (A) (A) (A) (A)
                 (A) (A) (A) (A) (A) (A) (A) (A) (A) (A) (A) (A)
                 (A) (A) (A) (A) (A) (A) (A) (A) (A) (A) (A) (A)
                 (A) (A) (A) (A) (A) (A) (A) (A) (A) (A) (A) (A)
                 (A) (A) (A) (A) (A) (A) (A) (A) (A) (A) (A) (A)
                 (A) (A) (A) (A) (A) (A) (A) (A) (A) (A) (A) (A)
                 (A) (A) (A) (A) (A) (A) (A) (A) (A) (A) (A) (A)
                 (A) (A) (A) (A) (A) (A) (A) (A) (A) (A) (A) (A)
                 (A) (A) (A) (A) (A) (A) (A) (A) (A) (A) (A) (A)
                 (A) (A) (A) (A) (A) (A) (A) (A) (A) (A) (A) (A)
                 (A) (A) (A) (A) (A) (A) (A) (A) (A) (A) (A) (A)
                 (A) (A) (A) (A) (A) (A) (A) (A) (A) (A) (A) (A)
                 (A) (A) (A) (A) (A) (A) (A) (A) (A) (A) (A) (A)
                 (A) (A) (A) (A) (A) (A) (A) (A) (A) (A) (A) (A)
                 (A) (A) (A) (A) (A)
 The electronic state of the initial guess is 1-A.
 Requested convergence on RMS density matrix=1.00D-08 within 128 cycles.
 Requested convergence on MAX density matrix=1.00D-06.
 Requested convergence on             energy=1.00D-06.
 No special actions if energy rises.
 EnCoef did     5 forward-backward iterations
 Restarting incremental Fock formation.
 SCF Done:  E(RB3LYP) =  -1621.58969420     A.U. after   24 cycles
             Convg  =    0.7733D-08             -V/T =  2.0075

 **********************************************************************

            Population analysis using the SCF density.

 **********************************************************************

 Orbital symmetries:
       Occupied  (A) (A) (A) (A) (A) (A) (A) (A) (A) (A) (A) (A)
                 (A) (A) (A) (A) (A) (A) (A) (A) (A) (A) (A) (A)
                 (A) (A) (A) (A) (A) (A) (A) (A) (A) (A) (A) (A)
                 (A) (A) (A) (A) (A) (A) (A) (A) (A) (A) (A) (A)
                 (A) (A) (A) (A) (A) (A) (A) (A) (A) (A) (A) (A)
                 (A) (A) (A) (A) (A) (A) (A) (A) (A) (A) (A) (A)
                 (A) (A) (A) (A) (A) (A) (A) (A) (A) (A) (A) (A)
                 (A) (A) (A) (A) (A) (A) (A) (A)
       Virtual   (A) (A) (A) (A) (A) (A) (A) (A) (A) (A) (A) (A)
                 (A) (A) (A) (A) (A) (A) (A) (A) (A) (A) (A) (A)
                 (A) (A) (A) (A) (A) (A) (A) (A) (A) (A) (A) (A)
                 (A) (A) (A) (A) (A) (A) (A) (A) (A) (A) (A) (A)
                 (A) (A) (A) (A) (A) (A) (A) (A) (A) (A) (A) (A)
                 (A) (A) (A) (A) (A) (A) (A) (A) (A) (A) (A) (A)
                 (A) (A) (A) (A) (A) (A) (A) (A) (A) (A) (A) (A)
                 (A) (A) (A) (A) (A) (A) (A) (A) (A) (A) (A) (A)
                 (A) (A) (A) (A) (A) (A) (A) (A) (A) (A) (A) (A)
                 (A) (A) (A) (A) (A) (A) (A) (A) (A) (A) (A) (A)
                 (A) (A) (A) (A) (A) (A) (A) (A) (A) (A) (A) (A)
                 (A) (A) (A) (A) (A) (A) (A) (A) (A) (A) (A) (A)
                 (A) (A) (A) (A) (A) (A) (A) (A) (A) (A) (A) (A)
                 (A) (A) (A) (A) (A) (A) (A) (A) (A) (A) (A) (A)
                 (A) (A) (A) (A) (A) (A) (A) (A) (A) (A) (A) (A)
                 (A) (A) (A) (A) (A) (A) (A) (A) (A) (A) (A) (A)
                 (A) (A) (A) (A) (A) (A) (A) (A) (A) (A) (A) (A)
                 (A) (A) (A) (A) (A) (A) (A) (A) (A) (A) (A) (A)
                 (A) (A) (A) (A) (A) (A) (A) (A) (A) (A) (A) (A)
                 (A) (A) (A) (A) (A) (A) (A) (A) (A) (A) (A) (A)
                 (A) (A) (A) (A) (A) (A) (A) (A) (A) (A) (A) (A)
                 (A) (A) (A) (A) (A) (A) (A) (A) (A) (A) (A) (A)
                 (A) (A) (A) (A) (A) (A) (A) (A) (A) (A) (A) (A)
                 (A) (A) (A) (A) (A) (A) (A) (A) (A) (A) (A) (A)
                 (A) (A) (A) (A) (A) (A) (A) (A) (A) (A) (A) (A)
                 (A) (A) (A) (A) (A) (A) (A) (A) (A) (A) (A) (A)
                 (A) (A) (A) (A) (A) (A) (A) (A) (A) (A) (A) (A)
                 (A) (A) (A) (A) (A) (A) (A) (A) (A) (A) (A) (A)
                 (A) (A) (A) (A) (A) (A) (A) (A) (A) (A) (A) (A)
                 (A) (A) (A) (A) (A) (A) (A) (A) (A) (A) (A) (A)
                 (A) (A) (A) (A) (A) (A) (A) (A) (A) (A) (A) (A)
                 (A) (A) (A) (A) (A) (A) (A) (A) (A) (A) (A) (A)
                 (A) (A) (A) (A) (A) (A) (A) (A) (A) (A) (A) (A)
                 (A) (A) (A) (A) (A) (A) (A) (A) (A) (A) (A) (A)
                 (A) (A) (A) (A) (A) (A) (A) (A) (A) (A) (A) (A)
                 (A) (A) (A) (A) (A) (A) (A) (A) (A) (A) (A) (A)
                 (A) (A) (A) (A) (A) (A) (A) (A) (A) (A) (A) (A)
                 (A) (A) (A) (A) (A) (A) (A) (A) (A) (A) (A) (A)
                 (A) (A) (A) (A) (A)
 The electronic state is 1-A.
 Alpha  occ. eigenvalues --  -88.98406 -66.19391 -14.38464 -14.38322 -14.38092
 Alpha  occ. eigenvalues --  -10.26376 -10.26210 -10.25740 -10.25627 -10.25012
 Alpha  occ. eigenvalues --  -10.24604 -10.24552 -10.23903 -10.22796 -10.22568
 Alpha  occ. eigenvalues --  -10.22496 -10.22471 -10.21810 -10.20996 -10.19718
 Alpha  occ. eigenvalues --  -10.19138 -10.19060 -10.18735 -10.18476 -10.18366
 Alpha  occ. eigenvalues --   -8.03669  -6.00246  -5.99655  -5.99406  -5.33611
 Alpha  occ. eigenvalues --   -3.69853  -3.69414  -3.69169  -1.01732  -0.97747
 Alpha  occ. eigenvalues --   -0.90650  -0.89710  -0.85869  -0.84071  -0.81477
 Alpha  occ. eigenvalues --   -0.78596  -0.77602  -0.76305  -0.73709  -0.72521
 Alpha  occ. eigenvalues --   -0.71049  -0.68570  -0.65681  -0.63152  -0.61457
 Alpha  occ. eigenvalues --   -0.61059  -0.59225  -0.58051  -0.56670  -0.54602
 Alpha  occ. eigenvalues --   -0.53845  -0.52596  -0.51543  -0.50032  -0.48971
 Alpha  occ. eigenvalues --   -0.48086  -0.47553  -0.46059  -0.45630  -0.45383
 Alpha  occ. eigenvalues --   -0.43989  -0.43496  -0.42706  -0.42299  -0.41342
 Alpha  occ. eigenvalues --   -0.41061  -0.40094  -0.39700  -0.38901  -0.38616
 Alpha  occ. eigenvalues --   -0.37595  -0.36330  -0.35229  -0.34342  -0.33930
 Alpha  occ. eigenvalues --   -0.33372  -0.33130  -0.31062  -0.30793  -0.29128
 Alpha  occ. eigenvalues --   -0.28002  -0.27567  -0.25985  -0.24073  -0.22829
 Alpha  occ. eigenvalues --   -0.20614  -0.19180
 Alpha virt. eigenvalues --   -0.11773  -0.10867  -0.08719  -0.05214  -0.03358
 Alpha virt. eigenvalues --   -0.02804  -0.02091  -0.01202  -0.01019  -0.00634
 Alpha virt. eigenvalues --   -0.00187   0.00451   0.01000   0.01205   0.01531
 Alpha virt. eigenvalues --    0.02072   0.02311   0.02542   0.02770   0.03003
 Alpha virt. eigenvalues --    0.03127   0.03465   0.03752   0.03982   0.04370
 Alpha virt. eigenvalues --    0.04893   0.05288   0.05634   0.05900   0.06116
 Alpha virt. eigenvalues --    0.06381   0.06821   0.07172   0.07380   0.08047
 Alpha virt. eigenvalues --    0.08195   0.08620   0.09042   0.09257   0.09533
 Alpha virt. eigenvalues --    0.10172   0.10394   0.10610   0.10775   0.11080
 Alpha virt. eigenvalues --    0.11335   0.11406   0.11504   0.12057   0.12292
 Alpha virt. eigenvalues --    0.12516   0.12708   0.12882   0.13120   0.13252
 Alpha virt. eigenvalues --    0.13341   0.13504   0.13552   0.13728   0.13799
 Alpha virt. eigenvalues --    0.14378   0.14568   0.14681   0.14962   0.15263
 Alpha virt. eigenvalues --    0.15396   0.15690   0.15908   0.16043   0.16327
 Alpha virt. eigenvalues --    0.16771   0.17053   0.17339   0.17816   0.18213
 Alpha virt. eigenvalues --    0.18508   0.18818   0.19155   0.19735   0.19808
 Alpha virt. eigenvalues --    0.19959   0.20107   0.20427   0.20555   0.21075
 Alpha virt. eigenvalues --    0.21432   0.21966   0.22022   0.22180   0.22373
 Alpha virt. eigenvalues --    0.23079   0.23273   0.23334   0.23702   0.23722
 Alpha virt. eigenvalues --    0.24034   0.24368   0.24616   0.25025   0.25312
 Alpha virt. eigenvalues --    0.25612   0.25816   0.25999   0.26066   0.26374
 Alpha virt. eigenvalues --    0.26828   0.27327   0.27605   0.27643   0.28066
 Alpha virt. eigenvalues --    0.28133   0.28658   0.29326   0.29500   0.29661
 Alpha virt. eigenvalues --    0.29914   0.30022   0.30449   0.30686   0.30956
 Alpha virt. eigenvalues --    0.31576   0.31757   0.32097   0.32500   0.33082
 Alpha virt. eigenvalues --    0.33145   0.33609   0.33811   0.34187   0.34510
 Alpha virt. eigenvalues --    0.34771   0.35028   0.35450   0.35688   0.36235
 Alpha virt. eigenvalues --    0.36908   0.37776   0.38017   0.38107   0.38420
 Alpha virt. eigenvalues --    0.38802   0.38885   0.39293   0.39954   0.40717
 Alpha virt. eigenvalues --    0.40810   0.41536   0.42804   0.43047   0.43870
 Alpha virt. eigenvalues --    0.44534   0.45014   0.45396   0.46631   0.47139
 Alpha virt. eigenvalues --    0.48278   0.50226   0.50540   0.51652   0.52322
 Alpha virt. eigenvalues --    0.53959   0.54651   0.58749   0.59803   0.61099
 Alpha virt. eigenvalues --    0.62305   0.63558   0.63887   0.64934   0.66329
 Alpha virt. eigenvalues --    0.67851   0.68187   0.68654   0.69190   0.70046
 Alpha virt. eigenvalues --    0.70442   0.70587   0.70943   0.71721   0.71890
 Alpha virt. eigenvalues --    0.72425   0.73329   0.73615   0.73798   0.74086
 Alpha virt. eigenvalues --    0.75198   0.75517   0.75916   0.76383   0.76673
 Alpha virt. eigenvalues --    0.77008   0.77604   0.78337   0.78711   0.79126
 Alpha virt. eigenvalues --    0.80193   0.80442   0.80665   0.81689   0.81919
 Alpha virt. eigenvalues --    0.82690   0.83346   0.84109   0.84201   0.85968
 Alpha virt. eigenvalues --    0.86188   0.86537   0.86960   0.87304   0.88387
 Alpha virt. eigenvalues --    0.88666   0.90394   0.91385   0.92140   0.92536
 Alpha virt. eigenvalues --    0.93842   0.94910   0.95487   0.96298   0.98151
 Alpha virt. eigenvalues --    0.98794   0.99370   0.99895   1.00149   1.00319
 Alpha virt. eigenvalues --    1.01062   1.01809   1.01968   1.02317   1.03195
 Alpha virt. eigenvalues --    1.03895   1.04346   1.05922   1.06860   1.07841
 Alpha virt. eigenvalues --    1.08051   1.09101   1.10004   1.10617   1.11847
 Alpha virt. eigenvalues --    1.12188   1.12646   1.13598   1.14136   1.15340
 Alpha virt. eigenvalues --    1.15446   1.16088   1.17397   1.17723   1.18989
 Alpha virt. eigenvalues --    1.19786   1.20347   1.20377   1.21308   1.21721
 Alpha virt. eigenvalues --    1.22679   1.23455   1.24739   1.24960   1.25726
 Alpha virt. eigenvalues --    1.26990   1.27734   1.28810   1.29381   1.30181
 Alpha virt. eigenvalues --    1.31266   1.31834   1.32754   1.34067   1.34831
 Alpha virt. eigenvalues --    1.35961   1.36658   1.37700   1.38229   1.39165
 Alpha virt. eigenvalues --    1.39786   1.40189   1.40861   1.41518   1.42424
 Alpha virt. eigenvalues --    1.42842   1.43566   1.44869   1.45765   1.47878
 Alpha virt. eigenvalues --    1.51043   1.51685   1.53665   1.54055   1.58502
 Alpha virt. eigenvalues --    1.58931   1.59932   1.62211   1.64108   1.64596
 Alpha virt. eigenvalues --    1.67398   1.69053   1.70362   1.72509   1.73605
 Alpha virt. eigenvalues --    1.73685   1.76089   1.76379   1.77740   1.78758
 Alpha virt. eigenvalues --    1.80240   1.81503   1.82611   1.82923   1.84022
 Alpha virt. eigenvalues --    1.84852   1.85546   1.86840   1.87014   1.88306
 Alpha virt. eigenvalues --    1.89194   1.90562   1.90763   1.91795   1.92285
 Alpha virt. eigenvalues --    1.92696   1.93362   1.94984   1.95347   1.95843
 Alpha virt. eigenvalues --    1.98856   2.00217   2.00960   2.01491   2.02728
 Alpha virt. eigenvalues --    2.03688   2.03993   2.04479   2.06130   2.08050
 Alpha virt. eigenvalues --    2.08495   2.11471   2.12372   2.13382   2.14131
 Alpha virt. eigenvalues --    2.15290   2.16596   2.17378   2.18223   2.19042
 Alpha virt. eigenvalues --    2.20138   2.20527   2.21427   2.23158   2.23494
 Alpha virt. eigenvalues --    2.25804   2.26567   2.28092   2.28970   2.29497
 Alpha virt. eigenvalues --    2.30457   2.30840   2.32966   2.34684   2.35266
 Alpha virt. eigenvalues --    2.37125   2.38519   2.39315   2.39935   2.40300
 Alpha virt. eigenvalues --    2.40814   2.41486   2.41865   2.43758   2.44348
 Alpha virt. eigenvalues --    2.45672   2.46598   2.47055   2.47356   2.48465
 Alpha virt. eigenvalues --    2.48997   2.51124   2.52422   2.52897   2.53576
 Alpha virt. eigenvalues --    2.54043   2.55443   2.55740   2.57121   2.57593
 Alpha virt. eigenvalues --    2.59069   2.59961   2.60155   2.60696   2.61599
 Alpha virt. eigenvalues --    2.62348   2.63462   2.65294   2.66127   2.68121
 Alpha virt. eigenvalues --    2.69563   2.70073   2.70288   2.72132   2.73037
 Alpha virt. eigenvalues --    2.74805   2.75890   2.76073   2.77373   2.79939
 Alpha virt. eigenvalues --    2.80873   2.83826   2.85360   2.86502   2.87796
 Alpha virt. eigenvalues --    2.89945   2.91633   2.95263   2.97253   2.99047
 Alpha virt. eigenvalues --    3.00108   3.04960   3.05762   3.10043   3.12890
 Alpha virt. eigenvalues --    3.14492   3.16802   3.20741   3.21609   3.27154
 Alpha virt. eigenvalues --    3.29638   3.31300   3.32715   3.34654   3.40253
 Alpha virt. eigenvalues --    3.42209   3.47584   3.51691   3.56685   3.59188
 Alpha virt. eigenvalues --    3.68953   3.86798   3.95963   4.12267   4.21689
 Alpha virt. eigenvalues --    4.26236   4.31753   4.33102   4.33999   4.35352
 Alpha virt. eigenvalues --    4.37235   4.38458   4.41277   4.43481   4.44053
 Alpha virt. eigenvalues --    4.47543   4.49029   4.52379   4.53480   4.55544
 Alpha virt. eigenvalues --    4.58410   4.59319   4.68694   4.73558   4.83282
 Alpha virt. eigenvalues --    4.90636
          Condensed to atoms (all electrons):
              1          2          3          4          5          6
     1  Si  13.144008   0.461148   0.356971   0.483552  -0.133560   0.060363
     2  H    0.461148   0.717755  -0.025223   0.032468   0.079397   0.008450
     3  H    0.356971  -0.025223   0.746472  -0.152188  -0.001238  -0.005281
     4  C    0.483552   0.032468  -0.152188  15.017683  -7.473893   0.298476
     5  C   -0.133560   0.079397  -0.001238  -7.473893  21.937297  -8.700333
     6  C    0.060363   0.008450  -0.005281   0.298476  -8.700333  23.607420
     7  C   -0.043720  -0.009273   0.001619  -1.132754   4.572353  -9.484101
     8  C   -0.118346   0.005489  -0.005908  -0.890161  -2.727133   2.312931
     9  C   -0.007125   0.000480   0.003107  -0.013374  -0.719850  -0.144800
    10  N    0.000163   0.000037  -0.000070  -0.002687   0.021834  -0.005715
    11  S    0.000011  -0.000001   0.000089   0.006202   0.003246   0.005319
    12  N   -0.000069   0.000026   0.000005  -0.000085   0.007481  -0.020310
    13  C    0.008293  -0.001776   0.003252  -0.090589  -0.158082   0.332283
    14  C    0.040788   0.013004   0.009848  -0.288159  -0.334422   1.064655
    15  C    0.011160   0.047370  -0.007248  -0.105803  -0.346191   0.590478
    16  C    0.063614  -0.087413   0.026128  -1.010723  -1.140411   1.719063
    17  C   -0.251980  -0.114181   0.118304   0.898591   0.715572  -3.423366
    18  C   -0.490159  -0.104955  -0.028090   0.340614   0.532533  -2.016996
    19  C    0.010892   0.000612  -0.000548   0.008737   0.209393  -0.229674
    20  C   -0.000784   0.000910  -0.000441   0.000536  -0.026977   0.043801
    21  C    0.000694   0.000335  -0.000264   0.002488   0.009200  -0.010316
    22  C    0.000355   0.000057  -0.000020   0.000531   0.001159  -0.001067
    23  C   -0.000009   0.000011  -0.000002   0.000006  -0.000015   0.000062
    24  C   -0.000003  -0.000007   0.000003  -0.000012   0.000037  -0.000150
    25  C   -0.000012  -0.000029   0.000033  -0.000154   0.001026  -0.001274
    26  C   -0.001124  -0.000220   0.000139  -0.000137   0.012625  -0.014988
    27  N   -0.000012   0.000073  -0.000090  -0.000586  -0.004847   0.001683
    28  H    0.000034  -0.000017   0.000008  -0.000649   0.000817  -0.002084
    29  H   -0.041603  -0.001061   0.006156   0.413726  -0.039447  -0.258609
    30  H    0.005721   0.000024   0.000001  -0.074453  -0.304001   0.778235
    31  H    0.001431  -0.000261  -0.000084  -0.049851   0.247474  -0.462193
    32  H   -0.020362   0.000551   0.000714   0.028524  -0.057495   0.026951
    33  H    0.084349  -0.048550   0.000376   0.189099  -0.382499   0.158358
    34  H   -0.000452   0.000073  -0.000017  -0.000755   0.000785   0.002516
    35  H    0.000006  -0.000003   0.000000   0.000003   0.000001  -0.000032
    36  H   -0.000000   0.000000  -0.000000   0.000000   0.000002   0.000001
    37  H    0.000000  -0.000000   0.000000  -0.000000   0.000000  -0.000003
    38  H    0.000000   0.000001  -0.000000   0.000011   0.000009   0.000054
              7          8          9         10         11         12
     1  Si  -0.043720  -0.118346  -0.007125   0.000163   0.000011  -0.000069
     2  H   -0.009273   0.005489   0.000480   0.000037  -0.000001   0.000026
     3  H    0.001619  -0.005908   0.003107  -0.000070   0.000089   0.000005
     4  C   -1.132754  -0.890161  -0.013374  -0.002687   0.006202  -0.000085
     5  C    4.572353  -2.727133  -0.719850   0.021834   0.003246   0.007481
     6  C   -9.484101   2.312931  -0.144800  -0.005715   0.005319  -0.020310
     7  C   16.908803  -2.684051   4.135855   0.225948   0.028114   0.122970
     8  C   -2.684051  20.672721  -1.055021  -0.225939   0.011886  -0.231035
     9  C    4.135855  -1.055021  16.512411   0.445869  -0.338050   0.622495
    10  N    0.225948  -0.225939   0.445869   7.496975  -0.020744  -0.162977
    11  S    0.028114   0.011886  -0.338050  -0.020744  15.731179  -0.128981
    12  N    0.122970  -0.231035   0.622495  -0.162977  -0.128981   7.563887
    13  C    0.522689   2.327392   3.015438   0.080402  -0.235374   0.407400
    14  C   -1.585437  -0.758613  -5.055880  -0.091112   0.032911  -0.541219
    15  C   -1.303604  -0.873373  -1.681059  -0.072661  -0.091088  -0.016148
    16  C   -4.952532   1.408239  -6.090536  -0.275125  -0.000619  -0.241918
    17  C   -0.083405  -5.350824  -2.839608  -0.044246   0.022227  -0.026755
    18  C    0.692688  -4.196292  -0.137658  -0.005358   0.005205   0.000101
    19  C    0.030308  -1.605091  -0.291042   0.014319   0.031731  -0.077458
    20  C   -0.144657  -0.141208  -0.880113   0.002697  -0.017683   0.044177
    21  C    0.009473  -0.127262  -0.177690   0.009667   0.010206   0.014577
    22  C    0.003152  -0.010789  -0.044424   0.002873  -0.001194  -0.005211
    23  C    0.000308   0.001870  -0.002825   0.000272   0.001032   0.003603
    24  C   -0.000103  -0.002094   0.008725  -0.000290  -0.000295  -0.006231
    25  C    0.007947   0.019309   0.117992  -0.002806   0.004338   0.005302
    26  C    0.014843  -0.091812   0.311537  -0.008527   0.038389   0.006431
    27  N    0.012322   0.031367   0.022053   0.007087  -0.004670  -0.022537
    28  H    0.008357   0.007552   0.026020  -0.000198  -0.000611  -0.001818
    29  H    0.075487  -0.046579  -0.003487  -0.000057   0.000036   0.000009
    30  H   -0.240491   0.070334  -0.005866  -0.000254   0.000311  -0.000222
    31  H    0.527909  -0.057166  -0.183826  -0.017557   0.000426  -0.002158
    32  H   -0.002847   0.197967   0.097388   0.001633  -0.000061  -0.001004
    33  H   -0.091075  -0.056170  -0.005175  -0.000141  -0.000017  -0.000058
    34  H   -0.009479   0.000232  -0.027694  -0.000956  -0.001062   0.003639
    35  H    0.000033  -0.000323   0.000877  -0.000024   0.000068  -0.000562
    36  H    0.000006   0.000026   0.000067   0.000000   0.000040   0.000142
    37  H    0.000002  -0.000024   0.000084   0.000001  -0.000021  -0.000201
    38  H   -0.000198  -0.000369  -0.002378   0.000000  -0.000180   0.000859
             13         14         15         16         17         18
     1  Si   0.008293   0.040788   0.011160   0.063614  -0.251980  -0.490159
     2  H   -0.001776   0.013004   0.047370  -0.087413  -0.114181  -0.104955
     3  H    0.003252   0.009848  -0.007248   0.026128   0.118304  -0.028090
     4  C   -0.090589  -0.288159  -0.105803  -1.010723   0.898591   0.340614
     5  C   -0.158082  -0.334422  -0.346191  -1.140411   0.715572   0.532533
     6  C    0.332283   1.064655   0.590478   1.719063  -3.423366  -2.016996
     7  C    0.522689  -1.585437  -1.303604  -4.952532  -0.083405   0.692688
     8  C    2.327392  -0.758613  -0.873373   1.408239  -5.350824  -4.196292
     9  C    3.015438  -5.055880  -1.681059  -6.090536  -2.839608  -0.137658
    10  N    0.080402  -0.091112  -0.072661  -0.275125  -0.044246  -0.005358
    11  S   -0.235374   0.032911  -0.091088  -0.000619   0.022227   0.005205
    12  N    0.407400  -0.541219  -0.016148  -0.241918  -0.026755   0.000101
    13  C   15.114201  -6.294758  -3.468385  -3.445251  -1.435535  -0.044309
    14  C   -6.294758  18.180543   1.905624  -1.220421  -0.442534   0.441087
    15  C   -3.468385   1.905624  13.024193   1.401886  -0.111965   0.719475
    16  C   -3.445251  -1.220421   1.401886  19.995702   2.658100  -2.809337
    17  C   -1.435535  -0.442534  -0.111965   2.658100  17.633734  -2.705488
    18  C   -0.044309   0.441087   0.719475  -2.809337  -2.705488  15.680797
    19  C    0.964593   0.719727  -2.191409  -0.210492   0.799133   0.250806
    20  C   -2.714627   1.552132   0.711444   0.195309   0.017423   0.005270
    21  C   -0.344740  -0.173301  -0.755010   0.101432   0.058557   0.016937
    22  C    0.018629  -0.054753  -0.304646   0.048295   0.018639   0.003847
    23  C    0.007296  -0.032337   0.006235  -0.001936  -0.000404  -0.000007
    24  C    0.054474  -0.036646  -0.037182   0.000956   0.000292   0.000089
    25  C    0.466679  -0.122163  -0.185305  -0.031722  -0.000357  -0.000360
    26  C    0.467820  -0.154431  -0.571923  -0.046078   0.021888   0.005328
    27  N    0.506392  -0.517036  -0.252137  -0.161091  -0.028880   0.003137
    28  H    0.062749  -0.044277  -0.044628  -0.022744  -0.003625  -0.000202
    29  H   -0.000581   0.003050   0.010811  -0.063375   0.030245   0.183539
    30  H    0.008702   0.008473   0.001905   0.060362  -0.011496  -0.022606
    31  H   -0.039158  -0.011514  -0.015944   0.167264   0.095739   0.022957
    32  H    0.093347  -0.010759   0.347042  -0.147000  -0.135766  -0.043276
    33  H   -0.006412  -0.014761  -0.027134   0.141124  -0.242131   0.410727
    34  H   -0.114896   0.014521   0.124707   0.036154   0.004444  -0.006260
    35  H    0.006943  -0.008803  -0.005406  -0.000476   0.000025   0.000080
    36  H   -0.000946   0.001204   0.000909   0.000090   0.000004  -0.000002
    37  H    0.002464  -0.002745  -0.001689  -0.000051   0.000006   0.000003
    38  H   -0.020430   0.015138   0.006656   0.001771   0.000139  -0.000018
             19         20         21         22         23         24
     1  Si   0.010892  -0.000784   0.000694   0.000355  -0.000009  -0.000003
     2  H    0.000612   0.000910   0.000335   0.000057   0.000011  -0.000007
     3  H   -0.000548  -0.000441  -0.000264  -0.000020  -0.000002   0.000003
     4  C    0.008737   0.000536   0.002488   0.000531   0.000006  -0.000012
     5  C    0.209393  -0.026977   0.009200   0.001159  -0.000015   0.000037
     6  C   -0.229674   0.043801  -0.010316  -0.001067   0.000062  -0.000150
     7  C    0.030308  -0.144657   0.009473   0.003152   0.000308  -0.000103
     8  C   -1.605091  -0.141208  -0.127262  -0.010789   0.001870  -0.002094
     9  C   -0.291042  -0.880113  -0.177690  -0.044424  -0.002825   0.008725
    10  N    0.014319   0.002697   0.009667   0.002873   0.000272  -0.000290
    11  S    0.031731  -0.017683   0.010206  -0.001194   0.001032  -0.000295
    12  N   -0.077458   0.044177   0.014577  -0.005211   0.003603  -0.006231
    13  C    0.964593  -2.714627  -0.344740   0.018629   0.007296   0.054474
    14  C    0.719727   1.552132  -0.173301  -0.054753  -0.032337  -0.036646
    15  C   -2.191409   0.711444  -0.755010  -0.304646   0.006235  -0.037182
    16  C   -0.210492   0.195309   0.101432   0.048295  -0.001936   0.000956
    17  C    0.799133   0.017423   0.058557   0.018639  -0.000404   0.000292
    18  C    0.250806   0.005270   0.016937   0.003847  -0.000007   0.000089
    19  C   11.757074  -2.027792  -2.087110  -1.619854  -0.104452   0.007659
    20  C   -2.027792  11.944654   2.073876   1.452670   0.061503  -0.163585
    21  C   -2.087110   2.073876  12.733507  -1.641456  -0.804048  -0.361643
    22  C   -1.619854   1.452670  -1.641456  10.515129   0.557607   0.020631
    23  C   -0.104452   0.061503  -0.804048   0.557607   5.792184   0.275340
    24  C    0.007659  -0.163585  -0.361643   0.020631   0.275340   5.638487
    25  C    0.501196  -1.737035  -2.604811   1.096066  -0.318399   0.866415
    26  C    2.002741  -5.390411  -1.106315  -4.391519   0.396480  -0.504416
    27  N   -0.267771   0.042548   0.394492   0.244043  -0.023603   0.052542
    28  H    0.037710  -0.035412   0.038443   0.025450  -0.003514   0.004604
    29  H    0.000880  -0.000067  -0.000016  -0.000001  -0.000000   0.000000
    30  H   -0.003293   0.000413  -0.000105  -0.000007   0.000000  -0.000001
    31  H    0.015352  -0.002060   0.000706   0.000088  -0.000002   0.000015
    32  H   -0.070006  -0.065203  -0.054052  -0.016514  -0.000275  -0.000799
    33  H   -0.001846   0.000750   0.000183   0.000027   0.000002  -0.000001
    34  H   -0.119281   0.343530   0.037087  -0.152520   0.017826  -0.015029
    35  H    0.011482  -0.099987   0.104211   0.156999  -0.046767   0.023082
    36  H    0.002503  -0.008620   0.000653  -0.023547   0.343059  -0.067153
    37  H   -0.013315   0.002822   0.012194   0.050759  -0.064983   0.353421
    38  H   -0.010425   0.041964   0.120422  -0.017303  -0.003147  -0.038268
             25         26         27         28         29         30
     1  Si  -0.000012  -0.001124  -0.000012   0.000034  -0.041603   0.005721
     2  H   -0.000029  -0.000220   0.000073  -0.000017  -0.001061   0.000024
     3  H    0.000033   0.000139  -0.000090   0.000008   0.006156   0.000001
     4  C   -0.000154  -0.000137  -0.000586  -0.000649   0.413726  -0.074453
     5  C    0.001026   0.012625  -0.004847   0.000817  -0.039447  -0.304001
     6  C   -0.001274  -0.014988   0.001683  -0.002084  -0.258609   0.778235
     7  C    0.007947   0.014843   0.012322   0.008357   0.075487  -0.240491
     8  C    0.019309  -0.091812   0.031367   0.007552  -0.046579   0.070334
     9  C    0.117992   0.311537   0.022053   0.026020  -0.003487  -0.005866
    10  N   -0.002806  -0.008527   0.007087  -0.000198  -0.000057  -0.000254
    11  S    0.004338   0.038389  -0.004670  -0.000611   0.000036   0.000311
    12  N    0.005302   0.006431  -0.022537  -0.001818   0.000009  -0.000222
    13  C    0.466679   0.467820   0.506392   0.062749  -0.000581   0.008702
    14  C   -0.122163  -0.154431  -0.517036  -0.044277   0.003050   0.008473
    15  C   -0.185305  -0.571923  -0.252137  -0.044628   0.010811   0.001905
    16  C   -0.031722  -0.046078  -0.161091  -0.022744  -0.063375   0.060362
    17  C   -0.000357   0.021888  -0.028880  -0.003625   0.030245  -0.011496
    18  C   -0.000360   0.005328   0.003137  -0.000202   0.183539  -0.022606
    19  C    0.501196   2.002741  -0.267771   0.037710   0.000880  -0.003293
    20  C   -1.737035  -5.390411   0.042548  -0.035412  -0.000067   0.000413
    21  C   -2.604811  -1.106315   0.394492   0.038443  -0.000016  -0.000105
    22  C    1.096066  -4.391519   0.244043   0.025450  -0.000001  -0.000007
    23  C   -0.318399   0.396480  -0.023603  -0.003514  -0.000000   0.000000
    24  C    0.866415  -0.504416   0.052542   0.004604   0.000000  -0.000001
    25  C    8.398499   0.155179  -0.147468   0.009166   0.000001  -0.000013
    26  C    0.155179  16.012884  -0.281880  -0.091752   0.000027  -0.000144
    27  N   -0.147468  -0.281880   7.289025   0.271078  -0.000012   0.000005
    28  H    0.009166  -0.091752   0.271078   0.443578  -0.000002  -0.000027
    29  H    0.000001   0.000027  -0.000012  -0.000002   0.592884  -0.011460
    30  H   -0.000013  -0.000144   0.000005  -0.000027  -0.011460   0.604841
    31  H    0.000184   0.001061  -0.000162   0.000140   0.001588  -0.017002
    32  H    0.007082   0.026743  -0.008281  -0.000388  -0.000293   0.000329
    33  H   -0.000015  -0.000127   0.000084  -0.000013  -0.012466   0.007545
    34  H   -0.035245   0.106200   0.010820  -0.001031  -0.000007   0.000026
    35  H   -0.013292   0.134734   0.000982   0.000693   0.000000  -0.000000
    36  H    0.018558   0.039346  -0.001996   0.000132  -0.000000   0.000000
    37  H    0.012086  -0.055319   0.002212   0.000818   0.000000  -0.000000
    38  H    0.200716  -0.008413  -0.024835  -0.006621  -0.000000   0.000001
             31         32         33         34         35         36
     1  Si   0.001431  -0.020362   0.084349  -0.000452   0.000006  -0.000000
     2  H   -0.000261   0.000551  -0.048550   0.000073  -0.000003   0.000000
     3  H   -0.000084   0.000714   0.000376  -0.000017   0.000000  -0.000000
     4  C   -0.049851   0.028524   0.189099  -0.000755   0.000003   0.000000
     5  C    0.247474  -0.057495  -0.382499   0.000785   0.000001   0.000002
     6  C   -0.462193   0.026951   0.158358   0.002516  -0.000032   0.000001
     7  C    0.527909  -0.002847  -0.091075  -0.009479   0.000033   0.000006
     8  C   -0.057166   0.197967  -0.056170   0.000232  -0.000323   0.000026
     9  C   -0.183826   0.097388  -0.005175  -0.027694   0.000877   0.000067
    10  N   -0.017557   0.001633  -0.000141  -0.000956  -0.000024   0.000000
    11  S    0.000426  -0.000061  -0.000017  -0.001062   0.000068   0.000040
    12  N   -0.002158  -0.001004  -0.000058   0.003639  -0.000562   0.000142
    13  C   -0.039158   0.093347  -0.006412  -0.114896   0.006943  -0.000946
    14  C   -0.011514  -0.010759  -0.014761   0.014521  -0.008803   0.001204
    15  C   -0.015944   0.347042  -0.027134   0.124707  -0.005406   0.000909
    16  C    0.167264  -0.147000   0.141124   0.036154  -0.000476   0.000090
    17  C    0.095739  -0.135766  -0.242131   0.004444   0.000025   0.000004
    18  C    0.022957  -0.043276   0.410727  -0.006260   0.000080  -0.000002
    19  C    0.015352  -0.070006  -0.001846  -0.119281   0.011482   0.002503
    20  C   -0.002060  -0.065203   0.000750   0.343530  -0.099987  -0.008620
    21  C    0.000706  -0.054052   0.000183   0.037087   0.104211   0.000653
    22  C    0.000088  -0.016514   0.000027  -0.152520   0.156999  -0.023547
    23  C   -0.000002  -0.000275   0.000002   0.017826  -0.046767   0.343059
    24  C    0.000015  -0.000799  -0.000001  -0.015029   0.023082  -0.067153
    25  C    0.000184   0.007082  -0.000015  -0.035245  -0.013292   0.018558
    26  C    0.001061   0.026743  -0.000127   0.106200   0.134734   0.039346
    27  N   -0.000162  -0.008281   0.000084   0.010820   0.000982  -0.001996
    28  H    0.000140  -0.000388  -0.000013  -0.001031   0.000693   0.000132
    29  H    0.001588  -0.000293  -0.012466  -0.000007   0.000000  -0.000000
    30  H   -0.017002   0.000329   0.007545   0.000026  -0.000000   0.000000
    31  H    0.600935  -0.001326  -0.001058  -0.000006   0.000001   0.000000
    32  H   -0.001326   0.656486  -0.003230   0.000385  -0.000289   0.000032
    33  H   -0.001058  -0.003230   0.706045  -0.000027   0.000001   0.000000
    34  H   -0.000006   0.000385  -0.000027   0.643035  -0.003830   0.001373
    35  H    0.000001  -0.000289   0.000001  -0.003830   0.646547  -0.015550
    36  H    0.000000   0.000032   0.000000   0.001373  -0.015550   0.625742
    37  H    0.000000  -0.000047  -0.000000  -0.000456  -0.002013  -0.013698
    38  H   -0.000005   0.000055   0.000000   0.000599   0.000927  -0.003284
             37         38
     1  Si   0.000000   0.000000
     2  H   -0.000000   0.000001
     3  H    0.000000  -0.000000
     4  C   -0.000000   0.000011
     5  C    0.000000   0.000009
     6  C   -0.000003   0.000054
     7  C    0.000002  -0.000198
     8  C   -0.000024  -0.000369
     9  C    0.000084  -0.002378
    10  N    0.000001   0.000000
    11  S   -0.000021  -0.000180
    12  N   -0.000201   0.000859
    13  C    0.002464  -0.020430
    14  C   -0.002745   0.015138
    15  C   -0.001689   0.006656
    16  C   -0.000051   0.001771
    17  C    0.000006   0.000139
    18  C    0.000003  -0.000018
    19  C   -0.013315  -0.010425
    20  C    0.002822   0.041964
    21  C    0.012194   0.120422
    22  C    0.050759  -0.017303
    23  C   -0.064983  -0.003147
    24  C    0.353421  -0.038268
    25  C    0.012086   0.200716
    26  C   -0.055319  -0.008413
    27  N    0.002212  -0.024835
    28  H    0.000818  -0.006621
    29  H    0.000000  -0.000000
    30  H   -0.000000   0.000001
    31  H    0.000000  -0.000005
    32  H   -0.000047   0.000055
    33  H   -0.000000   0.000000
    34  H   -0.000456   0.000599
    35  H   -0.002013   0.000927
    36  H   -0.013698  -0.003284
    37  H    0.624828  -0.013075
    38  H   -0.013075   0.648888
 Mulliken atomic charges:
              1
     1  Si   0.375767
     2  H    0.024695
     3  H   -0.046514
     4  C   -0.434235
     5  C    0.198151
     6  C   -0.229808
     7  C   -0.133456
     8  C    0.188267
     9  C    0.387083
    10  N   -0.372333
    11  S    0.907685
[...]
 489308,0.00182743,-0.00074448,-0.00003276,-0.00012463,-0.00001557,-0.0
 0001575,0.00003629,-0.00007998,-0.00011405,0.00097994,0.00032044,0.001
 37667,-0.00594534,0.00196085,0.00068241,-0.00274041,0.00015501,-0.0044
 9901,0.00117095,0.00001104,-0.00064117,0.00000639,-0.00000086,-0.00000
 101,0.00000445,-0.00000151,0.00000056,0.00001027,-0.00000060,0.0000001
 1,-0.00191280,0.00046637,-0.00030121,-0.00002016,-0.00001224,0.0000227
 9,0.07412283,0.00006558,0.00003617,-0.00002917,-0.00000613,-0.00001473
 ,0.00000366,-0.00000997,-0.00001856,0.00000972,-0.00002337,-0.00002444
 ,0.00000682,0.00000548,-0.00003155,0.00002191,-0.00000858,-0.00000240,
 -0.00001640,0.00000838,0.00007841,0.00000757,0.00002966,-0.00006450,-0
 .00002100,0.00002243,0.00005782,-0.00001719,-0.00001952,0.00000295,-0.
 00001262,0.00001766,0.00001966,0.00003251,-0.00004554,-0.00005375,-0.0
 0000291,-0.00007374,-0.00007248,0.00000987,-0.00039569,-0.00263951,0.0
 0052399,0.00016625,-0.00009858,-0.00012381,-0.00005232,-0.00034431,0.0
 0022603,-0.00000165,0.00003010,-0.00000409,-0.00002769,0.00002534,-0.0
 0001078,0.00080963,-0.00112568,0.00006210,0.03048917,-0.05691964,-0.09
 286221,-0.00067705,-0.00099818,-0.00508841,-0.00071078,-0.00166936,0.0
 0063979,0.00005971,-0.00017248,0.00001546,-0.00003287,-0.00019021,0.00
 012222,-0.00013762,0.00052721,-0.00049369,0.00170246,0.00261249,-0.000
 99509,0.00060900,0.00400253,-0.00094692,0.00049539,0.00200530,-0.00046
 783,-0.00000931,-0.00000346,-0.00000598,-0.00000049,-0.00000121,0.0000
 0054,0.00000686,0.00000643,-0.00000122,0.00043221,0.00114484,0.0000377
 3,-0.00000312,0.00000415,0.00002477,-0.03311734,0.05346054,-0.00002914
 ,0.00001365,0.00004614,-0.00000044,-0.00000011,-0.00001247,0.00000341,
 0.00000040,-0.00001056,0.00002723,0.00000695,-0.00002057,0.00002330,0.
 00000283,-0.00001449,-0.00002320,-0.00000083,-0.00000929,0.00000618,-0
 .00000534,0.00006948,0.00011415,-0.00000560,-0.00004572,0.00007966,-0.
 00004589,-0.00002492,-0.00008470,0.00001014,-0.00002453,0.00008673,0.0
 0002301,0.00018494,-0.00017478,0.00005877,-0.00000297,-0.00029251,0.00
 001291,-0.00027487,0.00121908,0.00054986,-0.00021734,0.00016938,-0.000
 08743,-0.00042313,0.00007464,0.00023209,0.00046786,-0.00009787,-0.0000
 2218,0.00002014,0.00003094,-0.00000508,-0.00000161,0.01061487,-0.00508
 203,-0.01169988,0.07061548,-0.09217879,-0.30159632,-0.00126231,-0.0000
 4033,-0.00070365,-0.00000565,0.00063581,0.00022801,0.00028355,-0.00006
 252,-0.00018375,0.00008552,0.00010363,0.00017643,-0.00028472,-0.000186
 29,-0.00016628,-0.00017837,-0.00080733,0.00016481,-0.00264883,-0.00130
 903,-0.00214814,0.00087432,-0.00080849,0.00006554,0.00000853,0.0000012
 4,0.00000033,0.00000504,-0.00000032,-0.00000020,0.00001855,-0.00000649
 ,0.00000237,-0.00013357,-0.00014562,0.00096018,-0.00000184,0.00000020,
 0.00000504,-0.07963962,0.09939453,0.31516743,-0.00001879,0.00001127,-0
 .00000223,0.00000277,-0.00000095,0.00000175,0.00000303,-0.00000225,0.0
 0000081,0.00000546,0.00000475,0.00000711,0.00000926,-0.00000111,-0.000
 00229,-0.00000045,-0.00000037,0.00000187,0.00000199,0.00000292,0.00000
 397,0.00000157,-0.00000202,-0.00000329,0.00002247,-0.00001182,-0.00001
 301,-0.00004199,0.00000961,0.00000375,0.00001857,0.00001173,0.00006074
 ,-0.00011063,0.00000837,-0.00006201,0.00000863,-0.00001187,-0.00006953
 ,0.00001260,0.00002729,0.00003877,-0.00002427,-0.00000258,-0.00001678,
 0.00000092,0.00001043,0.00001435,-0.00001189,-0.00000566,-0.00000481,0
 .00000767,0.00000041,0.00000007,0.00021050,-0.00020564,-0.00035870,0.0
 0164601,-0.00064364,0.00084910,0.00321331,-0.00773058,-0.02754365,-0.0
 6068214,-0.00195706,-0.02461826,0.00690765,0.00640085,0.02538915,-0.00
 363134,0.00268652,0.00172106,-0.00114662,0.00006381,-0.00004399,-0.004
 02660,0.00162082,-0.00126014,-0.00044718,-0.00040932,-0.00172384,-0.00
 031422,0.00011841,0.00009203,0.00000148,0.00000063,0.00000169,0.000000
 61,0.00000015,0.00000035,0.00000216,-0.00000031,0.00000061,-0.00000682
 ,-0.00000169,0.00000822,-0.00000621,-0.00000575,0.00000391,-0.00040713
 ,0.00024299,0.00038873,0.05771101,0.00001433,0.00000696,-0.00001072,-0
 .00000227,-0.00000139,0.00000392,-0.00000220,-0.00000324,0.00000306,-0
 .00000363,-0.00000206,0.00000545,0.00000605,-0.00000699,-0.00000046,-0
 .00000810,0.00000044,-0.00000342,0.00000066,0.00000315,0.00000391,-0.0
 0000498,0.00000662,0.00000221,-0.00000338,-0.00001960,-0.00000002,-0.0
 0000839,0.00000583,-0.00000015,0.00000421,-0.00000062,-0.00000353,-0.0
 0000380,-0.00001138,0.00000695,-0.00000757,0.00002167,-0.00000693,0.00
 009642,0.00008031,-0.00003078,-0.00003084,-0.00001612,0.00002075,0.000
 02475,0.00003524,-0.00001203,-0.00001407,-0.00000892,-0.00000653,-0.00
 000294,0.00001033,0.00000186,-0.00020355,-0.00025706,-0.00000082,-0.00
 058733,-0.00253380,0.00088226,0.00017445,0.00352686,0.00158394,-0.0015
 3829,-0.05538064,-0.07356359,-0.00181583,0.00113665,-0.00908575,0.0030
 0476,0.00657315,-0.00212494,0.00000666,-0.00064572,0.00030902,0.001360
 36,0.00562048,-0.00102031,0.00000754,-0.00008341,0.00017129,0.00007225
 ,0.00020703,-0.00002862,-0.00000233,-0.00000090,0.00000083,-0.00000073
 ,0.00000132,-0.00000026,-0.00000063,-0.00000033,-0.00000068,0.00000050
 ,-0.00001657,-0.00000165,-0.00000129,0.00000051,0.00000216,-0.00009001
 ,0.00016106,-0.00013897,0.00076265,0.04667113,-0.00001134,-0.00003827,
 -0.00001979,0.00000141,0.00001671,0.00001459,0.00000310,0.00001229,0.0
 0000293,0.00000914,0.00001576,0.00002108,0.00004299,-0.00002107,-0.000
 01507,-0.00003110,0.00000575,-0.00001328,-0.00000227,0.00000446,0.0000
 1948,-0.00001945,0.00000239,0.00000780,0.00001285,0.00000199,-0.000020
 19,-0.00006054,0.00001055,0.00000144,0.00002760,0.00000240,0.00003334,
 -0.00008171,0.00001454,-0.00003477,-0.00003009,-0.00001775,-0.00004760
 ,0.00026106,-0.00006925,0.00002850,-0.00011169,0.00004001,0.00003476,0
 .00006901,-0.00001922,0.00000671,-0.00007040,0.00000023,-0.00004533,0.
 00000181,0.00002008,0.00001928,-0.00036072,-0.00000483,-0.00055028,0.0
 0101644,0.00084469,0.00084728,0.00070529,-0.00386158,-0.01026194,-0.02
 309959,-0.07391862,-0.31526027,-0.00405367,-0.00335372,-0.01147648,0.0
 0285123,-0.00235474,0.00131518,-0.00021370,0.00033852,0.00032918,-0.00
 220251,-0.00083063,0.00172226,-0.00018065,-0.00011154,-0.00068255,-0.0
 0011321,0.00000200,0.00018103,0.00000067,-0.00000125,0.00000682,-0.000
 00279,0.00000092,0.00000014,-0.00000037,-0.00000012,-0.00000216,0.0000
 0730,-0.00000011,-0.00001130,-0.00000658,-0.00000722,0.00000749,-0.000
 70266,0.00007677,-0.00002729,0.02598916,0.08176692,0.33418060,0.000012
 77,-0.00004524,-0.00002527,-0.00000223,0.00001735,0.00001604,-0.000000
 75,0.00001284,0.00000411,0.00000288,0.00001197,0.00001974,0.00003970,-
 0.00002386,-0.00001325,-0.00003339,0.00000505,-0.00001895,-0.00000766,
 0.00000614,0.00001990,-0.00001869,0.00000571,0.00001071,-0.00001011,-0
 .00000074,-0.00001884,-0.00005797,0.00001082,-0.00000139,0.00001612,-0
 .00000299,-0.00000385,-0.00002153,-0.00000113,-0.00000913,-0.00004409,
 0.00001513,0.00001675,0.00022695,-0.00010603,-0.00006604,-0.00010266,0
 .00002936,0.00003188,0.00008139,-0.00001396,-0.00000717,-0.00007020,-0
 .00000015,-0.00004970,-0.00000590,0.00002608,0.00002145,-0.00060984,0.
 00010335,0.00032220,-0.00023582,-0.00009489,-0.00105988,-0.00199311,0.
 00286484,0.00359895,-0.01828841,0.00018413,-0.01359728,-0.27991685,0.0
 1582581,-0.11376013,0.00127153,0.00047095,0.00147192,0.00170800,0.0006
 2147,-0.00023000,0.00014182,0.00004153,0.00062275,0.00023771,-0.000142
 81,-0.00020225,0.00003223,0.00000344,0.00003604,-0.00000179,-0.0000026
 8,0.00000638,-0.00000440,0.00000182,-0.00000029,-0.00000201,0.00000016
 ,-0.00000309,0.00001291,-0.00000638,-0.00001430,-0.00000263,-0.0000030
 7,0.00000578,-0.00003429,0.00003850,0.00003446,0.00081656,-0.00091508,
 0.00049319,0.29623809,0.00000407,0.00001471,0.00000086,-0.00000063,-0.
 00000500,-0.00000231,-0.00000111,-0.00000458,0.00000051,-0.00000157,-0
 .00000229,-0.00000310,-0.00000712,0.00000074,0.00000440,0.00000588,0.0
 0000160,0.00000143,-0.00000051,-0.00000557,-0.00000179,0.00000254,-0.0
 0000431,-0.00000191,0.00000520,0.00001797,0.00000300,0.00000620,-0.000
 00766,0.00000279,0.00000415,0.00000668,0.00000388,-0.00000519,-0.00001
 335,0.00000371,0.00002087,0.00001640,-0.00001642,-0.00007195,-0.000175
 27,0.00009717,0.00001322,0.00000859,-0.00000785,-0.00001252,-0.0000055
 7,0.00000327,0.00001082,0.00000395,0.00000812,-0.00000031,-0.00000572,
 -0.00000322,0.00006948,-0.00059003,0.00008074,0.00025915,0.00082944,0.
 00017307,0.00264453,0.00624086,-0.00309312,0.00844981,0.00208411,0.005
 01291,0.01576239,-0.03652548,-0.00053618,-0.00786176,0.00216782,-0.003
 32005,0.00089976,0.00430944,-0.00276143,0.00014358,-0.00058511,-0.0001
 8281,-0.00011230,-0.00016713,0.00013492,0.00002035,-0.00000278,-0.0000
 0657,-0.00000037,-0.00000012,-0.00000114,0.00000076,0.00000042,-0.0000
 0003,0.00000103,0.00000162,-0.00000016,-0.00000316,0.00000094,0.000003
 15,0.00000099,0.00000116,-0.00000013,0.00002519,0.00009727,-0.00003814
 ,-0.00110947,-0.00405335,0.00136179,-0.01826074,0.02872892,0.00000330,
 -0.00001113,-0.00000253,-0.00000032,0.00000383,0.00000245,-0.00000021,
 0.00000318,0.00000010,0.00000004,0.00000284,0.00000322,0.00000837,-0.0
 0000392,-0.00000077,-0.00000228,0.00000042,-0.00000381,-0.00000253,0.0
 0000175,0.00000411,-0.00000011,-0.00000092,-0.00000214,-0.00000088,-0.
 00000276,0.00000721,-0.00001506,0.00000546,0.00000205,0.00002123,-0.00
 000111,0.00002038,-0.00002710,0.00000807,-0.00000597,0.00002190,-0.000
 01607,-0.00002985,0.00003829,0.00007496,0.00008195,-0.00002120,0.00000
 281,0.00000754,0.00001695,0.00000118,0.00000045,-0.00001430,0.00000045
 ,-0.00000335,-0.00000260,0.00000458,0.00000325,0.00024387,0.00009930,-
 0.00007491,0.00016032,-0.00005994,0.00071215,0.00284473,-0.00295730,-0
 .00096733,0.01596406,-0.00070772,0.01079998,-0.11405762,-0.00046252,-0
 .11374987,-0.02826788,0.00243388,-0.00927522,0.00075844,-0.00295390,-0
 .00476476,0.00096547,-0.00023979,-0.00069977,-0.00009036,0.00011504,0.
 00012168,0.00009239,-0.00001934,0.00000416,0.00000013,-0.00000103,0.00
 000124,-0.00000145,0.00000027,0.00000015,0.00000050,-0.00000067,-0.000
 00072,-0.00000346,0.00000036,0.00000170,0.00000023,0.00000039,0.000000
 58,-0.00001213,-0.00002816,0.00000295,-0.00016981,0.00148388,0.0005477
 9,0.12240896,0.00224859,0.11713794,0.00001551,-0.00003135,-0.00001390,
 -0.00000249,0.00001131,0.00000962,-0.00000173,0.00000865,0.00000217,-0
 .00000083,0.00000564,0.00001116,0.00002072,-0.00001499,-0.00000865,-0.
 00002315,0.00000305,-0.00000869,-0.00000270,0.00000354,0.00001230,-0.0
 0001466,0.00000288,0.00001415,-0.00000759,-0.00000237,-0.00002358,-0.0
 0006643,0.00001322,0.00000493,0.00000995,0.00000213,0.00001189,-0.0000
 3795,-0.00000174,-0.00003238,0.00001458,-0.00000258,0.00000099,0.00013
 134,-0.00006874,0.00018121,-0.00008544,0.00001555,-0.00000770,0.000038
 33,0.00001665,0.00000440,-0.00004288,-0.00000221,-0.00003864,-0.000006
 56,0.00001855,0.00001468,-0.00039127,-0.00017141,-0.00069315,0.0003357
 6,-0.00004757,0.00022139,-0.00020771,-0.00025983,-0.00050690,0.0014931
 1,0.00043927,-0.00110505,0.00512937,-0.00142125,-0.00308493,-0.2458060
 5,0.07219373,0.11130283,-0.01815561,0.00835374,0.01542079,-0.00276327,
 0.00067560,-0.00432382,-0.00078624,0.00075595,0.00129348,0.00008060,0.
 00003719,0.00010311,-0.00000176,-0.00000172,0.00000416,-0.00000337,0.0
 0000163,0.,-0.00000157,0.00000015,-0.00000246,0.00000726,-0.00000764,-
 0.00000793,-0.00000040,-0.00000025,0.00000294,-0.00002561,0.00001915,0
 .00002927,0.00013782,-0.00002942,-0.00021592,0.00065126,-0.00059577,0.
 00055662,0.25949371,-0.00000195,0.00001577,0.00000279,0.00000031,-0.00
 000468,-0.00000248,0.00000012,-0.00000450,0.00000002,0.00000047,-0.000
 00173,-0.00000081,-0.00000705,-0.00000888,0.00000490,0.00000647,-0.000
 00368,0.00000282,-0.00000079,-0.00000167,-0.00000271,0.00000611,-0.000
 00250,-0.00000108,0.00000270,-0.00000094,0.00000412,0.00001455,-0.0000
 0556,-0.00000077,-0.00000278,0.00000699,-0.00000207,0.00000482,-0.0000
 2231,0.00000925,0.00000242,0.00001236,-0.00000039,-0.00013209,-0.00042
 890,0.00011089,0.00001635,-0.00001946,-0.00000782,-0.00000274,0.000094
 26,-0.00001604,0.00001185,-0.00000394,0.00000378,0.00000105,-0.0000000
 5,-0.00000282,-0.00001104,-0.00018776,0.00012556,-0.00005522,-0.000186
 28,0.00005272,-0.00039492,-0.00071947,0.00018786,0.00015974,0.00459311
 ,-0.00264657,0.00683200,0.00010962,-0.00278389,0.07235336,-0.06096400,
 -0.04693187,0.00021198,0.00248058,-0.00077603,0.00084644,0.00638909,-0
 .00132106,0.00027554,0.00109221,-0.00030692,0.00001552,0.00013430,-0.0
 0005717,-0.00000024,0.00000108,-0.00000144,0.00000114,0.00000190,-0.00
 000068,0.00000073,0.00000096,0.00000047,-0.00000792,-0.00002191,0.0000
 0818,-0.00000047,-0.00000045,-0.00000095,0.00000012,0.00002751,-0.0000
 1175,0.00039024,0.00015523,-0.00022999,-0.00079235,-0.00280250,0.00099
 008,-0.07889483,0.05427969,-0.00000849,0.00000719,0.00000416,0.0000010
 9,-0.00000242,-0.00000229,0.00000125,-0.00000183,-0.00000075,0.0000008
 4,-0.00000071,-0.00000232,-0.00000622,0.00000647,-0.00000049,0.0000041
 3,0.00000063,0.00000305,0.00000047,-0.00000057,-0.00000190,0.00000365,
 0.00000016,0.00000231,0.00000098,0.00000033,0.00000147,0.00000927,-0.0
 0000102,0.00000025,-0.00001029,0.00000029,0.00000014,0.00000982,0.0000
 0276,-0.00000652,0.00000807,-0.00000192,0.00001032,-0.00002490,0.00015
 245,0.00004466,0.00000214,-0.00000436,-0.00003312,-0.00002588,-0.00001
 985,0.00001761,0.00000774,-0.00000222,-0.00000015,0.00000535,-0.000004
 36,-0.00000253,-0.00016815,0.00002621,-0.00025624,0.00017633,0.0000638
 6,0.00013451,-0.00095988,0.00026780,-0.00054416,-0.00209933,-0.0024538
 7,-0.00483128,0.02636157,-0.00847125,-0.00982836,0.11192545,-0.0470720
 2,-0.12459775,-0.01372483,0.00486976,0.01062945,-0.00364978,-0.0014546
 7,-0.00077087,-0.00042582,0.00002524,0.00102045,-0.00000759,-0.0000386
 6,0.00001359,0.00000074,0.00000086,-0.00000064,0.00000095,-0.00000094,
 0.00000013,0.00000007,-0.00000009,0.00000067,-0.00000452,0.00000859,0.
 00000377,-0.00000143,-0.00000115,0.00000037,-0.00003695,0.00000232,0.0
 0001202,0.00128440,-0.00051899,-0.00067132,-0.00014483,0.00113836,0.00
 070099,-0.11923590,0.05218129,0.12838624,0.00000456,0.00000899,0.00000
 344,-0.00000121,-0.00000388,-0.00000329,-0.00000097,-0.00000302,-0.000
 00046,-0.00000222,-0.00000658,-0.00000760,-0.00000461,0.00000194,0.000
 00687,-0.00000333,0.00000182,-0.00000097,0.00000567,-0.00000703,-0.000
 00936,-0.00001129,0.00000403,-0.00000642,-0.00001573,0.00000485,-0.000
 00017,0.00002896,-0.00001214,-0.00001200,-0.00007891,0.00000750,-0.000
 05856,0.00005229,-0.00002033,-0.00002942,0.00001377,0.00000551,0.00007
 069,0.00010766,-0.00003621,-0.00008688,-0.00005643,0.00003408,0.000068
 23,0.00003879,-0.00000977,-0.00001340,0.00000762,0.00000629,0.00001556
 ,0.,-0.00000550,-0.00000713,-0.00015021,0.00012389,0.00061558,0.000047
 81,0.00032092,0.00131899,-0.00349504,0.00201854,0.00085450,-0.00122681
 ,0.00015354,0.00008148,-0.00433836,0.00172374,-0.00201722,0.00367732,-
 0.00789965,-0.02748892,-0.05990116,0.00023869,-0.01769770,0.00696452,0
 .00640278,0.02549070,0.00226054,-0.00130942,-0.00107474,-0.00059246,0.
 00011311,-0.00019062,-0.00000097,0.00000123,-0.00000215,0.00000163,-0.
 00000055,-0.00000038,-0.00000341,0.00000171,0.00000071,0.00000547,-0.0
 0000687,-0.00001659,0.00000190,0.00000161,-0.00000200,-0.00039851,0.00
 013226,0.00006452,0.00013423,-0.00025894,0.00007872,-0.00002558,-0.000
 30546,-0.00141650,0.00087594,-0.00084966,0.00073050,0.05607854,-0.0000
 0323,0.00001576,-0.00000319,0.00000058,-0.00000453,-0.00000033,0.,-0.0
 0000494,0.00000196,-0.00000021,0.00000094,0.00000069,-0.00000853,-0.00
 000226,0.00000277,0.00001224,0.00000628,0.00000257,-0.00000386,-0.0000
 1212,0.00000206,0.00001328,0.00001052,-0.00000303,0.00001520,-0.000001
 38,0.00000241,-0.00000292,-0.00001089,0.00000783,0.00004378,0.00003180
 ,0.00002569,-0.00002601,-0.00000788,0.00002941,-0.00001651,-0.00004238
 ,-0.00002966,-0.00010696,0.00007370,0.00000142,0.00006728,0.00001881,-
 0.00004360,-0.00003340,0.00001845,0.00000106,0.00001167,-0.00000919,0.
 00000695,0.00000139,-0.00000347,-0.00000241,0.00015153,-0.00050479,-0.
 00015184,-0.00011843,-0.00029140,-0.00036816,0.00237755,0.00489308,-0.
 00129787,0.00024603,-0.00053708,0.00024200,0.00139500,0.00688031,-0.00
 123772,0.00022376,0.00301177,0.00170269,-0.00007879,-0.05422997,-0.075
 77127,-0.00187198,0.00114619,-0.00926219,-0.00108030,-0.00223653,0.001
 39530,0.00036563,0.00003391,-0.00012658,0.00000013,-0.00000080,-0.0000
 0048,0.00000063,0.00000017,0.00000042,0.00000290,0.00000206,-0.0000005
 9,-0.00000494,-0.00000646,0.00001172,0.00000015,0.00000015,0.00000042,
 0.00017932,0.00014524,-0.00005744,-0.00027174,-0.00118188,0.00030115,0
 .00011567,0.00042317,-0.00001503,-0.00102388,-0.00400349,0.00129634,-0
 .00057203,0.04637911,-0.00002280,0.00002647,0.00000884,0.00000465,-0.0
 0000904,-0.00000653,0.00000273,-0.00000672,-0.00000123,0.00000242,0.00
 000005,-0.00000269,-0.00002365,0.00001353,0.00000446,0.00003513,-0.000
 00460,0.00001573,-0.00000107,0.00000020,-0.00000874,0.00002903,-0.0000
 0964,-0.00000588,0.00003613,-0.00000535,0.00000609,0.00002040,0.000002
 11,0.00000808,0.00006394,-0.00000211,0.00007968,-0.00005285,0.00002595
 ,0.00004978,-0.00001277,-0.00000569,-0.00008248,-0.00033770,0.00004979
 ,-0.00000718,0.00016728,-0.00005880,-0.00006968,-0.00009567,0.00001094
 ,0.00000747,0.00004639,-0.00000073,0.00002523,0.00000513,-0.00001567,-
 0.00000946,0.00072971,-0.00017925,-0.00055502,-0.00023863,-0.00006339,
 -0.00059988,0.00212978,-0.00155885,0.00162293,0.00043208,0.00017643,0.
 00037276,-0.00321365,-0.00100337,0.00171874,0.00157263,-0.00391335,-0.
 01034478,-0.01873302,-0.07564940,-0.31614777,-0.00414618,-0.00345187,-
 0.01191850,-0.00038130,0.00126551,0.00142315,0.00077859,-0.00031075,-0
 .00043042,0.00000268,0.00000062,-0.00000253,0.00000221,-0.00000089,0.0
 0000057,0.00000598,-0.00000176,0.00000198,-0.00000768,0.00000999,0.000
 02166,-0.00000053,-0.00000108,-0.00000292,0.00023586,-0.00009083,0.000
 03429,0.00003074,0.00031073,-0.00018808,0.00008443,-0.00030629,-0.0005
 8302,0.00010757,0.00142060,0.00056451,0.02074200,0.08333654,0.33500082
 \\0.00000310,-0.00002334,-0.00001697,-0.00000953,-0.00000584,0.0000078
 1,-0.00000117,-0.00000385,0.00000835,-0.00001638,0.00000284,0.00002203
 ,0.00004214,-0.00002294,-0.00001006,-0.00000980,0.00000818,-0.00000686
 ,0.00000709,0.00000372,0.,0.00000536,0.00000627,-0.00000587,-0.0000055
 1,0.00000696,0.00000656,-0.00000579,0.00000692,-0.00000144,0.00001044,
 0.00000929,-0.00000403,0.00000024,0.00000685,0.00000199,0.00000980,-0.
 00000242,-0.00000091,-0.00000519,0.00001062,0.00000121,-0.00001331,0.0
 0000278,-0.00000340,0.00001135,-0.00000532,0.00000466,-0.00003740,-0.0
 0000454,-0.00001517,0.00000714,0.00000283,0.00001023,0.00000692,0.0000
 0177,-0.00000124,-0.00000768,-0.00000328,0.00000380,0.00000909,0.00000
 010,-0.00000375,-0.00000168,-0.00000126,0.00000128,0.00000053,0.000000
 63,0.00000273,-0.00000148,0.00000399,-0.00000137,0.00000058,0.00000419
 ,0.00000063,0.00000071,0.00000689,-0.00000238,-0.00001676,-0.00000333,
 -0.00000256,0.00001000,0.00000843,-0.00000104,0.00000615,-0.00001090,0
 .00000335,0.00000101,0.00000113,0.00000054,0.00000143,-0.00000049,-0.0
 0000212,0.00000328,-0.00000490,-0.00000097,-0.00000585,-0.00000953,0.0
 0000263,-0.00000051,-0.00000073,0.00000122,-0.00000148,-0.00000311,0.0
 0000171,-0.00000032,0.00000004,0.00000115,0.00000093,0.00000436,-0.000
 00017,0.00000258,0.00000700,-0.00000155\\\@


 SUCCESS-- IF YOU HAVE TRIED TO DO SOMETHING AND FAILED
           YOU ARE BETTER OFF THAN IF YOU HAD TRIED TO DO
           NOTHING AND SUCCEEDED.

                   -- FROM THE BACK OF A SUGAR PACKET
 Job cpu time:  0 days 12 hours 37 minutes 13.8 seconds.
 File lengths (MBytes):  RWF=   1233 Int=      0 D2E=      0 Chk=     23 Scr=      1
 Normal termination of Gaussian 09 at Sun Dec 29 04:23:17 2013.
