 Entering Gaussian System, Link 0=g09
 Initial command:
 /opt/gaussian/g09/l1.exe /panfs/panfs.cluster/home/shuo/Gau-21728.inp -scrdir=/panfs/panfs.cluster/home/shuo/
 Default is to use a total of  12 processors:
                               12 via shared-memory
                                1 via Linda
 Entering Link 1 = /opt/gaussian/g09/l1.exe PID=     21729.
  
 Copyright (c) 1988,1990,1992,1993,1995,1998,2003,2009,2011,
            Gaussian, Inc.  All Rights Reserved.
  
 This is part of the Gaussian(R) 09 program.  It is based on
 the Gaussian(R) 03 system (copyright 2003, Gaussian, Inc.),
 the Gaussian(R) 98 system (copyright 1998, Gaussian, Inc.),
 the Gaussian(R) 94 system (copyright 1995, Gaussian, Inc.),
 the Gaussian 92(TM) system (copyright 1992, Gaussian, Inc.),
 the Gaussian 90(TM) system (copyright 1990, Gaussian, Inc.),
 the Gaussian 88(TM) system (copyright 1988, Gaussian, Inc.),
 the Gaussian 86(TM) system (copyright 1986, Carnegie Mellon
 University), and the Gaussian 82(TM) system (copyright 1983,
 Carnegie Mellon University). Gaussian is a federally registered
 trademark of Gaussian, Inc.
  
 This software contains proprietary and confidential information,
 including trade secrets, belonging to Gaussian, Inc.
  
 This software is provided under written license and may be
 used, copied, transmitted, or stored only in accord with that
 written license.
  
 The following legend is applicable only to US Government
 contracts under FAR:
  
                    RESTRICTED RIGHTS LEGEND
  
 Use, reproduction and disclosure by the US Government is
 subject to restrictions as set forth in subparagraphs (a)
 and (c) of the Commercial Computer Software - Restricted
 Rights clause in FAR 52.227-19.
  
 Gaussian, Inc.
 340 Quinnipiac St., Bldg. 40, Wallingford CT 06492
  
  
 ---------------------------------------------------------------
 Warning -- This program may not be used in any manner that
 competes with the business of Gaussian, Inc. or will provide
 assistance to any competitor of Gaussian, Inc.  The licensee
 of this program is prohibited from giving any competitor of
 Gaussian, Inc. access to this program.  By using this program,
 the user acknowledges that Gaussian, Inc. is engaged in the
 business of creating and licensing software in the field of
 computational chemistry and represents and warrants to the
 licensee that it is not a competitor of Gaussian, Inc. and that
 it will not use this program in any manner prohibited above.
 ---------------------------------------------------------------
  

 Cite this work as:
 Gaussian 09, Revision C.01,
 M. J. Frisch, G. W. Trucks, H. B. Schlegel, G. E. Scuseria, 
 M. A. Robb, J. R. Cheeseman, G. Scalmani, V. Barone, B. Mennucci, 
 G. A. Petersson, H. Nakatsuji, M. Caricato, X. Li, H. P. Hratchian, 
 A. F. Izmaylov, J. Bloino, G. Zheng, J. L. Sonnenberg, M. Hada, 
 M. Ehara, K. Toyota, R. Fukuda, J. Hasegawa, M. Ishida, T. Nakajima, 
 Y. Honda, O. Kitao, H. Nakai, T. Vreven, J. A. Montgomery, Jr., 
 J. E. Peralta, F. Ogliaro, M. Bearpark, J. J. Heyd, E. Brothers, 
 K. N. Kudin, V. N. Staroverov, T. Keith, R. Kobayashi, J. Normand, 
 K. Raghavachari, A. Rendell, J. C. Burant, S. S. Iyengar, J. Tomasi, 
 M. Cossi, N. Rega, J. M. Millam, M. Klene, J. E. Knox, J. B. Cross, 
 V. Bakken, C. Adamo, J. Jaramillo, R. Gomperts, R. E. Stratmann, 
 O. Yazyev, A. J. Austin, R. Cammi, C. Pomelli, J. W. Ochterski, 
 R. L. Martin, K. Morokuma, V. G. Zakrzewski, G. A. Voth, 
 P. Salvador, J. J. Dannenberg, S. Dapprich, A. D. Daniels, 
 O. Farkas, J. B. Foresman, J. V. Ortiz, J. Cioslowski, 
 and D. J. Fox, Gaussian, Inc., Wallingford CT, 2010.
 
 ******************************************
 Gaussian 09:  EM64L-G09RevC.01 23-Sep-2011
                29-Dec-2013 
 ******************************************
 %chk=53_C21H7N5O2S2Se.chk
 %NProcShared=12
 Will use up to   12 processors via shared memory.
 %Mem=8000MB
 Default route:  MaxDisk=100GB
 --------------------------------------------
 #B3LYP/6-31++G(d,p) opt scf=direct freq test
 --------------------------------------------
 1/14=-1,18=20,19=15,26=3,38=1/1,3;
 2/9=110,12=2,17=6,18=5,40=1/2;
 3/5=1,6=6,7=1111,11=2,16=1,25=1,30=1,71=1,74=-5/1,2,3;
 4//1;
 5/5=2,38=5/2;
 6/7=2,8=2,9=2,10=2,28=1/1;
 7//1,2,3,16;
 1/14=-1,18=20,19=15/3(2);
 2/9=110/2;
 99//99;
 2/9=110/2;
 3/5=1,6=6,7=1111,11=2,16=1,25=1,30=1,71=1,74=-5/1,2,3;
 4/5=5,16=3/1;
 5/5=2,38=5/2;
 7//1,2,3,16;
 1/14=-1,18=20,19=15/3(-5);
 2/9=110/2;
 6/7=2,8=2,9=2,10=2,19=2,28=1/1;
 99/9=1/99;
 ----------------------------------------------------------------------
 Geom opt of No.53 candidate from the CEPDB database with SMILE code of
  c1coc(c1)-c1ncc(-c2cnc(-c3cccc4cocc34)c3nsnc23)c2nsnc12, HPC, 2013122
 7, Shuo Dai, Gaussian09
 ----------------------------------------------------------------------
 Charge =  0 Multiplicity = 1
 Symbolic Z-Matrix:
 C                    -1.35186   0.15979   0.00052 
 C                    -0.43142   1.18013   0.00019 
 O                     0.83395   0.68745  -0.00175 
 C                     0.70637  -0.66841  -0.00266 
 C                    -0.61546  -1.02768   0.00391 
 C                     1.89411  -1.45574  -0.00966 
 N                     3.09209  -0.84748  -0.02988 
 C                     4.21202  -1.60487  -0.02655 
 C                     4.31287  -3.01216   0.00976 
 C                     5.54628  -3.75617   0.01613 
 C                     5.67062  -5.15478   0.0045 
 N                     6.81699  -5.87245   0.01107 
 C                     8.0232   -5.25665  -0.09671 
 C                     9.17756  -6.10213  -0.05429 
 C                     9.08876  -7.52502  -0.14336 
 C                     10.21617  -8.40164  -0.13987 
 C                     11.55237  -7.95624  -0.06857 
 C                     11.61741  -6.57446   0.04138 
 C                     12.7445  -5.81309   0.15931 
 O                     12.40486  -4.51032   0.34848 
 C                     11.04942  -4.4739    0.41521 
 C                     10.50758  -5.6969    0.08641 
 C                     8.03426  -3.84769  -0.23612 
 N                     9.02766  -3.0332   -0.60549 
 S                     8.5986   -1.49423  -0.22958 
 N                     7.02591  -1.78089   0.09994 
 C                     6.78964  -3.10356  -0.03818 
 C                     3.05584  -3.65161   0.00263 
 N                     2.81159  -4.97725  -0.00242 
 S                     1.18946  -5.20817  -0.00481 
 N                     0.71299  -3.63907  -0.00257 
 C                     1.81163  -2.86583  -0.00441 
 H                    -2.42478   0.23006  -0.0011 
 H                    -0.50907   2.25579  -0.00022 
 H                    -0.99211  -2.03982   0.00657 
 H                     5.07833  -0.95344  -0.06328 
 H                     4.81811  -5.82509  -0.00852 
 H                     8.09708  -7.98554  -0.20991 
 H                     10.01864  -9.47187  -0.19752 
 H                     12.40259  -8.6152   -0.055 
 H                     13.80363  -6.00354   0.18297 
 H                     10.67718  -3.51328   0.7239 
 

 GradGradGradGradGradGradGradGradGradGradGradGradGradGradGradGradGradGrad
 Berny optimization.
 Initialization pass.
                           ----------------------------
                           !    Initial Parameters    !
                           ! (Angstroms and Degrees)  !
 --------------------------                            --------------------------
 ! Name  Definition              Value          Derivative Info.                !
 --------------------------------------------------------------------------------
 ! R1    R(1,2)                  1.3742         estimate D2E/DX2                !
 ! R2    R(1,5)                  1.3973         estimate D2E/DX2                !
 ! R3    R(1,33)                 1.0752         estimate D2E/DX2                !
 ! R4    R(2,3)                  1.3579         estimate D2E/DX2                !
 ! R5    R(2,34)                 1.0785         estimate D2E/DX2                !
 ! R6    R(3,4)                  1.3618         estimate D2E/DX2                !
 ! R7    R(4,5)                  1.3698         estimate D2E/DX2                !
 ! R8    R(4,6)                  1.425          estimate D2E/DX2                !
 ! R9    R(5,35)                 1.08           estimate D2E/DX2                !
 ! R10   R(6,7)                  1.3437         estimate D2E/DX2                !
 ! R11   R(6,32)                 1.4125         estimate D2E/DX2                !
 ! R12   R(7,8)                  1.352          estimate D2E/DX2                !
 ! R13   R(8,9)                  1.4114         estimate D2E/DX2                !
 ! R14   R(8,36)                 1.0845         estimate D2E/DX2                !
 ! R15   R(9,10)                 1.4404         estimate D2E/DX2                !
 ! R16   R(9,28)                 1.4103         estimate D2E/DX2                !
 ! R17   R(10,11)                1.4042         estimate D2E/DX2                !
 ! R18   R(10,27)                1.4053         estimate D2E/DX2                !
 ! R19   R(11,12)                1.3525         estimate D2E/DX2                !
 ! R20   R(11,37)                1.0846         estimate D2E/DX2                !
 ! R21   R(12,13)                1.3586         estimate D2E/DX2                !
 ! R22   R(13,14)                1.4315         estimate D2E/DX2                !
 ! R23   R(13,23)                1.4159         estimate D2E/DX2                !
 ! R24   R(14,15)                1.4284         estimate D2E/DX2                !
 ! R25   R(14,22)                1.3975         estimate D2E/DX2                !
 ! R26   R(15,16)                1.4281         estimate D2E/DX2                !
 ! R27   R(15,38)                1.0954         estimate D2E/DX2                !
 ! R28   R(16,17)                1.4103         estimate D2E/DX2                !
 ! R29   R(16,39)                1.0898         estimate D2E/DX2                !
 ! R30   R(17,18)                1.3877         estimate D2E/DX2                !
 ! R31   R(17,40)                1.0758         estimate D2E/DX2                !
 ! R32   R(18,19)                1.3653         estimate D2E/DX2                !
 ! R33   R(18,22)                1.4156         estimate D2E/DX2                !
 ! R34   R(19,20)                1.3595         estimate D2E/DX2                !
 ! R35   R(19,41)                1.0764         estimate D2E/DX2                !
 ! R36   R(20,21)                1.3576         estimate D2E/DX2                !
 ! R37   R(21,22)                1.3775         estimate D2E/DX2                !
 ! R38   R(21,42)                1.0755         estimate D2E/DX2                !
 ! R39   R(23,24)                1.3367         estimate D2E/DX2                !
 ! R40   R(23,27)                1.4636         estimate D2E/DX2                !
 ! R41   R(24,25)                1.6413         estimate D2E/DX2                !
 ! R42   R(25,26)                1.6322         estimate D2E/DX2                !
 ! R43   R(26,27)                1.3507         estimate D2E/DX2                !
 ! R44   R(28,29)                1.348          estimate D2E/DX2                !
 ! R45   R(28,32)                1.4716         estimate D2E/DX2                !
 ! R46   R(29,30)                1.6385         estimate D2E/DX2                !
 ! R47   R(30,31)                1.6398         estimate D2E/DX2                !
 ! R48   R(31,32)                1.3435         estimate D2E/DX2                !
 ! A1    A(2,1,5)              106.1418         estimate D2E/DX2                !
 ! A2    A(2,1,33)             128.3061         estimate D2E/DX2                !
 ! A3    A(5,1,33)             125.5521         estimate D2E/DX2                !
 ! A4    A(1,2,3)              110.7796         estimate D2E/DX2                !
 ! A5    A(1,2,34)             133.8177         estimate D2E/DX2                !
 ! A6    A(3,2,34)             115.4026         estimate D2E/DX2                !
 ! A7    A(2,3,4)              105.8984         estimate D2E/DX2                !
 ! A8    A(3,4,5)              110.5805         estimate D2E/DX2                !
 ! A9    A(3,4,6)              118.164          estimate D2E/DX2                !
 ! A10   A(5,4,6)              131.2555         estimate D2E/DX2                !
 ! A11   A(1,5,4)              106.5983         estimate D2E/DX2                !
 ! A12   A(1,5,35)             127.7835         estimate D2E/DX2                !
 ! A13   A(4,5,35)             125.6176         estimate D2E/DX2                !
 ! A14   A(4,6,7)              119.5425         estimate D2E/DX2                !
 ! A15   A(4,6,32)             120.1902         estimate D2E/DX2                !
 ! A16   A(7,6,32)             120.2659         estimate D2E/DX2                !
 ! A17   A(6,7,8)              119.0054         estimate D2E/DX2                !
 ! A18   A(7,8,9)              128.1584         estimate D2E/DX2                !
 ! A19   A(7,8,36)             108.9721         estimate D2E/DX2                !
 ! A20   A(9,8,36)             122.8687         estimate D2E/DX2                !
 ! A21   A(8,9,10)             125.1921         estimate D2E/DX2                !
 ! A22   A(8,9,28)             112.8471         estimate D2E/DX2                !
 ! A23   A(10,9,28)            121.9393         estimate D2E/DX2                !
 ! A24   A(9,10,11)            126.1749         estimate D2E/DX2                !
 ! A25   A(9,10,27)            121.1694         estimate D2E/DX2                !
 ! A26   A(11,10,27)           112.575          estimate D2E/DX2                !
 ! A27   A(10,11,12)           127.1236         estimate D2E/DX2                !
 ! A28   A(10,11,37)           123.0996         estimate D2E/DX2                !
 ! A29   A(12,11,37)           109.7765         estimate D2E/DX2                !
 ! A30   A(11,12,13)           120.7723         estimate D2E/DX2                !
 ! A31   A(12,13,14)           116.4805         estimate D2E/DX2                !
 ! A32   A(12,13,23)           117.7616         estimate D2E/DX2                !
 ! A33   A(14,13,23)           125.7576         estimate D2E/DX2                !
 ! A34   A(13,14,15)           122.4358         estimate D2E/DX2                !
 ! A35   A(13,14,22)           126.8119         estimate D2E/DX2                !
 ! A36   A(15,14,22)           110.7498         estimate D2E/DX2                !
 ! A37   A(14,15,16)           124.2091         estimate D2E/DX2                !
 ! A38   A(14,15,38)           118.6097         estimate D2E/DX2                !
 ! A39   A(16,15,38)           117.1787         estimate D2E/DX2                !
 ! A40   A(15,16,17)           123.6577         estimate D2E/DX2                !
 ! A41   A(15,16,39)           117.3596         estimate D2E/DX2                !
 ! A42   A(17,16,39)           118.9826         estimate D2E/DX2                !
 ! A43   A(16,17,18)           111.2781         estimate D2E/DX2                !
 ! A44   A(16,17,40)           123.7796         estimate D2E/DX2                !
 ! A45   A(18,17,40)           124.883          estimate D2E/DX2                !
 ! A46   A(17,18,19)           126.9305         estimate D2E/DX2                !
 ! A47   A(17,18,22)           125.6669         estimate D2E/DX2                !
 ! A48   A(19,18,22)           107.384          estimate D2E/DX2                !
 ! A49   A(18,19,20)           109.8871         estimate D2E/DX2                !
 ! A50   A(18,19,41)           135.6883         estimate D2E/DX2                !
 ! A51   A(20,19,41)           114.3498         estimate D2E/DX2                !
 ! A52   A(19,20,21)           106.3781         estimate D2E/DX2                !
 ! A53   A(20,21,22)           110.9277         estimate D2E/DX2                !
 ! A54   A(20,21,42)           112.5597         estimate D2E/DX2                !
 ! A55   A(22,21,42)           136.5026         estimate D2E/DX2                !
 ! A56   A(14,22,18)           124.2773         estimate D2E/DX2                !
 ! A57   A(14,22,21)           130.9845         estimate D2E/DX2                !
 ! A58   A(18,22,21)           104.4542         estimate D2E/DX2                !
 ! A59   A(13,23,24)           129.7456         estimate D2E/DX2                !
 ! A60   A(13,23,27)           119.0777         estimate D2E/DX2                !
 ! A61   A(24,23,27)           111.0742         estimate D2E/DX2                !
 ! A62   A(23,24,25)           108.2875         estimate D2E/DX2                !
 ! A63   A(24,25,26)            97.6687         estimate D2E/DX2                !
 ! A64   A(25,26,27)           108.656          estimate D2E/DX2                !
 ! A65   A(10,27,23)           121.4352         estimate D2E/DX2                !
 ! A66   A(10,27,26)           127.2711         estimate D2E/DX2                !
 ! A67   A(23,27,26)           111.2824         estimate D2E/DX2                !
 ! A68   A(9,28,29)            127.4026         estimate D2E/DX2                !
 ! A69   A(9,28,32)            120.764          estimate D2E/DX2                !
 ! A70   A(29,28,32)           111.8332         estimate D2E/DX2                !
 ! A71   A(28,29,30)           108.5418         estimate D2E/DX2                !
 ! A72   A(29,30,31)            98.7892         estimate D2E/DX2                !
 ! A73   A(30,31,32)           108.247          estimate D2E/DX2                !
 ! A74   A(6,32,28)            118.9274         estimate D2E/DX2                !
 ! A75   A(6,32,31)            128.4861         estimate D2E/DX2                !
 ! A76   A(28,32,31)           112.5864         estimate D2E/DX2                !
 ! D1    D(5,1,2,3)              0.2231         estimate D2E/DX2                !
 ! D2    D(5,1,2,34)          -179.8763         estimate D2E/DX2                !
 ! D3    D(33,1,2,3)          -179.7968         estimate D2E/DX2                !
 ! D4    D(33,1,2,34)            0.1039         estimate D2E/DX2                !
 ! D5    D(2,1,5,4)             -0.3541         estimate D2E/DX2                !
 ! D6    D(2,1,5,35)           179.9033         estimate D2E/DX2                !
 ! D7    D(33,1,5,4)           179.665          estimate D2E/DX2                !
 ! D8    D(33,1,5,35)           -0.0776         estimate D2E/DX2                !
 ! D9    D(1,2,3,4)              0.0001         estimate D2E/DX2                !
 ! D10   D(34,2,3,4)          -179.9205         estimate D2E/DX2                !
 ! D11   D(2,3,4,5)             -0.2337         estimate D2E/DX2                !
 ! D12   D(2,3,4,6)            179.7755         estimate D2E/DX2                !
 ! D13   D(3,4,5,1)              0.3711         estimate D2E/DX2                !
 ! D14   D(3,4,5,35)          -179.8792         estimate D2E/DX2                !
 ! D15   D(6,4,5,1)           -179.6397         estimate D2E/DX2                !
 ! D16   D(6,4,5,35)             0.1101         estimate D2E/DX2                !
 ! D17   D(3,4,6,7)             -0.7243         estimate D2E/DX2                !
 ! D18   D(3,4,6,32)           179.6971         estimate D2E/DX2                !
 ! D19   D(5,4,6,7)            179.2871         estimate D2E/DX2                !
 ! D20   D(5,4,6,32)            -0.2915         estimate D2E/DX2                !
 ! D21   D(4,6,7,8)            179.5257         estimate D2E/DX2                !
 ! D22   D(32,6,7,8)            -0.8961         estimate D2E/DX2                !
 ! D23   D(4,6,32,28)         -179.355          estimate D2E/DX2                !
 ! D24   D(4,6,32,31)            0.5186         estimate D2E/DX2                !
 ! D25   D(7,6,32,28)            1.0695         estimate D2E/DX2                !
 ! D26   D(7,6,32,31)         -179.0569         estimate D2E/DX2                !
 ! D27   D(6,7,8,9)             -0.6999         estimate D2E/DX2                !
 ! D28   D(6,7,8,36)           178.9632         estimate D2E/DX2                !
 ! D29   D(7,8,9,10)          -179.7506         estimate D2E/DX2                !
 ! D30   D(7,8,9,28)             1.9148         estimate D2E/DX2                !
 ! D31   D(36,8,9,10)            0.6287         estimate D2E/DX2                !
 ! D32   D(36,8,9,28)         -177.7059         estimate D2E/DX2                !
 ! D33   D(8,9,10,11)         -177.6016         estimate D2E/DX2                !
 ! D34   D(8,9,10,27)           -1.117          estimate D2E/DX2                !
 ! D35   D(28,9,10,11)           0.5898         estimate D2E/DX2                !
 ! D36   D(28,9,10,27)         177.0744         estimate D2E/DX2                !
 ! D37   D(8,9,28,29)          178.2294         estimate D2E/DX2                !
 ! D38   D(8,9,28,32)           -1.5753         estimate D2E/DX2                !
 ! D39   D(10,9,28,29)          -0.1667         estimate D2E/DX2                !
 ! D40   D(10,9,28,32)        -179.9714         estimate D2E/DX2                !
 ! D41   D(9,10,11,12)        -179.9526         estimate D2E/DX2                !
 ! D42   D(9,10,11,37)          -0.1492         estimate D2E/DX2                !
 ! D43   D(27,10,11,12)          3.3047         estimate D2E/DX2                !
 ! D44   D(27,10,11,37)       -176.8919         estimate D2E/DX2                !
 ! D45   D(9,10,27,23)        -170.605          estimate D2E/DX2                !
 ! D46   D(9,10,27,26)          10.7296         estimate D2E/DX2                !
 ! D47   D(11,10,27,23)          6.3222         estimate D2E/DX2                !
 ! D48   D(11,10,27,26)       -172.3432         estimate D2E/DX2                !
 ! D49   D(10,11,12,13)         -6.2702         estimate D2E/DX2                !
 ! D50   D(37,11,12,13)        173.9048         estimate D2E/DX2                !
 ! D51   D(11,12,13,14)        178.8635         estimate D2E/DX2                !
 ! D52   D(11,12,13,23)         -0.9569         estimate D2E/DX2                !
 ! D53   D(12,13,14,15)         11.2592         estimate D2E/DX2                !
 ! D54   D(12,13,14,22)       -168.115          estimate D2E/DX2                !
 ! D55   D(23,13,14,15)       -168.9366         estimate D2E/DX2                !
 ! D56   D(23,13,14,22)         11.6892         estimate D2E/DX2                !
 ! D57   D(12,13,23,24)       -165.9851         estimate D2E/DX2                !
 ! D58   D(12,13,23,27)          9.975          estimate D2E/DX2                !
 ! D59   D(14,13,23,24)         14.213          estimate D2E/DX2                !
 ! D60   D(14,13,23,27)       -169.8269         estimate D2E/DX2                !
 ! D61   D(13,14,15,16)        178.3096         estimate D2E/DX2                !
 ! D62   D(13,14,15,38)         -2.2738         estimate D2E/DX2                !
 ! D63   D(22,14,15,16)         -2.2262         estimate D2E/DX2                !
 ! D64   D(22,14,15,38)        177.1904         estimate D2E/DX2                !
 ! D65   D(13,14,22,18)       -176.0277         estimate D2E/DX2                !
 ! D66   D(13,14,22,21)         11.0828         estimate D2E/DX2                !
 ! D67   D(15,14,22,18)          4.5372         estimate D2E/DX2                !
 ! D68   D(15,14,22,21)       -168.3524         estimate D2E/DX2                !
 ! D69   D(14,15,16,17)         -1.0308         estimate D2E/DX2                !
 ! D70   D(14,15,16,39)        179.0675         estimate D2E/DX2                !
 ! D71   D(38,15,16,17)        179.5449         estimate D2E/DX2                !
 ! D72   D(38,15,16,39)         -0.3568         estimate D2E/DX2                !
 ! D73   D(15,16,17,18)          1.9881         estimate D2E/DX2                !
 ! D74   D(15,16,17,40)        179.3065         estimate D2E/DX2                !
 ! D75   D(39,16,17,18)       -178.1117         estimate D2E/DX2                !
 ! D76   D(39,16,17,40)         -0.7933         estimate D2E/DX2                !
 ! D77   D(16,17,18,19)        178.5561         estimate D2E/DX2                !
 ! D78   D(16,17,18,22)          0.327          estimate D2E/DX2                !
 ! D79   D(40,17,18,19)          1.2732         estimate D2E/DX2                !
 ! D80   D(40,17,18,22)       -176.9558         estimate D2E/DX2                !
 ! D81   D(17,18,19,20)       -175.2388         estimate D2E/DX2                !
 ! D82   D(17,18,19,41)          1.3138         estimate D2E/DX2                !
 ! D83   D(22,18,19,20)          3.2537         estimate D2E/DX2                !
 ! D84   D(22,18,19,41)        179.8063         estimate D2E/DX2                !
 ! D85   D(17,18,22,14)         -3.97           estimate D2E/DX2                !
 ! D86   D(17,18,22,21)        170.4926         estimate D2E/DX2                !
 ! D87   D(19,18,22,14)        177.5133         estimate D2E/DX2                !
 ! D88   D(19,18,22,21)         -8.0241         estimate D2E/DX2                !
 ! D89   D(18,19,20,21)          3.0014         estimate D2E/DX2                !
 ! D90   D(41,19,20,21)       -174.3559         estimate D2E/DX2                !
 ! D91   D(19,20,21,22)         -8.431          estimate D2E/DX2                !
 ! D92   D(19,20,21,42)        170.61           estimate D2E/DX2                !
 ! D93   D(20,21,22,14)       -175.8489         estimate D2E/DX2                !
 ! D94   D(20,21,22,18)         10.2144         estimate D2E/DX2                !
 ! D95   D(42,21,22,14)          5.4379         estimate D2E/DX2                !
 ! D96   D(42,21,22,18)       -168.4989         estimate D2E/DX2                !
 ! D97   D(13,23,24,25)       -165.8329         estimate D2E/DX2                !
 ! D98   D(27,23,24,25)         17.9505         estimate D2E/DX2                !
 ! D99   D(13,23,27,10)        -13.0918         estimate D2E/DX2                !
 ! D100  D(13,23,27,26)        165.7684         estimate D2E/DX2                !
 ! D101  D(24,23,27,10)        163.5802         estimate D2E/DX2                !
 ! D102  D(24,23,27,26)        -17.5596         estimate D2E/DX2                !
 ! D103  D(23,24,25,26)        -11.9026         estimate D2E/DX2                !
 ! D104  D(24,25,26,27)          1.6593         estimate D2E/DX2                !
 ! D105  D(25,26,27,10)       -172.886          estimate D2E/DX2                !
 ! D106  D(25,26,27,23)          8.336          estimate D2E/DX2                !
 ! D107  D(9,28,29,30)         179.8157         estimate D2E/DX2                !
 ! D108  D(32,28,29,30)         -0.3651         estimate D2E/DX2                !
 ! D109  D(9,28,32,6)            0.2658         estimate D2E/DX2                !
 ! D110  D(9,28,32,31)        -179.6271         estimate D2E/DX2                !
 ! D111  D(29,28,32,6)        -179.5671         estimate D2E/DX2                !
 ! D112  D(29,28,32,31)          0.5401         estimate D2E/DX2                !
 ! D113  D(28,29,30,31)          0.1063         estimate D2E/DX2                !
 ! D114  D(29,30,31,32)          0.2051         estimate D2E/DX2                !
 ! D115  D(30,31,32,6)         179.682          estimate D2E/DX2                !
 ! D116  D(30,31,32,28)         -0.4378         estimate D2E/DX2                !
 --------------------------------------------------------------------------------
 Trust Radius=3.00D-01 FncErr=1.00D-07 GrdErr=1.00D-06
 Number of steps in this run=    250 maximum allowed number of steps=    252.
 GradGradGradGradGradGradGradGradGradGradGradGradGradGradGradGradGradGrad

                          Input orientation:                          
 ---------------------------------------------------------------------
 Center     Atomic      Atomic             Coordinates (Angstroms)
 Number     Number       Type             X           Y           Z
 ---------------------------------------------------------------------
      1          6           0       -1.351860    0.159790    0.000520
      2          6           0       -0.431420    1.180130    0.000190
      3          8           0        0.833950    0.687450   -0.001750
      4          6           0        0.706370   -0.668410   -0.002660
      5          6           0       -0.615460   -1.027680    0.003910
      6          6           0        1.894110   -1.455740   -0.009660
      7          7           0        3.092090   -0.847480   -0.029880
      8          6           0        4.212020   -1.604870   -0.026550
      9          6           0        4.312870   -3.012160    0.009760
     10          6           0        5.546280   -3.756170    0.016130
     11          6           0        5.670620   -5.154780    0.004500
     12          7           0        6.816990   -5.872450    0.011070
     13          6           0        8.023200   -5.256650   -0.096710
     14          6           0        9.177560   -6.102130   -0.054290
     15          6           0        9.088760   -7.525020   -0.143360
     16          6           0       10.216170   -8.401640   -0.139870
     17          6           0       11.552370   -7.956240   -0.068570
     18          6           0       11.617410   -6.574460    0.041380
     19          6           0       12.744500   -5.813090    0.159310
     20          8           0       12.404860   -4.510320    0.348480
     21          6           0       11.049420   -4.473900    0.415210
     22          6           0       10.507580   -5.696900    0.086410
     23          6           0        8.034260   -3.847690   -0.236120
     24          7           0        9.027660   -3.033200   -0.605490
     25         16           0        8.598600   -1.494230   -0.229580
     26          7           0        7.025910   -1.780890    0.099940
     27          6           0        6.789640   -3.103560   -0.038180
     28          6           0        3.055840   -3.651610    0.002630
     29          7           0        2.811590   -4.977250   -0.002420
     30         16           0        1.189460   -5.208170   -0.004810
     31          7           0        0.712990   -3.639070   -0.002570
     32          6           0        1.811630   -2.865830   -0.004410
     33          1           0       -2.424780    0.230060   -0.001100
     34          1           0       -0.509070    2.255790   -0.000220
     35          1           0       -0.992110   -2.039820    0.006570
     36          1           0        5.078330   -0.953440   -0.063280
     37          1           0        4.818110   -5.825090   -0.008520
     38          1           0        8.097080   -7.985540   -0.209910
     39          1           0       10.018640   -9.471870   -0.197520
     40          1           0       12.402590   -8.615200   -0.055000
     41          1           0       13.803630   -6.003540    0.182970
     42          1           0       10.677180   -3.513280    0.723900
 ---------------------------------------------------------------------
                    Distance matrix (angstroms):
                    1          2          3          4          5
     1  C    0.000000
     2  C    1.374156   0.000000
     3  O    2.248599   1.357902   0.000000
     4  C    2.218611   2.170639   1.361849   0.000000
     5  C    1.397276   2.215471   2.245549   1.369800   0.000000
     6  C    3.625791   3.515110   2.391080   1.425014   2.545852
     7  N    4.556776   4.065370   2.730567   2.392586   3.712080
     8  C    5.837081   5.414654   4.082487   3.628651   4.861958
     9  C    6.492343   6.331167   5.078398   4.301181   5.312874
    10  C    7.932170   7.752432   6.477047   5.741023   6.738831
    11  C    8.806810   8.795794   7.584528   6.691139   7.519824
    12  N   10.154710  10.113281   8.878582   8.026325   8.872044
    13  C   10.827697  10.626482   9.328808   8.636943   9.618771
    14  C   12.250850  12.056814  10.757183  10.064246  11.029808
    15  C   12.964704  12.900933  11.645025  10.830391  11.679426
    16  C   14.392259  14.324842  13.063563  12.257976  13.104204
    17  C   15.244470  15.069479  13.769618  13.067231  14.002367
    18  C   14.613479  14.328631  13.000777  12.407021  13.431727
    19  C   15.310385  14.917618  13.569973  13.092385  14.191999
    20  O   14.531977  14.045377  12.689580  12.318208  13.482442
    21  C   13.245180  12.804296  11.452913  11.028828  12.170252
    22  C   13.227037  12.921405  11.590807  11.016232  12.063600
    23  C   10.208582   9.848987   8.512749   7.991264   9.100974
    24  N   10.876436  10.372714   9.019125   8.671765   9.868295
    25  S   10.089618   9.420523   8.068545   7.938562   9.228818
    26  N    8.600183   8.024298   6.666589   6.417533   7.679003
    27  C    8.771258   8.396141   7.059981   6.552663   7.690680
    28  C    5.827057   5.958750   4.874860   3.797304   4.512588
    29  N    6.612375   6.959199   5.999991   4.795629   5.229131
    30  S    5.939135   6.590725   5.906330   4.565392   4.553494
    31  N    4.323766   4.953218   4.328211   2.970667   2.929877
    32  C    4.377450   4.626131   3.685331   2.459727   3.044607
    33  H    1.075220   2.208194   3.290673   3.257507   2.203537
    34  H    2.259095   1.078459   2.064799   3.166741   3.285196
    35  H    2.228843   3.268408   3.282159   2.183045   1.079954
    36  H    6.526155   5.908764   4.550941   4.381661   5.694670
    37  H    8.595778   8.753899   7.634576   6.595285   7.248378
    38  H   12.476905  12.521540  11.314466  10.402208  11.151945
    39  H   14.902898  14.923403  13.697030  12.816289  13.580464
    40  H   16.315282  16.145072  14.845052  14.140572  15.067965
    41  H   16.361809  15.946008  14.595070  14.143419  15.254553
    42  H   12.598116  12.081095  10.726690  10.394144  11.585349
                    6          7          8          9         10
     6  C    0.000000
     7  N    1.343706   0.000000
     8  C    2.322764   1.351996   0.000000
     9  C    2.876321   2.485501   1.411366   0.000000
    10  C    4.316363   3.806001   2.531830   1.440448   0.000000
    11  C    5.286315   5.020242   3.838012   2.536599   1.404174
    12  N    6.613812   6.255148   4.999952   3.801563   2.468475
    13  C    7.212506   6.615217   5.278779   4.337698   2.898156
    14  C    8.639420   8.040204   6.699456   5.763439   4.323735
    15  C    9.413662   8.975660   7.671011   6.572555   5.174827
    16  C   10.840626  10.384120   9.069660   7.994863   6.588824
    17  C   11.642249  11.050444   9.706823   8.767008   7.329453
    18  C   10.988470  10.270563   8.918590   8.126948   6.693431
    19  C   11.693845  10.856431   9.515612   8.885942   7.487709
    20  O   10.951465  10.014352   8.700857   8.236475   6.907917
    21  C    9.649327   8.756034   7.428090   6.905228   5.564077
    22  C    9.601486   8.861145   7.509430   6.751899   5.327839
    23  C    6.593493   5.785226   4.436629   3.821951   2.502409
    24  N    7.330138   6.351353   5.056252   4.754810   3.609585
    25  S    6.708206   5.547956   4.392670   4.552898   3.807020
    26  N    5.143258   4.045126   2.822226   2.980729   2.469425
    27  C    5.165495   4.331494   2.981666   2.478919   1.405273
    28  C    2.484273   2.804553   2.350904   1.410344   2.492671
    29  N    3.639073   4.139376   3.651675   2.472968   2.994981
    30  S    3.818021   4.757756   4.703202   3.818162   4.592453
    31  N    2.482343   3.667947   4.047438   3.654080   4.834744
    32  C    1.412510   2.390390   2.711528   2.505557   3.839367
    33  H    4.636249   5.621190   6.885835   7.477168   8.912246
    34  H    4.421631   4.753895   6.098695   7.141604   8.532948
    35  H    2.944771   4.254843   5.222379   5.393354   6.759918
    36  H    3.224041   1.989345   1.084529   2.197633   2.842636
    37  H    5.257471   5.268416   4.263558   2.858002   2.193461
    38  H    9.008619   8.719761   7.472634   6.253240   4.944213
    39  H   11.414973  11.062789   9.779354   8.621289   7.260639
    40  H   12.715663  12.125325  10.781047   9.840824   8.403822
    41  H   12.749755  11.889800  10.554202   9.952531   8.559342
    42  H    9.050630   8.075163   6.782588   6.423827   5.185178
                   11         12         13         14         15
    11  C    0.000000
    12  N    1.352500   0.000000
    13  C    2.356959   1.358591   0.000000
    14  C    3.633119   2.372618   1.431497   0.000000
    15  C    4.162161   2.813499   2.506611   1.428438   0.000000
    16  C    5.587931   4.239577   3.834311   2.524635   1.428120
    17  C    6.515251   5.174200   4.443379   3.012914   2.502183
    18  C    6.114014   4.851574   3.830671   2.486989   2.707723
    19  C    7.106132   5.929660   4.760866   3.585001   4.048055
    20  O    6.773746   5.761383   4.467006   3.620987   4.508530
    21  C    5.437258   4.475794   3.167454   2.524960   3.669540
    22  C    4.867934   3.695531   2.529723   1.397484   2.325482
    23  C    2.711674   2.375395   1.415883   2.534304   3.826661
    24  N    4.017824   3.650828   2.492293   3.121638   4.515943
    25  S    4.693345   4.732954   3.808483   4.647436   6.051291
    26  N    3.637177   4.097854   3.621349   4.829752   6.108156
    27  C    2.336992   2.769463   2.482115   3.833255   4.984609
    28  C    3.016057   4.367889   5.221177   6.594220   7.170826
    29  N    2.864545   4.104241   5.219946   6.464798   6.775977
    30  S    4.481488   5.666623   6.834530   8.038119   8.233221
    31  N    5.184161   6.499768   7.487630   8.815797   9.234390
    32  C    4.486778   5.838975   6.656436   8.045685   8.641989
    33  H    9.722759  11.074795  11.801416  13.217933  13.882475
    34  H    9.649100  10.942558  11.368628  12.794083  13.704126
    35  H    7.354927   8.698915   9.572590  10.951176  11.477536
    36  H    4.243425   5.217770   5.214498   6.581244   7.699067
    37  H    1.084554   1.999537   3.256302   4.368484   4.598521
    38  H    3.734552   2.480446   2.732236   2.176899   1.095416
    39  H    6.130527   4.821815   4.664764   3.476072   2.158202
    40  H    7.569509   6.223019   5.519117   4.088562   3.489666
    41  H    8.179126   6.989984   5.835190   4.633199   4.965017
    42  H    5.317678   4.579834   3.279687   3.091373   4.401054
                   16         17         18         19         20
    16  C    0.000000
    17  C    1.410282   0.000000
    18  C    2.309743   1.387673   0.000000
    19  C    3.630778   2.462965   1.365256   0.000000
    20  O    4.491238   3.574218   2.230485   1.359540   0.000000
    21  C    4.053339   3.551576   2.207875   2.175365   1.357570
    22  C    2.729788   2.494037   1.415578   2.241122   2.253070
    23  C    5.050590   5.411594   4.511235   5.119133   4.459034
    24  N    5.518107   5.558666   4.434610   4.703999   3.807548
    25  S    7.094850   7.106916   5.915688   5.999356   4.890661
    26  N    7.353203   7.658471   6.638043   6.997459   6.036942
    27  C    6.310396   6.799487   5.946498   6.545297   5.801653
    28  C    8.593801   9.525016   9.046825   9.928075   9.394742
    29  N    8.159237   9.234717   8.949607   9.969327   9.611034
    30  S    9.575906  10.721281  10.517178  11.572027  11.242642
    31  N   10.630680  11.667668  11.292689  12.227420  11.729541
    32  C   10.064782  10.990833  10.483766  11.324345  10.725922
    33  H   15.307486  16.198172  15.604051  16.329496  15.572785
    34  H   15.120552  15.804068  15.000885  15.517390  14.583258
    35  H   12.888745  13.869883  13.400155  14.246240  13.627145
    36  H    9.048699   9.536898   8.623595   9.079422   8.154691
    37  H    5.982885   7.063686   6.840652   7.928176   7.708103
    38  H    2.160691   3.458304   3.800923   5.143382   5.562906
    39  H    1.089832   2.160113   3.317849   4.576496   5.532553
    40  H    2.198464   1.075773   2.188702   2.831016   4.124663
    41  H    4.327237   2.990733   2.263969   1.076377   2.052719
    42  H    4.985448   4.597158   3.274246   3.143517   2.029755
                   21         22         23         24         25
    21  C    0.000000
    22  C    1.377472   0.000000
    23  C    3.147628   3.104982   0.000000
    24  N    2.684205   3.124770   1.336664   0.000000
    25  S    3.911612   4.626715   2.420185   1.641289   0.000000
    26  N    4.851838   5.239976   2.324084   2.464328   1.632211
    27  C    4.497679   4.534756   1.463553   2.309875   2.428768
    28  C    8.046347   7.727785   4.987997   6.034474   5.952344
    29  N    8.263753   7.730074   5.348533   6.540837   6.758144
    30  S    9.896180   9.331374   6.982528   8.156512   8.290912
    31  N   10.378500  10.008825   7.327964   8.358488   8.175250
    32  C    9.386093   9.145641   6.303877   7.242955   6.927839
    33  H   14.277767  14.226119  11.228303  11.923613  11.159762
    34  H   13.381330  13.587471  10.502219  10.921950   9.852152
    35  H   12.291874  12.067455   9.208835  10.087478   9.609118
    36  H    6.948130   7.211073   4.140541   4.496287   3.565447
    37  H    6.390187   5.691706   3.782266   5.086387   5.753027
    38  H    4.630195   3.337093   4.138410   5.054516   6.510685
    39  H    5.139810   3.817077   5.964114   6.527247   8.103103
    40  H    4.382069   3.482461   6.468714   6.546137   8.075211
    41  H    3.159020   3.311691   6.173245   5.679303   6.899015
    42  H    1.075473   2.281086   2.831695   2.172250   3.050604
                   26         27         28         29         30
    26  N    0.000000
    27  C    1.350687   0.000000
    28  C    4.389820   3.774028   0.000000
    29  N    5.290339   4.397371   1.347963   0.000000
    30  S    6.769148   5.982684   2.430290   1.638486   0.000000
    31  N    6.581512   6.100304   2.342889   2.488945   1.639849
    32  C    5.326978   4.983798   1.471584   2.336240   2.423562
    33  H    9.662798   9.798976   6.715994   7.384826   6.529708
    34  H    8.548727   9.055122   6.899708   7.958873   7.654784
    35  H    8.022743   7.854246   4.357038   4.805904   3.846793
    36  H    2.122353   2.748132   3.372674   4.618751   5.764500
    37  H    4.608872   3.360734   2.798166   2.178300   3.680721
    38  H    6.304054   5.056938   6.651483   6.085168   7.447890
    39  H    8.258092   7.141933   9.077228   8.495954   9.806666
    40  H    8.697154   7.866617  10.583113  10.257910  11.719414
    41  H    7.985935   7.593079  11.003594  11.041403  12.640615
    42  H    4.089288   3.982663   7.656643   8.033570   9.665428
                   31         32         33         34         35
    31  N    0.000000
    32  C    1.343471   0.000000
    33  H    4.981543   5.247067   0.000000
    34  H    6.020200   5.622869   2.788105   0.000000
    35  H    2.337745   2.922905   2.684205   4.322689   0.000000
    36  H    5.125669   3.785767   7.596130   6.443770   6.167280
    37  H    4.650885   4.218549   9.440569   9.678819   6.934490
    38  H    8.570856   8.109287  13.351001  13.378887  10.863325
    39  H   10.984293  10.537176  15.779884  15.761016  13.285843
    40  H   12.704777  12.050985  17.265353  16.878756  14.921709
    41  H   13.303759  12.397113  17.385423  16.525843  15.318489
    42  H    9.991430   8.918946  13.645497  12.607090  11.783801
                   36         37         38         39         40
    36  H    0.000000
    37  H    4.878902   0.000000
    38  H    7.654070   3.931888   0.000000
    39  H    9.848265   6.354545   2.429346   0.000000
    40  H   10.599407   8.081535   4.354065   2.537206   0.000000
    41  H   10.084394   8.989332   6.053709   5.147838   2.973266
    42  H    6.206412   6.341104   5.246906   6.065269   5.441812
                   41         42
    41  H    0.000000
    42  H    4.033446   0.000000
 Stoichiometry    C22H10N6O2S2
 Framework group  C1[X(C22H10N6O2S2)]
 Deg. of freedom   120
 Full point group                 C1      NOp   1
 Largest Abelian subgroup         C1      NOp   1
 Largest concise Abelian subgroup C1      NOp   1
                         Standard orientation:                         
 ---------------------------------------------------------------------
 Center     Atomic      Atomic             Coordinates (Angstroms)
 Number     Number       Type             X           Y           Z
 ---------------------------------------------------------------------
      1          6           0       -8.013787   -0.610342   -0.039525
      2          6           0       -7.581525   -1.914739   -0.041112
      3          8           0       -6.224868   -1.972676   -0.036412
      4          6           0       -5.796284   -0.680032   -0.031780
      5          6           0       -6.861929    0.180610   -0.038745
      6          6           0       -4.392188   -0.436993   -0.021264
      7          7           0       -3.540115   -1.475803   -0.001490
      8          6           0       -2.210123   -1.232876   -0.001463
      9          6           0       -1.551638    0.015049   -0.033660
     10          6           0       -0.123127    0.200085   -0.036589
     11          6           0        0.553270    1.430510   -0.020845
     12          7           0        1.891499    1.626444   -0.024142
     13          6           0        2.747888    0.577230    0.083179
     14          6           0        4.144919    0.887041    0.044404
     15          6           0        4.635782    2.225262    0.137428
     16          6           0        6.020583    2.574339    0.137642
     17          6           0        7.064904    1.629232    0.066509
     18          6           0        6.568869    0.338251   -0.047304
     19          6           0        7.294746   -0.811919   -0.166191
     20          8           0        6.460165   -1.867610   -0.359432
     21          6           0        5.204712   -1.355583   -0.427720
     22          6           0        5.199889   -0.018652   -0.096022
     23          6           0        2.190969   -0.717464    0.218590
     24          7           0        2.772045   -1.863550    0.586706
     25         16           0        1.760984   -3.099112    0.205957
     26          7           0        0.437149   -2.203336   -0.124433
     27          6           0        0.752581   -0.897656    0.017198
     28          6           0       -2.445285    1.106107   -0.026058
     29          7           0       -2.135681    2.418006   -0.017497
     30         16           0       -3.527907    3.281915   -0.016190
     31          7           0       -4.595288    2.037026   -0.023408
     32          6           0       -3.900487    0.887172   -0.022590
     33          1           0       -9.024346   -0.243098   -0.039256
     34          1           0       -8.085296   -2.868301   -0.043846
     35          1           0       -6.799629    1.258765   -0.038929
     36          1           0       -1.679103   -2.177831    0.034342
     37          1           0        0.042374    2.387091   -0.006832
     38          1           0        3.912970    3.045639    0.204224
     39          1           0        6.270111    3.633495    0.198126
     40          1           0        8.108398    1.890556    0.055726
     41          1           0        8.341069   -1.063541   -0.188172
     42          1           0        4.478167   -2.084652   -0.739542
 ---------------------------------------------------------------------
 Rotational constants (GHZ):      0.3337640      0.0539534      0.0465580
 Standard basis: 6-31++G(d,p) (6D, 7F)
 There are   676 symmetry adapted basis functions of A   symmetry.
 Integral buffers will be    131072 words long.
 Raffenetti 2 integral format.
 Two-electron integral symmetry is turned on.
   676 basis functions,  1152 primitive gaussians,   676 cartesian basis functions
   116 alpha electrons      116 beta electrons
       nuclear repulsion energy      3174.6363607158 Hartrees.
 NAtoms=   42 NActive=   42 NUniq=   42 SFac= 1.00D+00 NAtFMM=   60 NAOKFM=F Big=F
 One-electron integrals computed using PRISM.
 NBasis=   676 RedAO= T  NBF=   676
 NBsUse=   665 1.00D-06 NBFU=   665
 Harris functional with IExCor=  402 diagonalized for initial guess.
 ExpMin= 3.60D-02 ExpMax= 2.19D+04 ExpMxC= 3.30D+03 IAcc=3 IRadAn=         5 AccDes= 0.00D+00
 HarFok:  IExCor=  402 AccDes= 0.00D+00 IRadAn=         5 IDoV= 1
 ScaDFX=  1.000000  1.000000  1.000000  1.000000
 FoFCou: FMM=F IPFlag=           0 FMFlag=      100000 FMFlg1=           0
         NFxFlg=           0 DoJE=T BraDBF=F KetDBF=T FulRan=T
         Omega=  0.000000  0.000000  1.000000  0.000000  0.000000 ICntrl=     500 IOpCl=  0
         NMat0=    1 NMatS0=    1 NMatT0=    0 NMatD0=    1 NMtDS0=    0 NMtDT0=    0
         I1Cent=           4 NGrid=           0.
 Petite list used in FoFCou.
 Initial guess orbital symmetries:
       Occupied  (A) (A) (A) (A) (A) (A) (A) (A) (A) (A) (A) (A)
                 (A) (A) (A) (A) (A) (A) (A) (A) (A) (A) (A) (A)
                 (A) (A) (A) (A) (A) (A) (A) (A) (A) (A) (A) (A)
                 (A) (A) (A) (A) (A) (A) (A) (A) (A) (A) (A) (A)
                 (A) (A) (A) (A) (A) (A) (A) (A) (A) (A) (A) (A)
                 (A) (A) (A) (A) (A) (A) (A) (A) (A) (A) (A) (A)
                 (A) (A) (A) (A) (A) (A) (A) (A) (A) (A) (A) (A)
                 (A) (A) (A) (A) (A) (A) (A) (A) (A) (A) (A) (A)
                 (A) (A) (A) (A) (A) (A) (A) (A) (A) (A) (A) (A)
                 (A) (A) (A) (A) (A) (A) (A) (A)
       Virtual   (A) (A) (A) (A) (A) (A) (A) (A) (A) (A) (A) (A)
                 (A) (A) (A) (A) (A) (A) (A) (A) (A) (A) (A) (A)
                 (A) (A) (A) (A) (A) (A) (A) (A) (A) (A) (A) (A)
                 (A) (A) (A) (A) (A) (A) (A) (A) (A) (A) (A) (A)
                 (A) (A) (A) (A) (A) (A) (A) (A) (A) (A) (A) (A)
                 (A) (A) (A) (A) (A) (A) (A) (A) (A) (A) (A) (A)
                 (A) (A) (A) (A) (A) (A) (A) (A) (A) (A) (A) (A)
                 (A) (A) (A) (A) (A) (A) (A) (A) (A) (A) (A) (A)
                 (A) (A) (A) (A) (A) (A) (A) (A) (A) (A) (A) (A)
                 (A) (A) (A) (A) (A) (A) (A) (A) (A) (A) (A) (A)
                 (A) (A) (A) (A) (A) (A) (A) (A) (A) (A) (A) (A)
                 (A) (A) (A) (A) (A) (A) (A) (A) (A) (A) (A) (A)
                 (A) (A) (A) (A) (A) (A) (A) (A) (A) (A) (A) (A)
                 (A) (A) (A) (A) (A) (A) (A) (A) (A) (A) (A) (A)
                 (A) (A) (A) (A) (A) (A) (A) (A) (A) (A) (A) (A)
                 (A) (A) (A) (A) (A) (A) (A) (A) (A) (A) (A) (A)
                 (A) (A) (A) (A) (A) (A) (A) (A) (A) (A) (A) (A)
                 (A) (A) (A) (A) (A) (A) (A) (A) (A) (A) (A) (A)
                 (A) (A) (A) (A) (A) (A) (A) (A) (A) (A) (A) (A)
                 (A) (A) (A) (A) (A) (A) (A) (A) (A) (A) (A) (A)
                 (A) (A) (A) (A) (A) (A) (A) (A) (A) (A) (A) (A)
                 (A) (A) (A) (A) (A) (A) (A) (A) (A) (A) (A) (A)
                 (A) (A) (A) (A) (A) (A) (A) (A) (A) (A) (A) (A)
                 (A) (A) (A) (A) (A) (A) (A) (A) (A) (A) (A) (A)
                 (A) (A) (A) (A) (A) (A) (A) (A) (A) (A) (A) (A)
                 (A) (A) (A) (A) (A) (A) (A) (A) (A) (A) (A) (A)
                 (A) (A) (A) (A) (A) (A) (A) (A) (A) (A) (A) (A)
                 (A) (A) (A) (A) (A) (A) (A) (A) (A) (A) (A) (A)
                 (A) (A) (A) (A) (A) (A) (A) (A) (A) (A) (A) (A)
                 (A) (A) (A) (A) (A) (A) (A) (A) (A) (A) (A) (A)
                 (A) (A) (A) (A) (A) (A) (A) (A) (A) (A) (A) (A)
                 (A) (A) (A) (A) (A) (A) (A) (A) (A) (A) (A) (A)
                 (A) (A) (A) (A) (A) (A) (A) (A) (A) (A) (A) (A)
                 (A) (A) (A) (A) (A) (A) (A) (A) (A) (A) (A) (A)
                 (A) (A) (A) (A) (A) (A) (A) (A) (A) (A) (A) (A)
                 (A) (A) (A) (A) (A) (A) (A) (A) (A) (A) (A) (A)
                 (A) (A) (A) (A) (A) (A) (A) (A) (A) (A) (A) (A)
                 (A) (A) (A) (A) (A) (A) (A) (A) (A) (A) (A) (A)
                 (A) (A) (A) (A) (A) (A) (A) (A) (A) (A) (A) (A)
                 (A) (A) (A) (A) (A) (A) (A) (A) (A) (A) (A) (A)
                 (A) (A) (A) (A) (A) (A) (A) (A) (A) (A) (A) (A)
                 (A) (A) (A) (A) (A) (A) (A) (A) (A) (A) (A) (A)
                 (A) (A) (A) (A) (A) (A) (A) (A) (A) (A) (A) (A)
                 (A) (A) (A) (A) (A) (A) (A) (A) (A) (A) (A) (A)
                 (A) (A) (A) (A) (A) (A) (A) (A) (A) (A) (A) (A)
                 (A) (A) (A) (A) (A) (A) (A) (A) (A)
 The electronic state of the initial guess is 1-A.
 Requested convergence on RMS density matrix=1.00D-08 within 128 cycles.
 Requested convergence on MAX density matrix=1.00D-06.
 Requested convergence on             energy=1.00D-06.
 No special actions if energy rises.
 EnCoef did     2 forward-backward iterations
 EnCoef did     6 forward-backward iterations
 EnCoef did     3 forward-backward iterations
 Restarting incremental Fock formation.
 SCF Done:  E(RB3LYP) =  -2119.61490378     A.U. after   25 cycles
             Convg  =    0.9286D-08             -V/T =  2.0068

 **********************************************************************

            Population analysis using the SCF density.

 **********************************************************************

 Orbital symmetries:
       Occupied  (A) (A) (A) (A) (A) (A) (A) (A) (A) (A) (A) (A)
                 (A) (A) (A) (A) (A) (A) (A) (A) (A) (A) (A) (A)
                 (A) (A) (A) (A) (A) (A) (A) (A) (A) (A) (A) (A)
                 (A) (A) (A) (A) (A) (A) (A) (A) (A) (A) (A) (A)
                 (A) (A) (A) (A) (A) (A) (A) (A) (A) (A) (A) (A)
                 (A) (A) (A) (A) (A) (A) (A) (A) (A) (A) (A) (A)
                 (A) (A) (A) (A) (A) (A) (A) (A) (A) (A) (A) (A)
                 (A) (A) (A) (A) (A) (A) (A) (A) (A) (A) (A) (A)
                 (A) (A) (A) (A) (A) (A) (A) (A) (A) (A) (A) (A)
                 (A) (A) (A) (A) (A) (A) (A) (A)
       Virtual   (A) (A) (A) (A) (A) (A) (A) (A) (A) (A) (A) (A)
                 (A) (A) (A) (A) (A) (A) (A) (A) (A) (A) (A) (A)
                 (A) (A) (A) (A) (A) (A) (A) (A) (A) (A) (A) (A)
                 (A) (A) (A) (A) (A) (A) (A) (A) (A) (A) (A) (A)
                 (A) (A) (A) (A) (A) (A) (A) (A) (A) (A) (A) (A)
                 (A) (A) (A) (A) (A) (A) (A) (A) (A) (A) (A) (A)
                 (A) (A) (A) (A) (A) (A) (A) (A) (A) (A) (A) (A)
                 (A) (A) (A) (A) (A) (A) (A) (A) (A) (A) (A) (A)
                 (A) (A) (A) (A) (A) (A) (A) (A) (A) (A) (A) (A)
                 (A) (A) (A) (A) (A) (A) (A) (A) (A) (A) (A) (A)
                 (A) (A) (A) (A) (A) (A) (A) (A) (A) (A) (A) (A)
                 (A) (A) (A) (A) (A) (A) (A) (A) (A) (A) (A) (A)
                 (A) (A) (A) (A) (A) (A) (A) (A) (A) (A) (A) (A)
                 (A) (A) (A) (A) (A) (A) (A) (A) (A) (A) (A) (A)
                 (A) (A) (A) (A) (A) (A) (A) (A) (A) (A) (A) (A)
                 (A) (A) (A) (A) (A) (A) (A) (A) (A) (A) (A) (A)
                 (A) (A) (A) (A) (A) (A) (A) (A) (A) (A) (A) (A)
                 (A) (A) (A) (A) (A) (A) (A) (A) (A) (A) (A) (A)
                 (A) (A) (A) (A) (A) (A) (A) (A) (A) (A) (A) (A)
                 (A) (A) (A) (A) (A) (A) (A) (A) (A) (A) (A) (A)
                 (A) (A) (A) (A) (A) (A) (A) (A) (A) (A) (A) (A)
                 (A) (A) (A) (A) (A) (A) (A) (A) (A) (A) (A) (A)
                 (A) (A) (A) (A) (A) (A) (A) (A) (A) (A) (A) (A)
                 (A) (A) (A) (A) (A) (A) (A) (A) (A) (A) (A) (A)
                 (A) (A) (A) (A) (A) (A) (A) (A) (A) (A) (A) (A)
                 (A) (A) (A) (A) (A) (A) (A) (A) (A) (A) (A) (A)
                 (A) (A) (A) (A) (A) (A) (A) (A) (A) (A) (A) (A)
                 (A) (A) (A) (A) (A) (A) (A) (A) (A) (A) (A) (A)
                 (A) (A) (A) (A) (A) (A) (A) (A) (A) (A) (A) (A)
                 (A) (A) (A) (A) (A) (A) (A) (A) (A) (A) (A) (A)
                 (A) (A) (A) (A) (A) (A) (A) (A) (A) (A) (A) (A)
                 (A) (A) (A) (A) (A) (A) (A) (A) (A) (A) (A) (A)
                 (A) (A) (A) (A) (A) (A) (A) (A) (A) (A) (A) (A)
                 (A) (A) (A) (A) (A) (A) (A) (A) (A) (A) (A) (A)
                 (A) (A) (A) (A) (A) (A) (A) (A) (A) (A) (A) (A)
                 (A) (A) (A) (A) (A) (A) (A) (A) (A) (A) (A) (A)
                 (A) (A) (A) (A) (A) (A) (A) (A) (A) (A) (A) (A)
                 (A) (A) (A) (A) (A) (A) (A) (A) (A) (A) (A) (A)
                 (A) (A) (A) (A) (A) (A) (A) (A) (A) (A) (A) (A)
                 (A) (A) (A) (A) (A) (A) (A) (A) (A) (A) (A) (A)
                 (A) (A) (A) (A) (A) (A) (A) (A) (A) (A) (A) (A)
                 (A) (A) (A) (A) (A) (A) (A) (A) (A) (A) (A) (A)
                 (A) (A) (A) (A) (A) (A) (A) (A) (A) (A) (A) (A)
                 (A) (A) (A) (A) (A) (A) (A) (A) (A) (A) (A) (A)
                 (A) (A) (A) (A) (A) (A) (A) (A) (A) (A) (A) (A)
                 (A) (A) (A) (A) (A) (A) (A) (A) (A)
 The electronic state is 1-A.
 Alpha  occ. eigenvalues --  -88.99824 -88.99707 -19.23735 -19.23602 -14.39413
 Alpha  occ. eigenvalues --  -14.38711 -14.38708 -14.38334 -14.35203 -14.35134
 Alpha  occ. eigenvalues --  -10.26484 -10.26362 -10.26233 -10.26196 -10.26131
 Alpha  occ. eigenvalues --  -10.26096 -10.25980 -10.25671 -10.24051 -10.23864
 Alpha  occ. eigenvalues --  -10.23598 -10.23589 -10.23064 -10.22972 -10.21856
 Alpha  occ. eigenvalues --  -10.21596 -10.21024 -10.20820 -10.20551 -10.20336
 Alpha  occ. eigenvalues --  -10.20238 -10.20188  -8.05089  -8.04960  -6.01655
 Alpha  occ. eigenvalues --   -6.01525  -6.01063  -6.00941  -6.00853  -6.00722
 Alpha  occ. eigenvalues --   -1.13391  -1.12796  -1.03871  -1.03737  -0.95921
 Alpha  occ. eigenvalues --   -0.95645  -0.91429  -0.90665  -0.88028  -0.84460
 Alpha  occ. eigenvalues --   -0.82839  -0.81263  -0.80890  -0.80344  -0.78307
 Alpha  occ. eigenvalues --   -0.77403  -0.74951  -0.73000  -0.69701  -0.68338
 Alpha  occ. eigenvalues --   -0.65688  -0.65367  -0.64493  -0.63525  -0.61569
 Alpha  occ. eigenvalues --   -0.61012  -0.60881  -0.58337  -0.57057  -0.55421
 Alpha  occ. eigenvalues --   -0.55254  -0.53744  -0.53445  -0.52231  -0.50426
 Alpha  occ. eigenvalues --   -0.49608  -0.48741  -0.48214  -0.47934  -0.47426
 Alpha  occ. eigenvalues --   -0.47049  -0.46863  -0.46518  -0.46453  -0.44483
 Alpha  occ. eigenvalues --   -0.44219  -0.43951  -0.42307  -0.42045  -0.41541
 Alpha  occ. eigenvalues --   -0.40740  -0.40555  -0.40123  -0.39875  -0.39147
 Alpha  occ. eigenvalues --   -0.38556  -0.38092  -0.37467  -0.36559  -0.35872
 Alpha  occ. eigenvalues --   -0.35563  -0.34288  -0.32776  -0.31465  -0.31168
 Alpha  occ. eigenvalues --   -0.30706  -0.30282  -0.29704  -0.29411  -0.28396
 Alpha  occ. eigenvalues --   -0.28154  -0.27135  -0.27042  -0.25416  -0.21975
 Alpha  occ. eigenvalues --   -0.19280
 Alpha virt. eigenvalues --   -0.12947  -0.10999  -0.07092  -0.04278  -0.02858
 Alpha virt. eigenvalues --   -0.02281  -0.02191  -0.01726  -0.00592  -0.00525
 Alpha virt. eigenvalues --   -0.00321   0.00264   0.00618   0.01217   0.01447
 Alpha virt. eigenvalues --    0.01537   0.01697   0.02068   0.02098   0.02557
 Alpha virt. eigenvalues --    0.03223   0.03463   0.03520   0.03942   0.04467
 Alpha virt. eigenvalues --    0.04581   0.05073   0.05561   0.05771   0.06107
 Alpha virt. eigenvalues --    0.06328   0.06390   0.06691   0.07265   0.07385
 Alpha virt. eigenvalues --    0.07885   0.07949   0.08679   0.08918   0.09471
 Alpha virt. eigenvalues --    0.09623   0.09860   0.09903   0.10546   0.10625
 Alpha virt. eigenvalues --    0.10831   0.11136   0.11355   0.11556   0.11647
 Alpha virt. eigenvalues --    0.11941   0.12021   0.12167   0.12321   0.12709
 Alpha virt. eigenvalues --    0.12922   0.13017   0.13255   0.13298   0.13655
 Alpha virt. eigenvalues --    0.13683   0.13881   0.14119   0.14240   0.14477
 Alpha virt. eigenvalues --    0.14637   0.14799   0.15050   0.15641   0.16068
 Alpha virt. eigenvalues --    0.16149   0.16749   0.17046   0.17325   0.17401
 Alpha virt. eigenvalues --    0.17797   0.18122   0.18299   0.18479   0.18618
 Alpha virt. eigenvalues --    0.18907   0.18942   0.19035   0.19337   0.19679
 Alpha virt. eigenvalues --    0.19887   0.20057   0.20179   0.20692   0.20709
 Alpha virt. eigenvalues --    0.20954   0.21304   0.21699   0.21775   0.22224
 Alpha virt. eigenvalues --    0.22441   0.22683   0.22762   0.22942   0.23350
 Alpha virt. eigenvalues --    0.23464   0.24218   0.24315   0.24451   0.24905
 Alpha virt. eigenvalues --    0.25017   0.25141   0.25482   0.25761   0.26071
 Alpha virt. eigenvalues --    0.26235   0.26270   0.26432   0.26962   0.27159
 Alpha virt. eigenvalues --    0.27438   0.27712   0.27860   0.27939   0.28198
 Alpha virt. eigenvalues --    0.28327   0.28424   0.28657   0.28696   0.29018
 Alpha virt. eigenvalues --    0.29429   0.29725   0.30094   0.30294   0.30598
 Alpha virt. eigenvalues --    0.30844   0.30958   0.31198   0.31496   0.31903
 Alpha virt. eigenvalues --    0.32065   0.32441   0.32565   0.32919   0.33187
 Alpha virt. eigenvalues --    0.33378   0.33821   0.34169   0.34335   0.34560
 Alpha virt. eigenvalues --    0.34806   0.35032   0.35178   0.35845   0.36317
 Alpha virt. eigenvalues --    0.36637   0.36716   0.37042   0.37210   0.37690
 Alpha virt. eigenvalues --    0.37934   0.38184   0.38489   0.39108   0.39562
 Alpha virt. eigenvalues --    0.40112   0.40798   0.41094   0.41310   0.42006
 Alpha virt. eigenvalues --    0.42021   0.42534   0.42833   0.42997   0.43499
 Alpha virt. eigenvalues --    0.44264   0.44691   0.46032   0.46660   0.47370
 Alpha virt. eigenvalues --    0.48178   0.48535   0.49776   0.50334   0.50894
 Alpha virt. eigenvalues --    0.51216   0.51636   0.52135   0.52791   0.54048
 Alpha virt. eigenvalues --    0.55444   0.56197   0.57344   0.59202   0.60013
 Alpha virt. eigenvalues --    0.60935   0.63342   0.64208   0.64669   0.65575
 Alpha virt. eigenvalues --    0.65839   0.66561   0.66934   0.67216   0.67806
 Alpha virt. eigenvalues --    0.68398   0.68431   0.69333   0.69478   0.70000
 Alpha virt. eigenvalues --    0.70079   0.70457   0.71016   0.71337   0.71573
 Alpha virt. eigenvalues --    0.71872   0.72658   0.73007   0.73588   0.73905
 Alpha virt. eigenvalues --    0.74590   0.75240   0.75869   0.76171   0.76412
 Alpha virt. eigenvalues --    0.76693   0.76844   0.77156   0.77753   0.78723
 Alpha virt. eigenvalues --    0.79089   0.80137   0.80487   0.80597   0.80885
 Alpha virt. eigenvalues --    0.81647   0.81980   0.82934   0.82975   0.83322
 Alpha virt. eigenvalues --    0.84153   0.86681   0.87804   0.88350   0.89602
 Alpha virt. eigenvalues --    0.89858   0.90479   0.92523   0.93222   0.93719
 Alpha virt. eigenvalues --    0.94450   0.94707   0.94797   0.95947   0.96076
 Alpha virt. eigenvalues --    0.97124   0.98053   0.98291   0.98851   0.99668
 Alpha virt. eigenvalues --    0.99771   1.01044   1.01999   1.02301   1.03014
 Alpha virt. eigenvalues --    1.03291   1.03931   1.04496   1.04978   1.06009
 Alpha virt. eigenvalues --    1.06599   1.06803   1.08607   1.09103   1.09467
 Alpha virt. eigenvalues --    1.09700   1.10628   1.10909   1.11354   1.11906
 Alpha virt. eigenvalues --    1.12438   1.12842   1.13575   1.14228   1.14837
 Alpha virt. eigenvalues --    1.15434   1.15593   1.16397   1.17004   1.17430
 Alpha virt. eigenvalues --    1.17844   1.18282   1.18896   1.19542   1.19783
 Alpha virt. eigenvalues --    1.20194   1.20780   1.21392   1.21827   1.22111
 Alpha virt. eigenvalues --    1.22807   1.23117   1.23607   1.24724   1.25351
 Alpha virt. eigenvalues --    1.25733   1.26214   1.26482   1.26656   1.27429
 Alpha virt. eigenvalues --    1.28450   1.29311   1.29650   1.30597   1.31068
 Alpha virt. eigenvalues --    1.31469   1.32400   1.32878   1.33197   1.33771
 Alpha virt. eigenvalues --    1.33866   1.34376   1.35090   1.36038   1.37592
 Alpha virt. eigenvalues --    1.37669   1.37910   1.38512   1.39886   1.40516
 Alpha virt. eigenvalues --    1.40819   1.41603   1.41869   1.42347   1.42802
 Alpha virt. eigenvalues --    1.43610   1.44947   1.45808   1.46361   1.47604
 Alpha virt. eigenvalues --    1.48387   1.49026   1.49951   1.50683   1.51013
 Alpha virt. eigenvalues --    1.52097   1.54000   1.54328   1.57170   1.58343
 Alpha virt. eigenvalues --    1.58987   1.59922   1.60369   1.62317   1.64514
 Alpha virt. eigenvalues --    1.65353   1.66956   1.69665   1.69982   1.72137
 Alpha virt. eigenvalues --    1.72605   1.73083   1.74325   1.74622   1.75564
 Alpha virt. eigenvalues --    1.76109   1.76812   1.76998   1.79227   1.79595
 Alpha virt. eigenvalues --    1.79759   1.80801   1.81740   1.83590   1.83846
 Alpha virt. eigenvalues --    1.83931   1.84655   1.86223   1.86478   1.87182
 Alpha virt. eigenvalues --    1.88041   1.88961   1.89309   1.90161   1.90935
 Alpha virt. eigenvalues --    1.91138   1.91659   1.93093   1.93824   1.94929
 Alpha virt. eigenvalues --    1.95930   1.96116   1.96602   1.97482   1.98409
 Alpha virt. eigenvalues --    1.99488   2.00898   2.01319   2.01384   2.02499
 Alpha virt. eigenvalues --    2.02683   2.04941   2.06197   2.07042   2.08442
 Alpha virt. eigenvalues --    2.11003   2.12020   2.12824   2.13598   2.15571
 Alpha virt. eigenvalues --    2.16187   2.17159   2.18235   2.18929   2.20264
 Alpha virt. eigenvalues --    2.21504   2.22843   2.23899   2.24887   2.25495
 Alpha virt. eigenvalues --    2.27562   2.28498   2.29070   2.29379   2.30115
 Alpha virt. eigenvalues --    2.31320   2.32105   2.33957   2.34272   2.34768
 Alpha virt. eigenvalues --    2.36020   2.36624   2.37397   2.37971   2.38572
 Alpha virt. eigenvalues --    2.39926   2.40274   2.40620   2.41109   2.42460
 Alpha virt. eigenvalues --    2.43496   2.44207   2.44888   2.45363   2.46639
 Alpha virt. eigenvalues --    2.47207   2.47641   2.47700   2.48304   2.49323
 Alpha virt. eigenvalues --    2.50285   2.50526   2.52116   2.52810   2.53114
 Alpha virt. eigenvalues --    2.54117   2.54966   2.55343   2.57145   2.57513
 Alpha virt. eigenvalues --    2.59220   2.60085   2.61531   2.63458   2.63708
 Alpha virt. eigenvalues --    2.64605   2.64707   2.65994   2.67326   2.68687
 Alpha virt. eigenvalues --    2.69103   2.70323   2.70421   2.71680   2.72524
 Alpha virt. eigenvalues --    2.73386   2.75525   2.75757   2.76187   2.78321
 Alpha virt. eigenvalues --    2.78646   2.80253   2.81007   2.81759   2.82703
 Alpha virt. eigenvalues --    2.85255   2.86048   2.87452   2.88350   2.91645
 Alpha virt. eigenvalues --    2.93659   2.94645   2.95613   2.96854   2.98979
 Alpha virt. eigenvalues --    2.99998   3.01392   3.03833   3.05813   3.06870
 Alpha virt. eigenvalues --    3.07965   3.10019   3.13887   3.16066   3.17683
 Alpha virt. eigenvalues --    3.20333   3.23938   3.26707   3.29134   3.33522
 Alpha virt. eigenvalues --    3.34697   3.35952   3.38860   3.45074   3.46344
 Alpha virt. eigenvalues --    3.51570   3.56172   3.60777   3.65729   3.69887
 Alpha virt. eigenvalues --    3.80083   3.82603   3.96299   3.97223   4.16103
 Alpha virt. eigenvalues --    4.18231   4.20708   4.23995   4.30210   4.32175
 Alpha virt. eigenvalues --    4.32606   4.33866   4.35088   4.36941   4.38236
 Alpha virt. eigenvalues --    4.38471   4.39710   4.40372   4.41879   4.43837
 Alpha virt. eigenvalues --    4.51458   4.51901   4.52198   4.58103   4.58591
 Alpha virt. eigenvalues --    4.59783   4.63579   4.64023   4.72457   4.74487
 Alpha virt. eigenvalues --    4.79360   4.86970   4.92884   4.97127
          Condensed to atoms (all electrons):
              1          2          3          4          5          6
     1  C    9.386949  -1.183668   0.151822   0.237580  -2.257489   0.098085
     2  C   -1.183668   6.461335  -0.281752  -0.053616   0.298033   0.237936
     3  O    0.151822  -0.281752   8.149911   0.150195   0.034829  -0.330259
     4  C    0.237580  -0.053616   0.150195  15.338722  -1.772257   2.359674
     5  C   -2.257489   0.298033   0.034829  -1.772257  14.690574  -0.799381
     6  C    0.098085   0.237936  -0.330259   2.359674  -0.799381  21.422426
     7  N    0.094279  -0.113417   0.104573  -0.333018   0.234691  -0.167815
     8  C    0.290290  -0.175861   0.011989   0.998276   0.819182  -2.902447
     9  C   -0.097101   0.034449  -0.021806   1.797809   0.441153   2.053290
    10  C   -0.019020   0.015003   0.000637  -0.078622  -0.066185   1.248210
    11  C   -0.005415   0.002584   0.000888  -0.307383  -0.073766  -0.904023
    12  N    0.000017  -0.000009   0.000002  -0.001151   0.000044   0.003259
    13  C    0.000173   0.000299   0.000272   0.038214  -0.000192   0.154023
    14  C    0.000001   0.000004   0.000003  -0.001262  -0.000037   0.000838
    15  C   -0.000004   0.000003   0.000000  -0.000769  -0.000085  -0.003429
    16  C   -0.000000   0.000000   0.000000  -0.000041  -0.000004  -0.000688
    17  C   -0.000000   0.000000   0.000000  -0.000010  -0.000001  -0.000023
    18  C    0.000000  -0.000000  -0.000000  -0.000033   0.000002  -0.000137
    19  C    0.000000  -0.000000  -0.000000   0.000013   0.000001   0.000029
    20  O    0.000000  -0.000000   0.000000  -0.000000  -0.000000  -0.000001
    21  C   -0.000000   0.000000   0.000000  -0.000136  -0.000008  -0.000295
    22  C    0.000002  -0.000001  -0.000000   0.000311   0.000030  -0.001234
    23  C   -0.000272   0.000486   0.000606  -0.116562  -0.009756  -0.116807
    24  N    0.000002  -0.000004  -0.000002   0.002784   0.000073   0.002213
    25  S   -0.000032  -0.000060  -0.000095  -0.004532  -0.000201   0.005418
    26  N    0.000566  -0.000523  -0.000448   0.052646   0.006475  -0.020450
    27  C    0.003771   0.001188   0.004256   0.097970  -0.020473  -0.064408
    28  C   -0.042378   0.014650   0.036424  -2.979376  -1.175289  -6.766868
    29  N    0.001381  -0.006250   0.000012   0.028731  -0.049273   0.147107
    30  S    0.011895  -0.005906   0.004164  -0.173769  -0.095557  -0.466082
    31  N    0.047703  -0.015839  -0.003308  -0.106169   0.024886  -0.465021
    32  C   -0.098217  -0.055835   0.229092  -8.130057  -5.331878  -7.555680
    33  H    0.316423  -0.028714   0.020172  -0.123511   0.123729   0.006680
    34  H   -0.219539   0.515426  -0.089232   0.002045   0.081602  -0.007211
    35  H   -0.114059   0.018454   0.017759  -0.106598   0.492268  -0.069382
    36  H   -0.003315   0.002310   0.000895  -0.082722  -0.011884  -0.046763
    37  H    0.000188   0.000200  -0.000028  -0.002722   0.000788   0.000012
    38  H   -0.000000  -0.000000   0.000000  -0.000004  -0.000003  -0.000174
    39  H    0.000000  -0.000000  -0.000000   0.000000   0.000000  -0.000002
    40  H   -0.000000   0.000000   0.000000  -0.000000  -0.000000   0.000000
    41  H    0.000000  -0.000000  -0.000000   0.000000   0.000000   0.000000
    42  H    0.000001  -0.000000   0.000001   0.000134   0.000001   0.000101
              7          8          9         10         11         12
     1  C    0.094279   0.290290  -0.097101  -0.019020  -0.005415   0.000017
     2  C   -0.113417  -0.175861   0.034449   0.015003   0.002584  -0.000009
     3  O    0.104573   0.011989  -0.021806   0.000637   0.000888   0.000002
     4  C   -0.333018   0.998276   1.797809  -0.078622  -0.307383  -0.001151
     5  C    0.234691   0.819182   0.441153  -0.066185  -0.073766   0.000044
     6  C   -0.167815  -2.902447   2.053290   1.248210  -0.904023   0.003259
     7  N    7.214837  -0.243566  -0.018997   0.040117   0.115961   0.000788
     8  C   -0.243566  11.780659  -0.852968  -1.660060  -0.092609   0.022218
     9  C   -0.018997  -0.852968   9.046156   1.228652  -1.317107  -0.015745
    10  C    0.040117  -1.660060   1.228652  13.215001  -5.247705  -0.039864
    11  C    0.115961  -0.092609  -1.317107  -5.247705  15.511785  -0.002738
    12  N    0.000788   0.022218  -0.015745  -0.039864  -0.002738   7.175974
    13  C    0.017545  -0.999906   0.152438   1.245865  -6.184746   0.003703
    14  C    0.001007  -0.065356  -0.083578  -0.170733  -0.860432  -0.516090
    15  C    0.000625  -0.003815  -0.103249  -0.559612   0.425194   0.436155
    16  C    0.000042  -0.002334  -0.011531  -0.056407  -0.240510   0.268559
    17  C    0.000025  -0.003057   0.002972  -0.003234  -0.051395   0.001648
    18  C   -0.000032   0.010878  -0.010658  -0.197086   0.395997  -0.007607
    19  C   -0.000029   0.002385  -0.001775   0.003074   0.041323   0.006649
    20  O    0.000000   0.000048  -0.000026  -0.000479  -0.001079   0.000314
    21  C    0.000186  -0.013488  -0.009665  -0.165201  -0.155467   0.034001
    22  C   -0.000447   0.016998   0.031125   0.300834  -0.546467  -0.112283
    23  C    0.051095  -0.092085  -0.303296  -2.941223   2.100301   0.025842
    24  N   -0.001441  -0.006438  -0.045941   0.429629  -0.170600   0.000377
    25  S   -0.007698   0.095851  -0.071266  -0.154869   0.199189   0.013261
    26  N   -0.014345   0.243404  -0.011602  -0.260977   0.158414   0.006169
    27  C    0.019040  -0.214330  -0.076104   0.870002   1.389691  -0.047085
    28  C    0.103030  -0.009086  -2.253292  -0.822611   0.333667  -0.022240
    29  N   -0.004444   0.046529  -0.108015  -0.128553   0.248413  -0.003797
    30  S    0.015557  -0.019530  -0.084041  -0.113300   0.078994  -0.007763
    31  N    0.023597   0.068166  -0.104154  -0.072332   0.008030  -0.000268
    32  C    0.186101  -1.859441  -2.804256   0.451143   0.300821   0.003147
    33  H    0.002075   0.006473   0.000211  -0.000586  -0.000042  -0.000000
    34  H   -0.005314  -0.005486   0.001430   0.000317   0.000044  -0.000000
    35  H   -0.004776  -0.003001   0.009495   0.001041  -0.001249  -0.000003
    36  H   -0.143935   0.649631  -0.258072  -0.102045  -0.025499  -0.001375
    37  H   -0.000179  -0.032847  -0.014192  -0.216727   0.606740  -0.134063
    38  H    0.000005   0.000874  -0.002214  -0.013487   0.016379  -0.018945
    39  H   -0.000001  -0.000002   0.000257   0.001498  -0.003871   0.001332
    40  H    0.000000  -0.000011   0.000008  -0.000613   0.000887  -0.000029
    41  H   -0.000000  -0.000017   0.000035   0.000728  -0.001400  -0.000020
    42  H    0.000073  -0.008281  -0.003528   0.010393  -0.024270  -0.001265
             13         14         15         16         17         18
     1  C    0.000173   0.000001  -0.000004  -0.000000  -0.000000   0.000000
     2  C    0.000299   0.000004   0.000003   0.000000   0.000000  -0.000000
     3  O    0.000272   0.000003   0.000000   0.000000   0.000000  -0.000000
     4  C    0.038214  -0.001262  -0.000769  -0.000041  -0.000010  -0.000033
     5  C   -0.000192  -0.000037  -0.000085  -0.000004  -0.000001   0.000002
     6  C    0.154023   0.000838  -0.003429  -0.000688  -0.000023  -0.000137
     7  N    0.017545   0.001007   0.000625   0.000042   0.000025  -0.000032
     8  C   -0.999906  -0.065356  -0.003815  -0.002334  -0.003057   0.010878
     9  C    0.152438  -0.083578  -0.103249  -0.011531   0.002972  -0.010658
    10  C    1.245865  -0.170733  -0.559612  -0.056407  -0.003234  -0.197086
    11  C   -6.184746  -0.860432   0.425194  -0.240510  -0.051395   0.395997
    12  N    0.003703  -0.516090   0.436155   0.268559   0.001648  -0.007607
    13  C   20.257177   3.208726  -0.603323  -0.625803  -0.220488   0.368517
    14  C    3.208726  12.443566  -1.624741  -1.543900   2.395281  -2.717297
    15  C   -0.603323  -1.624741  10.910896  -2.442299  -2.667923   2.879408
    16  C   -0.625803  -1.543900  -2.442299  10.267319   1.133856  -1.762225
    17  C   -0.220488   2.395281  -2.667923   1.133856  11.127835  -3.819251
    18  C    0.368517  -2.717297   2.879408  -1.762225  -3.819251  11.748097
    19  C    0.152205  -2.039158   1.434324  -0.674398  -1.700472   0.326305
    20  O   -0.007386   0.013917   0.010232  -0.006171   0.069389   0.038426
    21  C    0.052156   1.248316  -0.749728   1.213921  -0.089265  -0.951775
    22  C    0.105211   0.959169  -1.732928   0.383026   0.780869  -0.388961
    23  C   -2.328701  -2.151471  -0.019533   0.316831  -0.256479  -0.353177
    24  N   -0.397086   0.078733  -0.082533   0.036200   0.035629  -0.113522
    25  S   -0.362073  -0.109415   0.045760   0.002166  -0.021344   0.013237
    26  N   -0.061283   0.075092   0.022036   0.003528   0.000517   0.005278
    27  C   -7.293495  -2.850648   0.017549  -0.002337  -0.262386   0.073213
    28  C    0.209468   0.046264   0.001587   0.002555   0.001960  -0.005845
    29  N   -0.056008  -0.000077  -0.002301  -0.001533  -0.000168   0.000737
    30  S   -0.007430   0.002490  -0.000859  -0.000292   0.000013   0.000099
    31  N   -0.005572   0.000252   0.000087   0.000004  -0.000001   0.000007
    32  C    0.028128   0.003495  -0.003095  -0.000476   0.000034  -0.000464
    33  H    0.000005  -0.000000  -0.000000  -0.000000  -0.000000  -0.000000
    34  H    0.000006   0.000000   0.000000   0.000000   0.000000  -0.000000
    35  H   -0.000008   0.000008   0.000003   0.000000  -0.000000   0.000000
    36  H   -0.031889  -0.007381  -0.003343  -0.000333   0.000165  -0.000190
    37  H   -0.070378  -0.029435  -0.028467  -0.014519  -0.002959   0.002059
    38  H   -0.002828  -0.116487   0.530774  -0.186144  -0.058103   0.147235
    39  H    0.008319   0.033947  -0.115901   0.392405  -0.006246  -0.051888
    40  H   -0.005846   0.095829  -0.038059  -0.073745   0.514957  -0.088289
    41  H   -0.005259  -0.004625  -0.004236   0.021344  -0.022692  -0.123939
    42  H    0.059539  -0.003340  -0.011628   0.027187  -0.005227  -0.055199
             19         20         21         22         23         24
     1  C    0.000000   0.000000  -0.000000   0.000002  -0.000272   0.000002
     2  C   -0.000000  -0.000000   0.000000  -0.000001   0.000486  -0.000004
     3  O   -0.000000   0.000000   0.000000  -0.000000   0.000606  -0.000002
     4  C    0.000013  -0.000000  -0.000136   0.000311  -0.116562   0.002784
     5  C    0.000001  -0.000000  -0.000008   0.000030  -0.009756   0.000073
     6  C    0.000029  -0.000001  -0.000295  -0.001234  -0.116807   0.002213
     7  N   -0.000029   0.000000   0.000186  -0.000447   0.051095  -0.001441
     8  C    0.002385   0.000048  -0.013488   0.016998  -0.092085  -0.006438
     9  C   -0.001775  -0.000026  -0.009665   0.031125  -0.303296  -0.045941
    10  C    0.003074  -0.000479  -0.165201   0.300834  -2.941223   0.429629
    11  C    0.041323  -0.001079  -0.155467  -0.546467   2.100301  -0.170600
    12  N    0.006649   0.000314   0.034001  -0.112283   0.025842   0.000377
    13  C    0.152205  -0.007386   0.052156   0.105211  -2.328701  -0.397086
    14  C   -2.039158   0.013917   1.248316   0.959169  -2.151471   0.078733
    15  C    1.434324   0.010232  -0.749728  -1.732928  -0.019533  -0.082533
    16  C   -0.674398  -0.006171   1.213921   0.383026   0.316831   0.036200
    17  C   -1.700472   0.069389  -0.089265   0.780869  -0.256479   0.035629
    18  C    0.326305   0.038426  -0.951775  -0.388961  -0.353177  -0.113522
    19  C   11.693895   0.075427  -2.789140  -1.335385  -0.143964  -0.089142
    20  O    0.075427   8.046785   0.124446   0.034312  -0.008499   0.005625
    21  C   -2.789140   0.124446   9.655286  -1.285070  -0.199025   0.152844
    22  C   -1.335385   0.034312  -1.285070   9.470161  -0.151713  -0.257763
    23  C   -0.143964  -0.008499  -0.199025  -0.151713  14.088588  -0.439604
    24  N   -0.089142   0.005625   0.152844  -0.257763  -0.439604   7.987370
    25  S    0.033058  -0.004227   0.019439   0.030466  -0.058997  -0.162505
    26  N   -0.009491   0.000171   0.063427  -0.092013   0.160967  -0.192079
    27  C    0.244303   0.002052  -0.663590   0.180773  -0.806875   0.676216
    28  C   -0.001197  -0.000007   0.003524  -0.011897   0.001209   0.015571
    29  N    0.000046   0.000000  -0.000624  -0.000179   0.009407  -0.000724
    30  S   -0.000002   0.000000  -0.000070   0.000454   0.012621  -0.000166
    31  N    0.000000   0.000000  -0.000005   0.000006   0.002499  -0.000005
    32  C   -0.000011  -0.000001   0.000300   0.000233   0.160923  -0.007986
    33  H    0.000000   0.000000  -0.000000   0.000000  -0.000021   0.000000
[...]
 .00134201,-0.00038871,-0.00009379,0.00126819,-0.00091053,-0.00245810,0
 .00729889,-0.00014728,0.00047795,0.00009224,-0.00018309,-0.00019076,0.
 00001175,-0.00000677,0.00030687,-0.00011025,-0.00006063,-0.00004263,-0
 .00000532,0.00029848,0.00025000,0.00000518,0.00001012,-0.00000446,0.00
 000124,-0.00001083,0.00000339,-0.00003028,0.00001084,0.00000587,0.0000
 1608,-0.00001025,0.00000974,-0.00000622,-0.00000097,-0.00001838,-0.000
 00063,-0.00000011,-0.00000028,0.00000088,0.00000014,0.,0.00000101,0.00
 000101,-0.00000115,0.00000200,0.00000165,-0.00000231,-0.00000113,0.000
 01275,-0.00006546,-0.00001272,0.06735655,0.02638439,0.04155020,0.00000
 084,0.00000686,0.00000121,-0.00000844,0.00000282,0.00000038,0.00000194
 ,-0.00000593,-0.00000082,-0.00000990,0.00000189,0.00000125,0.00000612,
 -0.00000253,-0.00000030,0.00001082,0.00000541,-0.00000094,-0.00001811,
 -0.00000457,-0.00000232,0.00000073,-0.00000588,0.00000134,0.00000918,0
 .00000169,0.00001210,-0.00001441,-0.00001735,0.00000488,0.00000410,0.0
 0003921,-0.00003836,-0.00007155,-0.00015689,0.00003991,0.00072503,0.00
 097558,0.00003618,-0.00355279,0.00267547,-0.00075782,0.00747219,0.0242
 1043,0.00545072,-0.06794452,-0.05058682,-0.01541499,-0.00146595,-0.029
 99957,-0.00633042,-0.00549580,-0.00026386,-0.00294761,0.00108241,-0.00
 070848,-0.00009959,-0.00042702,-0.00083197,-0.00001205,0.00011589,0.00
 020121,0.00008419,-0.00079903,-0.00010143,-0.00009154,-0.00038180,0.00
 014370,0.00001620,0.00001688,-0.00004306,0.00003984,0.00000057,0.00004
 262,-0.00001614,-0.00003685,0.00003859,-0.00000482,0.00005068,0.000055
 66,-0.00006808,0.00001513,0.00001474,-0.00000106,0.00000324,-0.0000133
 2,-0.00000272,-0.00001020,0.00000092,-0.00000116,-0.00000537,0.0000028
 9,0.00000124,-0.00000648,0.00000192,0.00000117,-0.00000026,0.00000049,
 -0.00000007,-0.00000007,-0.00000016,-0.00000022,0.00000008,0.00000059,
 -0.00000014,0.00000057,-0.00000246,-0.00000233,-0.00001141,0.00001002,
 0.00000288,0.00081522,-0.00051774,0.00046684,0.06914182,-0.00000702,-0
 .00003946,-0.00000627,0.00004360,-0.00001599,-0.00000187,-0.00000519,0
 .00002331,0.00000344,0.00005507,-0.00001019,-0.00000332,-0.00003399,0.
 00001675,0.00000225,-0.00006024,0.00001667,0.00000352,0.00006970,0.000
 01266,0.00000975,-0.00001520,0.00001408,-0.00000560,-0.00004150,-0.000
 00029,-0.00002335,0.00003361,0.00001492,-0.00000353,-0.00008067,-0.000
 03784,0.00007353,0.00026539,0.00015410,-0.00009234,-0.00098467,-0.0005
 0626,-0.00007497,0.00364105,-0.00034815,-0.00030915,-0.00594457,-0.015
 23133,-0.00428020,-0.05133258,-0.31676182,-0.06050807,0.00034200,-0.00
 489571,-0.00147832,-0.00092285,0.00180804,-0.00152093,0.00025074,-0.00
 032897,-0.00020472,-0.00051136,-0.00001109,0.00011104,0.00019287,0.000
 13696,0.00010943,0.00031215,0.00035300,0.00020444,0.00029345,-0.000173
 03,-0.00001578,0.00003196,0.00007602,-0.00001788,-0.00004945,-0.000064
 61,0.00002614,0.00009134,-0.00003550,-0.00000992,-0.00003624,-0.000065
 11,0.00006137,-0.00002757,-0.00003194,-0.00000269,0.00000189,0.0000276
 6,0.00001292,-0.00000358,0.00000579,-0.00000031,0.00003485,-0.00001349
 ,-0.00000312,0.00001546,-0.00003257,-0.00000179,0.00000229,-0.00000219
 ,-0.00000027,-0.00000003,0.00000055,0.00000022,-0.00000425,-0.00000044
 ,-0.00000016,-0.00000150,0.00001063,0.00000888,0.00001835,-0.00000846,
 -0.00000782,0.00007300,0.00078561,0.00059057,0.05478192,0.33449834,0.0
 0000087,0.00000323,-0.00000055,-0.00000472,0.00000179,0.00000018,0.000
 00193,-0.00000103,-0.00000052,-0.00000208,-0.00000063,-0.00000053,0.00
 000155,-0.00000144,-0.00000068,-0.00000212,-0.00000355,0.00000325,0.00
 000586,-0.00000221,-0.00000389,-0.00000615,0.00001234,-0.00000275,0.00
 002743,-0.00001593,-0.00000032,-0.00002420,0.00004849,0.00002081,0.000
 05430,-0.00009894,-0.00000063,-0.00008830,-0.00010644,-0.00003784,0.00
 034548,-0.00007354,0.00030861,-0.00119018,-0.00001149,0.00393325,-0.00
 007808,0.00143644,0.00237865,-0.01563503,-0.06031293,-0.04981510,-0.00
 075644,-0.00724459,0.00207103,-0.00305576,-0.00141436,0.00833301,-0.00
 004336,-0.00027559,0.00113392,0.00029263,0.00001252,-0.00131346,-0.000
 02175,-0.00004549,-0.00022157,0.00014423,0.00022957,-0.00021634,0.0000
 4435,-0.00000851,-0.00017465,-0.00002690,-0.00004730,0.00002978,0.0000
 0736,0.00009175,-0.00002079,0.00001431,-0.00002736,0.00000344,-0.00000
 708,-0.00000114,-0.00001260,-0.00000688,-0.00000344,0.00000800,0.00000
 168,0.00000345,-0.00000781,-0.00000060,-0.00000306,0.00000532,-0.00000
 062,0.00000022,-0.00000333,0.00000116,0.00000439,-0.00000049,-0.000000
 24,0.,0.00000064,-0.00000014,-0.00000013,0.00000059,0.00000034,-0.0000
 0016,0.00000103,-0.00000017,0.,0.00000200,0.00000419,-0.00000758,-0.00
 000367,0.00045417,0.00044629,-0.00215991,0.01841427,0.06635880,0.04068
 943,0.00000411,0.00002111,0.00000362,-0.00002275,0.00000857,0.00000102
 ,0.00000217,-0.00001092,-0.00000139,-0.00002951,0.00000535,0.00000019,
 0.00001809,-0.00000924,-0.00000073,0.00003289,-0.00001575,-0.00000252,
 -0.00003300,-0.00000417,-0.00000255,0.00000797,-0.00000666,0.00000277,
 0.00002254,0.00000178,0.00000630,-0.00000506,0.00002918,-0.00001845,0.
 00010291,-0.00002349,-0.00002242,-0.00012216,0.00014791,0.00006628,-0.
 00002862,-0.00005324,0.00029528,0.00001049,-0.00044961,0.00010695,-0.0
 0323909,-0.00328474,-0.00299847,-0.01640901,0.02178672,-0.00037774,-0.
 21627785,0.13854349,-0.01129012,0.00843692,-0.00440518,0.00027217,0.00
 019147,-0.00022574,0.00039193,0.00001237,0.00048048,0.00018774,0.00026
 836,-0.00036856,0.00001375,0.00059744,-0.00160211,-0.00103447,-0.00002
 323,-0.00001092,-0.00001184,0.00000247,-0.00000167,-0.00000432,0.00001
 953,0.00000786,-0.00000019,-0.00002460,0.00002111,0.00000145,-0.000034
 24,-0.00000030,-0.00001226,0.00000572,0.00000929,-0.00000092,-0.000006
 16,-0.00000875,-0.00000483,0.00001411,-0.00000249,-0.00000041,-0.00002
 160,0.00000796,0.00000266,-0.00000574,0.00001982,0.00000140,-0.0000013
 2,0.00000115,-0.00000002,0.00000005,-0.00000021,-0.00000027,0.00000289
 ,-0.00000012,-0.00000022,0.00000062,-0.00000515,-0.00000443,-0.0000077
 5,0.00000076,0.00000895,-0.00077033,0.00102176,0.00000491,0.00085372,-
 0.00043916,0.00116556,0.22653888,-0.00000068,-0.00000393,-0.00000082,0
 .00000318,-0.00000144,-0.00000014,0.00000101,0.00000178,0.00000040,0.0
 0000542,-0.00000151,0.00000091,-0.00000332,0.00000176,0.00000026,-0.00
 000906,0.00000445,-0.00000051,0.00001155,0.00000067,-0.00000032,-0.000
 00987,-0.00000164,-0.00000028,0.00000138,0.00000589,0.00000050,-0.0000
 0303,0.00002859,-0.00000642,0.00003614,-0.00003827,-0.00003875,-0.0000
 2028,0.00007966,0.00003058,0.00001592,0.00004324,0.00029755,-0.0007973
 5,-0.00036232,-0.00011433,-0.00194507,0.00057491,-0.00185152,-0.008469
 53,0.01026095,-0.00072330,0.14104311,-0.18127021,0.00203221,0.02393106
 ,-0.01435450,0.00166397,0.00017152,0.00178254,0.00076632,-0.00004703,-
 0.00069987,-0.00005634,0.00128352,-0.00067132,0.00022874,-0.00269402,-
 0.00308311,-0.00200999,-0.00004892,-0.00003981,0.00000197,0.00003302,-
 0.00001676,0.00003199,-0.00000950,0.00004042,-0.00001489,0.00005375,-0
 .00000811,-0.00001178,-0.00004604,-0.00003534,0.00001117,-0.00000266,-
 0.00000231,-0.00000273,0.00000267,0.00000162,0.00000251,-0.00000267,0.
 00000061,-0.00000059,0.00000515,-0.00000235,0.00000001,0.00000134,-0.0
 0000189,0.00000105,0.00000037,-0.00000023,-0.00000007,-0.00000012,0.00
 000003,-0.00000006,-0.00000084,0.00000020,-0.00000010,-0.00000098,0.00
 000322,0.00000229,0.00000149,-0.00000089,-0.00000076,-0.00041877,0.000
 31365,-0.00002077,0.00011790,0.00069372,0.00108728,-0.15138744,0.18745
 073,-0.00000048,-0.00000134,-0.00000008,0.00000241,-0.00000089,-0.0000
 0068,-0.00000134,0.00000120,-0.00000056,0.00000107,0.00000058,0.000000
 89,-0.00000049,0.00000089,-0.00000092,0.00000353,0.00000112,0.00000041
 ,-0.00000699,0.00000547,-0.00000150,0.00000380,-0.00000874,0.00000146,
 -0.00000608,0.00000993,0.00000227,-0.00003421,-0.00009970,0.00001564,-
 0.00005889,0.00016410,-0.00000472,0.00021050,-0.00018846,0.00009003,0.
 00041334,0.00023640,-0.00141949,-0.00033849,-0.00026684,-0.00089195,-0
 .00264840,-0.00207568,0.00829478,-0.00559236,0.00517922,0.00482054,-0.
 01100296,0.00128662,-0.03811190,0.00537785,-0.00373777,0.00387654,0.00
 042701,0.00062940,-0.00179970,0.00012276,0.00012731,-0.00040770,0.0003
 2178,-0.00030513,-0.00007143,-0.00111600,-0.00147855,0.00387669,-0.000
 10676,0.00014242,0.00008547,-0.00002899,-0.00005559,0.00003054,-0.0000
 0643,0.00007770,-0.00005000,-0.00002760,-0.00002369,0.00000630,0.00010
 136,0.00008617,-0.00000488,0.00000098,-0.00000075,0.00000183,-0.000001
 29,0.00000179,-0.00000247,0.00000182,0.00000077,0.00000306,0.00000038,
 0.00000153,-0.00000282,0.00000042,-0.00000513,0.00000103,0.00000007,-0
 .00000012,0.00000032,0.00000004,-0.00000006,0.00000055,0.00000011,-0.0
 0000027,0.00000066,0.00000027,-0.00000038,0.00000040,0.00000551,-0.000
 00960,-0.00000673,-0.00029839,0.00033183,-0.00008189,0.00125754,0.0010
 1772,-0.00496615,0.01338159,-0.00083056,0.02613719,0.00000062,0.000003
 62,0.00000046,-0.00000407,0.00000128,0.00000047,0.00000068,-0.00000204
 ,0.00000004,-0.00000539,0.00000137,-0.00000128,0.00000337,-0.00000149,
 0.00000068,0.00000636,-0.00000144,0.00000117,-0.00000912,-0.00000062,0
 .00000038,0.00000276,-0.00000565,0.00000048,-0.00000222,0.00000229,-0.
 00000677,-0.00000771,-0.00001860,0.00000760,-0.00000922,0.00003907,0.0
 0003967,-0.00004652,0.00001600,-0.00000629,-0.00008075,-0.00017605,-0.
 00016279,-0.00002339,0.00102355,-0.00000665,0.00008264,-0.00026230,0.0
 0003793,-0.00035348,-0.00002471,-0.00003457,0.00029146,0.00042504,0.00
 056356,-0.00676068,0.00877221,-0.00003526,-0.34053219,0.07131963,-0.06
 049486,-0.00326824,0.00239081,0.00129061,0.00293088,-0.00028130,0.0000
 1662,-0.00167032,-0.00246187,-0.00178211,-0.00001491,0.00001322,0.0000
 0128,-0.00000722,0.00002878,-0.00003473,-0.00000851,0.00000161,-0.0000
 0477,-0.00001329,0.00000662,0.00000189,0.00001720,0.00001187,-0.000002
 19,0.00000144,0.00000400,-0.00000077,-0.00000090,-0.00000244,-0.000000
 07,0.00000175,-0.00000010,-0.00000062,-0.00000303,0.00000137,0.0000006
 9,-0.00000075,0.00000265,-0.00000031,-0.00000018,0.00000022,-0.0000001
 5,-0.00000006,-0.00000002,-0.00000025,0.00000038,0.00000006,-0.0000002
 1,0.00000011,-0.00000070,-0.00000148,-0.00000590,0.00000266,0.00000021
 ,0.00000920,-0.00003254,-0.00001703,-0.00006074,-0.00003937,-0.0000166
 2,-0.00005211,-0.00045948,-0.00016019,0.34953321,0.00000104,0.00000526
 ,0.00000094,-0.00000624,0.00000232,0.00000032,0.00000110,-0.00000333,-
 0.00000033,-0.00000740,0.00000142,0.00000024,0.00000458,-0.00000239,-0
 .00000004,0.00000718,-0.00000118,-0.00000072,-0.00000685,-0.00000182,-
 0.00000119,-0.00000277,-0.00000462,0.00000064,0.00000760,0.00000169,-0
 .00000538,-0.00002071,-0.00000308,-0.00000442,0.00001256,0.00002074,0.
 00003643,-0.00015522,0.00003405,0.00000978,-0.00005450,-0.00031077,-0.
 00015631,-0.00072448,0.00112172,-0.00015758,0.00003622,0.00027025,0.00
 012242,0.00026956,-0.00026571,0.00004459,0.00047558,0.00103070,0.00067
 692,-0.01262727,0.01204038,-0.00075586,0.05923949,-0.06733569,0.004010
 39,0.03729257,-0.01306060,0.00730783,-0.00275441,-0.00569665,-0.002136
 37,-0.00249346,-0.00209764,-0.00178240,-0.00005516,0.00000436,0.000026
 17,0.00004320,0.00001329,0.00008630,-0.00000906,0.00007027,-0.00002903
 ,0.00002028,-0.00000889,-0.00001339,-0.00001100,0.00000104,0.00001305,
 0.00000044,0.00000359,0.00000049,-0.00000004,-0.00000230,-0.00000024,0
 .00000199,-0.00000085,-0.00000079,-0.00000385,0.00000169,0.00000056,-0
 .00000083,0.00000479,0.00000082,-0.00000024,0.00000033,-0.00000009,0.,
 -0.00000002,-0.00000016,0.00000051,0.00000011,-0.00000014,-0.00000090,
 0.00000072,-0.00000026,-0.00000800,0.00000396,0.00000049,-0.00000300,-
 0.00001658,-0.00001443,-0.00004461,-0.00003123,-0.00001892,0.00029950,
 -0.00041633,-0.00007168,-0.08030142,0.07432809,-0.00000101,-0.00000493
 ,-0.00000128,0.00000622,-0.00000230,-0.00000089,-0.00000144,0.00000290
 ,-0.00000051,0.00000547,-0.00000016,0.00000085,-0.00000355,0.00000225,
 -0.00000048,-0.00000357,0.00000131,0.00000129,0.00000400,0.00000439,0.
 00000001,-0.00000332,-0.00000869,-0.00000079,-0.00001306,0.00002162,0.
 00000893,0.00002791,-0.00000584,0.00000325,-0.00005200,-0.00000857,-0.
 00005002,-0.00008784,0.00007908,-0.00007667,-0.00022094,-0.00019709,0.
 00053287,-0.00020550,0.00031348,0.00077044,0.00007627,0.00012160,-0.00
 035479,0.00007533,-0.00004485,-0.00016485,0.00050222,0.00058176,-0.001
 71988,-0.00404285,0.00418694,0.00051080,-0.06289918,0.00690818,-0.0305
 9721,0.00818767,-0.00086014,-0.00514020,-0.00071163,-0.00163434,0.0018
 3096,-0.00184077,-0.00166123,0.00349667,-0.00000717,-0.00013219,0.0000
 4321,0.00012954,-0.00007969,0.00012190,0.00000176,0.00005792,0.0000044
 5,0.00004261,-0.00000080,-0.00001153,-0.00002793,-0.00001766,-0.000028
 96,0.00000298,-0.00000216,0.00000229,-0.00000148,0.00000082,-0.0000031
 6,0.00000127,0.00000244,0.00000298,0.00000288,-0.00000103,-0.00000230,
 0.00000196,-0.00000412,-0.00000154,0.00000031,-0.00000035,0.00000060,0
 .00000005,-0.00000005,0.00000089,-0.00000047,-0.00000021,0.00000080,-0
 .00000068,0.00000241,0.00000171,-0.00000311,0.00000662,0.00000599,-0.0
 0000615,-0.00002743,0.00004405,-0.00002899,-0.00002097,0.00001676,-0.0
 0001569,-0.00025311,0.00023725,0.06119125,-0.00711614,0.02866868,-0.00
 000408,-0.00002596,-0.00000415,0.00002515,-0.00000918,-0.00000083,0.00
 000093,0.00001280,0.00000172,0.00003780,-0.00000866,-0.00000240,-0.000
 02288,0.00001060,0.00000130,-0.00005096,0.00002177,0.00000391,0.000071
 43,0.00000537,-0.00000327,-0.00005878,0.00000279,0.00000314,0.00000817
 ,0.00001956,-0.00002188,-0.00009318,0.00008605,-0.00002422,0.00008094,
 -0.00006040,0.00002559,-0.00036855,0.00017485,0.00000198,0.00028598,-0
 .00031720,0.00013510,0.00025539,0.00048205,0.00045511,-0.00034590,0.00
 022513,-0.00001951,0.00025302,0.00005687,0.00016793,0.00107213,-0.0005
 0742,-0.00005582,-0.00114059,-0.00245613,-0.00201611,-0.00474039,-0.00
 398536,-0.00249325,-0.01855529,0.03577124,0.00358785,-0.08082075,0.088
 40404,0.00128342,0.01204562,-0.01026123,0.00090068,-0.00112453,-0.0002
 8706,-0.00029487,-0.00122325,0.00078036,-0.00090773,-0.00023425,0.0003
 7147,-0.00029251,0.00020343,0.00007297,-0.00010386,-0.00014216,-0.0002
 5099,0.00003530,-0.00002527,-0.00002041,-0.00000229,0.00000838,0.00001
 841,0.00000983,-0.00000916,0.00000184,-0.00000272,0.00002886,-0.000010
 32,-0.00000169,0.00001080,-0.00001620,0.00000339,0.00000183,-0.0000013
 3,-0.00000024,-0.00000013,0.00000027,0.00000011,-0.00000408,0.00000048
 ,0.00000009,-0.00001095,0.00002106,0.00001661,-0.00001046,0.00000360,-
 0.00001181,-0.00001838,-0.00006782,-0.00000338,-0.00000647,-0.00000968
 ,-0.00001427,-0.00003156,-0.00034285,-0.00019781,0.00005882,0.00157800
 ,-0.00008137,0.09459332,-0.00000183,-0.00000848,-0.00000090,0.00001051
 ,-0.00000320,-0.00000036,-0.00000259,0.00000268,0.00000028,0.00001095,
 -0.00000065,0.00000272,-0.00000727,0.00000335,-0.00000078,-0.00000893,
 0.00001039,-0.00000182,0.00001328,0.00000104,-0.00000247,-0.00000516,-
 0.00000249,-0.00000124,-0.00000572,0.00001251,0.00000226,0.00000111,0.
 00000301,0.00000448,-0.00003128,-0.00000432,-0.00001405,-0.00014263,0.
 00008884,0.00005208,-0.00010356,-0.00034611,-0.00000540,0.00040719,0.0
 0042728,0.00020497,0.00008139,-0.00038706,-0.00003002,-0.00029971,0.00
 010256,0.00002559,0.00126011,-0.00008073,0.00012754,-0.00234820,-0.002
 33679,-0.00159139,-0.00149335,0.00213530,-0.00031088,0.00004949,0.0024
 7514,0.00119324,0.10036616,-0.34167258,-0.03070533,0.01038172,-0.00695
 239,0.00144211,-0.00025555,0.00001193,0.00017421,0.00115903,-0.0001382
 1,0.00134730,0.00033022,0.00018024,0.00033017,0.00037150,-0.00027133,-
 0.00026833,-0.00010856,-0.00001214,0.00010818,-0.00000263,-0.00000652,
 -0.00000123,0.00000205,0.00000302,0.00000151,-0.00000410,0.00000016,-0
 .00000117,0.00000816,-0.00000226,0.00000017,0.00000110,-0.00000743,0.0
 0000145,0.00000053,-0.00000029,-0.00000020,0.00000034,0.00000016,-0.00
 000013,-0.00000118,0.00000017,-0.00000015,0.00000048,0.00001007,0.0000
 0891,-0.00000576,0.00000070,-0.00000740,-0.00002408,-0.00007614,-0.000
 02144,-0.00002591,-0.00000314,-0.00001082,-0.00009817,-0.00027651,-0.0
 0014122,0.00000421,0.00029891,-0.00020966,-0.10948338,0.34682131,-0.00
 000379,-0.00002220,-0.00000429,0.00002443,-0.00000763,-0.00000257,-0.0
 0000331,0.00000919,-0.00000119,0.00003221,-0.00000407,0.00000161,-0.00
 001950,0.00000847,-0.00000132,-0.00003681,0.00002049,0.00000154,0.0000
 6043,-0.00000058,-0.00001298,-0.00004164,-0.00000199,-0.00000726,0.000
 01429,0.00003487,-0.00002231,-0.00000058,0.00008912,-0.00006940,0.0001
 9027,-0.00016419,0.00010330,-0.00024247,0.00020532,-0.00009461,0.00017
 521,-0.00026240,-0.00005937,0.00050745,0.00064360,-0.00134438,-0.00003
 580,-0.00021907,-0.00002454,-0.00010546,0.00011055,-0.00044490,0.00048
 751,-0.00013266,0.00078126,-0.00227734,-0.00226268,0.00347124,-0.00185
 984,0.00008896,0.00206860,-0.00128861,0.00808191,-0.00515428,0.0017908
 8,-0.02956560,-0.02331221,0.00415089,-0.00484283,0.00113034,-0.0005213
 1,-0.00081603,0.00036280,-0.00049416,0.00040067,0.00013737,-0.00051609
 ,0.00100946,-0.00034688,0.00064848,-0.00006935,-0.00024294,-0.00004829
 ,-0.00029758,0.00003181,-0.00001182,-0.00002254,-0.00000349,0.00001077
 ,0.00001683,-0.00000064,-0.00001094,0.00000020,0.00000370,0.00002759,-
 0.00000830,-0.00000645,0.00000796,-0.00001399,0.00001181,0.00000136,-0
 .00000122,0.00000119,0.00000037,-0.00000019,0.00000243,-0.00000306,0.0
 0000025,0.00000192,-0.00001256,0.00002560,0.00003778,-0.00000130,0.000
 01264,-0.00000543,-0.00001343,-0.00004748,-0.00000444,-0.00000962,-0.0
 0000070,0.00002387,-0.00011026,-0.00022159,0.00034174,-0.00038503,-0.0
 0007251,0.00184739,-0.00007708,0.02829924,0.02080416\\0.00000067,0.000
 00254,0.00000123,0.00000079,-0.00000135,-0.00000270,-0.00000059,0.0000
 0304,-0.00000792,0.00000149,0.00000061,-0.00000128,-0.00000004,0.00000
 025,0.00000068,0.00000090,-0.00000188,0.00000573,-0.00000317,0.0000026
 0,0.00000115,0.00000530,0.00000193,-0.00001774,0.00000069,-0.00000206,
 -0.00000065,0.00000585,0.00000660,0.00000795,-0.00000268,-0.00000341,-
 0.00000711,-0.00000733,0.00000398,0.00000810,0.00000379,0.00000321,0.0
 0000572,-0.00000076,0.00000449,-0.00000084,0.00000365,-0.00000912,-0.0
 0000323,-0.00000076,0.00000038,0.00001002,-0.00000362,0.00000181,0.000
 00631,-0.00000465,-0.00000147,-0.00000176,0.00000706,0.00000196,-0.000
 00033,-0.00000434,-0.00000161,-0.00000592,0.00000310,0.00000380,0.0000
 0474,0.00000304,-0.00000173,-0.00000963,-0.00000378,-0.00001433,-0.000
 00235,-0.00000747,0.00000012,-0.00000581,0.00000458,0.00000628,-0.0000
 0758,0.00000360,-0.00000412,-0.00000261,-0.00000723,-0.00000311,-0.000
 00080,-0.00000061,-0.00000168,-0.00000299,-0.00000740,0.00000623,0.000
 01238,-0.00000506,-0.00000934,0.00000035,0.00000815,-0.00000110,0.0000
 0200,0.00000184,0.00000221,0.00000753,0.00000007,0.00000049,0.00000034
 ,0.00000154,0.00000153,-0.00000558,-0.00000014,-0.00000007,0.00000164,
 0.00000095,-0.00000154,0.00000096,-0.00000031,0.00000370,0.00000736,0.
 00000162,-0.00000026,0.00000590,0.00000056,-0.00000130,0.00000478,-0.0
 0000124,-0.00000162,0.00000263,0.00000075,0.00000219,-0.00000436,0.000
 00119,0.00000113,-0.00000634\\\@


 LET US LEARN TO DREAM, GENTLEMEN, THEN PERHAPS WE SHALL
 DISCOVER THE TRUTH;  BUT LET US BEWARE OF PUBLISHING
 OUR DREAMS ABROAD BEFORE THEY HAVE BEEN SCRUTINIZED
 BY OUR VIGILANT INTELLECT ... LET US ALWAYS ALLOW
 THE FRUIT TO HANG UNTIL IT IS RIPE.  UNRIPE FRUIT
 BRINGS EVEN THE GROWER BUT LITTLE PROFIT; IT DAMAGES
 THE HEALTH OF THOSE WHO CONSUME IT; IT ENDANGERS
 PARTICULARLY THE YOUTH WHO CANNOT YET DISTINGUISH
 BETWEEN RIPE AND UNRIPE FRUIT.

                                  -- KEKULE, 1890
 Job cpu time:  1 days  2 hours 38 minutes  0.1 seconds.
 File lengths (MBytes):  RWF=   2004 Int=      0 D2E=      0 Chk=     35 Scr=      1
 Normal termination of Gaussian 09 at Sun Dec 29 16:38:56 2013.
