 Entering Gaussian System, Link 0=g09
 Initial command:
 /opt/gaussian/g09/l1.exe /panfs/panfs.cluster/home/shuo/Gau-20432.inp -scrdir=/panfs/panfs.cluster/home/shuo/
 Default is to use a total of  12 processors:
                               12 via shared-memory
                                1 via Linda
 Entering Link 1 = /opt/gaussian/g09/l1.exe PID=     20433.
  
 Copyright (c) 1988,1990,1992,1993,1995,1998,2003,2009,2011,
            Gaussian, Inc.  All Rights Reserved.
  
 This is part of the Gaussian(R) 09 program.  It is based on
 the Gaussian(R) 03 system (copyright 2003, Gaussian, Inc.),
 the Gaussian(R) 98 system (copyright 1998, Gaussian, Inc.),
 the Gaussian(R) 94 system (copyright 1995, Gaussian, Inc.),
 the Gaussian 92(TM) system (copyright 1992, Gaussian, Inc.),
 the Gaussian 90(TM) system (copyright 1990, Gaussian, Inc.),
 the Gaussian 88(TM) system (copyright 1988, Gaussian, Inc.),
 the Gaussian 86(TM) system (copyright 1986, Carnegie Mellon
 University), and the Gaussian 82(TM) system (copyright 1983,
 Carnegie Mellon University). Gaussian is a federally registered
 trademark of Gaussian, Inc.
  
 This software contains proprietary and confidential information,
 including trade secrets, belonging to Gaussian, Inc.
  
 This software is provided under written license and may be
 used, copied, transmitted, or stored only in accord with that
 written license.
  
 The following legend is applicable only to US Government
 contracts under FAR:
  
                    RESTRICTED RIGHTS LEGEND
  
 Use, reproduction and disclosure by the US Government is
 subject to restrictions as set forth in subparagraphs (a)
 and (c) of the Commercial Computer Software - Restricted
 Rights clause in FAR 52.227-19.
  
 Gaussian, Inc.
 340 Quinnipiac St., Bldg. 40, Wallingford CT 06492
  
  
 ---------------------------------------------------------------
 Warning -- This program may not be used in any manner that
 competes with the business of Gaussian, Inc. or will provide
 assistance to any competitor of Gaussian, Inc.  The licensee
 of this program is prohibited from giving any competitor of
 Gaussian, Inc. access to this program.  By using this program,
 the user acknowledges that Gaussian, Inc. is engaged in the
 business of creating and licensing software in the field of
 computational chemistry and represents and warrants to the
 licensee that it is not a competitor of Gaussian, Inc. and that
 it will not use this program in any manner prohibited above.
 ---------------------------------------------------------------
  

 Cite this work as:
 Gaussian 09, Revision C.01,
 M. J. Frisch, G. W. Trucks, H. B. Schlegel, G. E. Scuseria, 
 M. A. Robb, J. R. Cheeseman, G. Scalmani, V. Barone, B. Mennucci, 
 G. A. Petersson, H. Nakatsuji, M. Caricato, X. Li, H. P. Hratchian, 
 A. F. Izmaylov, J. Bloino, G. Zheng, J. L. Sonnenberg, M. Hada, 
 M. Ehara, K. Toyota, R. Fukuda, J. Hasegawa, M. Ishida, T. Nakajima, 
 Y. Honda, O. Kitao, H. Nakai, T. Vreven, J. A. Montgomery, Jr., 
 J. E. Peralta, F. Ogliaro, M. Bearpark, J. J. Heyd, E. Brothers, 
 K. N. Kudin, V. N. Staroverov, T. Keith, R. Kobayashi, J. Normand, 
 K. Raghavachari, A. Rendell, J. C. Burant, S. S. Iyengar, J. Tomasi, 
 M. Cossi, N. Rega, J. M. Millam, M. Klene, J. E. Knox, J. B. Cross, 
 V. Bakken, C. Adamo, J. Jaramillo, R. Gomperts, R. E. Stratmann, 
 O. Yazyev, A. J. Austin, R. Cammi, C. Pomelli, J. W. Ochterski, 
 R. L. Martin, K. Morokuma, V. G. Zakrzewski, G. A. Voth, 
 P. Salvador, J. J. Dannenberg, S. Dapprich, A. D. Daniels, 
 O. Farkas, J. B. Foresman, J. V. Ortiz, J. Cioslowski, 
 and D. J. Fox, Gaussian, Inc., Wallingford CT, 2010.
 
 ******************************************
 Gaussian 09:  EM64L-G09RevC.01 23-Sep-2011
                29-Dec-2013 
 ******************************************
 %chk=73_C24H14N4S2Si2.chk
 %NProcShared=12
 Will use up to   12 processors via shared memory.
 %Mem=8000MB
 Default route:  MaxDisk=100GB
 --------------------------------------------
 #B3LYP/6-31++G(d,p) opt scf=direct freq test
 --------------------------------------------
 1/14=-1,18=20,19=15,26=3,38=1/1,3;
 2/9=110,12=2,17=6,18=5,40=1/2;
 3/5=1,6=6,7=1111,11=2,16=1,25=1,30=1,71=1,74=-5/1,2,3;
 4//1;
 5/5=2,38=5/2;
 6/7=2,8=2,9=2,10=2,28=1/1;
 7//1,2,3,16;
 1/14=-1,18=20,19=15/3(2);
 2/9=110/2;
 99//99;
 2/9=110/2;
 3/5=1,6=6,7=1111,11=2,16=1,25=1,30=1,71=1,74=-5/1,2,3;
 4/5=5,16=3/1;
 5/5=2,38=5/2;
 7//1,2,3,16;
 1/14=-1,18=20,19=15/3(-5);
 2/9=110/2;
 6/7=2,8=2,9=2,10=2,19=2,28=1/1;
 99/9=1/99;
 ----------------------------------------------------------------------
 Geom opt of No.73 candidate from the CEPDB database with SMILE code of
  C1C=c2c3c4ncccc4[Se]c3c3ncc(cc3c2=C1)-c1nccc2nsnc12, HPC, 20131227, S
 huo Dai, Gaussian09
 ----------------------------------------------------------------------
 Charge =  0 Multiplicity = 1
 Symbolic Z-Matrix:
 C                     1.44261  -0.92188  -0.56438 
 C                     2.32596   0.093     0.05694 
 C                     1.80383   1.12144   0.68655 
 C                     0.41011   1.10366   0.78957 
 C                    -0.53793   0.23599   0.27931 
 N                    -0.46558  -0.90966  -0.50378 
 C                    -1.61811  -1.57354  -0.85893 
 C                    -2.86157  -1.10345  -0.43738 
 C                    -2.95264   0.03349   0.34134 
 C                    -1.78781   0.71779   0.70933 
 Se                   -1.56024   1.82536   1.44181 
 C                    -0.26534   2.06451   1.49711 
 C                     0.50571   3.12993   2.15613 
 N                    -0.11604   4.13743   2.89087 
 C                     0.65054   5.11441   3.48906 
 C                     2.03341   5.10132   3.36841 
 C                     2.66824   4.11441   2.64534 
 C                     1.91152   3.11689   2.0312 
 C                     2.54083   2.04194   1.25008 
 C                     2.27008  -1.97046  -1.20632 
 C                     2.81558   6.13321   4.0076 
 N                     2.35026   7.39957   4.07279 
 C                     3.06796   8.3919    4.66207 
 C                     4.27589   8.15802   5.22187 
 C                     4.81627   6.87097   5.19081 
 N                     5.95373   6.30944   5.63124 
 S                     5.93264   5.02949   5.3199 
 N                     4.81176   4.72551   4.68219 
 C                     4.07288   5.82829   4.56989 
 H                     0.82501  -0.45356  -1.30204 
 H                     0.82501  -1.36587   0.18818 
 H                     3.35115  -0.00797  -0.00488 
 H                    -1.5616   -2.42414  -1.44057 
 H                    -3.71948  -1.60857  -0.70917 
 H                    -3.87523   0.37723   0.65069 
 H                     0.192     5.86283   4.03186 
 H                     3.69662   4.11366   2.55902 
 H                     2.54281  -2.81933  -1.726 
 H                     2.68088   9.34833   4.68267 
 H                     4.79668   8.92778   5.6705 
 

 GradGradGradGradGradGradGradGradGradGradGradGradGradGradGradGradGradGrad
 Berny optimization.
 Initialization pass.
                           ----------------------------
                           !    Initial Parameters    !
                           ! (Angstroms and Degrees)  !
 --------------------------                            --------------------------
 ! Name  Definition              Value          Derivative Info.                !
 --------------------------------------------------------------------------------
 ! R1    R(1,2)                  1.482          estimate D2E/DX2                !
 ! R2    R(1,20)                 1.482          estimate D2E/DX2                !
 ! R3    R(1,30)                 1.07           estimate D2E/DX2                !
 ! R4    R(1,31)                 1.07           estimate D2E/DX2                !
 ! R5    R(2,3)                  1.314          estimate D2E/DX2                !
 ! R6    R(2,32)                 1.032          estimate D2E/DX2                !
 ! R7    R(3,4)                  1.3976         estimate D2E/DX2                !
 ! R8    R(3,19)                 1.3069         estimate D2E/DX2                !
 ! R9    R(4,5)                  1.3827         estimate D2E/DX2                !
 ! R10   R(4,11)                 2.1974         estimate D2E/DX2                !
 ! R11   R(4,12)                 1.3712         estimate D2E/DX2                !
 ! R12   R(5,6)                  1.3896         estimate D2E/DX2                !
 ! R13   R(5,10)                 1.4069         estimate D2E/DX2                !
 ! R14   R(5,11)                 2.2187         estimate D2E/DX2                !
 ! R15   R(6,7)                  1.3767         estimate D2E/DX2                !
 ! R16   R(7,8)                  1.3946         estimate D2E/DX2                !
 ! R17   R(7,33)                 1.032          estimate D2E/DX2                !
 ! R18   R(8,9)                  1.3811         estimate D2E/DX2                !
 ! R19   R(8,34)                 1.032          estimate D2E/DX2                !
 ! R20   R(9,10)                 1.4002         estimate D2E/DX2                !
 ! R21   R(9,35)                 1.032          estimate D2E/DX2                !
 ! R22   R(10,11)                1.3472         estimate D2E/DX2                !
 ! R23   R(11,12)                1.318          estimate D2E/DX2                !
 ! R24   R(12,13)                1.471          estimate D2E/DX2                !
 ! R25   R(13,14)                1.3934         estimate D2E/DX2                !
 ! R26   R(13,18)                1.4114         estimate D2E/DX2                !
 ! R27   R(14,15)                1.3784         estimate D2E/DX2                !
 ! R28   R(15,16)                1.3882         estimate D2E/DX2                !
 ! R29   R(15,36)                1.032          estimate D2E/DX2                !
 ! R30   R(16,17)                1.3783         estimate D2E/DX2                !
 ! R31   R(16,21)                1.444          estimate D2E/DX2                !
 ! R32   R(17,18)                1.3946         estimate D2E/DX2                !
 ! R33   R(17,37)                1.032          estimate D2E/DX2                !
 ! R34   R(18,19)                1.4703         estimate D2E/DX2                !
 ! R35   R(20,38)                1.032          estimate D2E/DX2                !
 ! R36   R(21,22)                1.3507         estimate D2E/DX2                !
 ! R37   R(21,29)                1.4107         estimate D2E/DX2                !
 ! R38   R(22,23)                1.3591         estimate D2E/DX2                !
 ! R39   R(23,24)                1.3517         estimate D2E/DX2                !
 ! R40   R(23,39)                1.032          estimate D2E/DX2                !
 ! R41   R(24,25)                1.3962         estimate D2E/DX2                !
 ! R42   R(24,40)                1.032          estimate D2E/DX2                !
 ! R43   R(25,26)                1.3428         estimate D2E/DX2                !
 ! R44   R(25,27)                2.1573         estimate D2E/DX2                !
 ! R45   R(25,29)                1.4231         estimate D2E/DX2                !
 ! R46   R(26,27)                1.3174         estimate D2E/DX2                !
 ! R47   R(27,28)                1.3249         estimate D2E/DX2                !
 ! R48   R(27,29)                2.1585         estimate D2E/DX2                !
 ! R49   R(28,29)                1.3322         estimate D2E/DX2                !
 ! A1    A(2,1,20)             109.4707         estimate D2E/DX2                !
 ! A2    A(2,1,30)             109.4717         estimate D2E/DX2                !
 ! A3    A(2,1,31)             109.4709         estimate D2E/DX2                !
 ! A4    A(20,1,30)            109.4714         estimate D2E/DX2                !
 ! A5    A(20,1,31)            109.4714         estimate D2E/DX2                !
 ! A6    A(30,1,31)            109.4712         estimate D2E/DX2                !
 ! A7    A(1,2,3)              120.0            estimate D2E/DX2                !
 ! A8    A(1,2,32)             120.0002         estimate D2E/DX2                !
 ! A9    A(3,2,32)             119.9998         estimate D2E/DX2                !
 ! A10   A(2,3,4)              114.9352         estimate D2E/DX2                !
 ! A11   A(2,3,19)             122.2604         estimate D2E/DX2                !
 ! A12   A(4,3,19)             122.6507         estimate D2E/DX2                !
 ! A13   A(3,4,5)              131.6425         estimate D2E/DX2                !
 ! A14   A(3,4,11)             155.7642         estimate D2E/DX2                !
 ! A15   A(3,4,12)             121.3559         estimate D2E/DX2                !
 ! A16   A(5,4,12)             107.0015         estimate D2E/DX2                !
 ! A17   A(4,5,6)              133.5982         estimate D2E/DX2                !
 ! A18   A(4,5,10)             106.3455         estimate D2E/DX2                !
 ! A19   A(6,5,10)             120.0564         estimate D2E/DX2                !
 ! A20   A(6,5,11)             155.4853         estimate D2E/DX2                !
 ! A21   A(5,6,7)              119.9586         estimate D2E/DX2                !
 ! A22   A(6,7,8)              120.3933         estimate D2E/DX2                !
 ! A23   A(6,7,33)             119.8037         estimate D2E/DX2                !
 ! A24   A(8,7,33)             119.803          estimate D2E/DX2                !
 ! A25   A(7,8,9)              120.4465         estimate D2E/DX2                !
 ! A26   A(7,8,34)             119.777          estimate D2E/DX2                !
 ! A27   A(9,8,34)             119.7766         estimate D2E/DX2                !
 ! A28   A(8,9,10)             119.7137         estimate D2E/DX2                !
 ! A29   A(8,9,35)             120.144          estimate D2E/DX2                !
 ! A30   A(10,9,35)            120.1423         estimate D2E/DX2                !
 ! A31   A(5,10,9)             119.4317         estimate D2E/DX2                !
 ! A32   A(9,10,11)            133.2512         estimate D2E/DX2                !
 ! A33   A(4,11,10)             73.7442         estimate D2E/DX2                !
 ! A34   A(5,11,12)             72.498          estimate D2E/DX2                !
 ! A35   A(10,11,12)           109.752          estimate D2E/DX2                !
 ! A36   A(4,12,13)            118.7183         estimate D2E/DX2                !
 ! A37   A(11,12,13)           131.6979         estimate D2E/DX2                !
 ! A38   A(12,13,14)           121.7382         estimate D2E/DX2                !
 ! A39   A(12,13,18)           118.4068         estimate D2E/DX2                !
 ! A40   A(14,13,18)           119.8549         estimate D2E/DX2                !
 ! A41   A(13,14,15)           119.5497         estimate D2E/DX2                !
 ! A42   A(14,15,16)           120.6379         estimate D2E/DX2                !
 ! A43   A(14,15,36)           119.681          estimate D2E/DX2                !
 ! A44   A(16,15,36)           119.6811         estimate D2E/DX2                !
 ! A45   A(15,16,17)           120.7409         estimate D2E/DX2                !
 ! A46   A(15,16,21)           119.6291         estimate D2E/DX2                !
 ! A47   A(17,16,21)           119.63           estimate D2E/DX2                !
 ! A48   A(16,17,18)           119.5549         estimate D2E/DX2                !
 ! A49   A(16,17,37)           120.2225         estimate D2E/DX2                !
 ! A50   A(18,17,37)           120.2226         estimate D2E/DX2                !
 ! A51   A(13,18,17)           119.6615         estimate D2E/DX2                !
 ! A52   A(13,18,19)           118.6923         estimate D2E/DX2                !
 ! A53   A(17,18,19)           121.6462         estimate D2E/DX2                !
 ! A54   A(3,19,18)            120.176          estimate D2E/DX2                !
 ! A55   A(1,20,38)            161.3821         estimate D2E/DX2                !
 ! A56   A(16,21,22)           120.3136         estimate D2E/DX2                !
 ! A57   A(16,21,29)           120.3153         estimate D2E/DX2                !
 ! A58   A(22,21,29)           119.3711         estimate D2E/DX2                !
 ! A59   A(21,22,23)           121.5711         estimate D2E/DX2                !
 ! A60   A(22,23,24)           121.6775         estimate D2E/DX2                !
 ! A61   A(22,23,39)           119.1616         estimate D2E/DX2                !
 ! A62   A(24,23,39)           119.161          estimate D2E/DX2                !
 ! A63   A(23,24,25)           119.7445         estimate D2E/DX2                !
 ! A64   A(23,24,40)           120.128          estimate D2E/DX2                !
 ! A65   A(25,24,40)           120.1274         estimate D2E/DX2                !
 ! A66   A(24,25,26)           134.9123         estimate D2E/DX2                !
 ! A67   A(24,25,29)           118.8752         estimate D2E/DX2                !
 ! A68   A(26,25,29)           106.2125         estimate D2E/DX2                !
 ! A69   A(25,27,28)            74.2915         estimate D2E/DX2                !
 ! A70   A(26,27,28)           110.4989         estimate D2E/DX2                !
 ! A71   A(26,27,29)            74.7145         estimate D2E/DX2                !
 ! A72   A(21,29,25)           118.7581         estimate D2E/DX2                !
 ! A73   A(21,29,28)           134.9819         estimate D2E/DX2                !
 ! A74   A(25,29,28)           106.2601         estimate D2E/DX2                !
 ! A75   L(24,25,27,8,-1)      189.6679         estimate D2E/DX2                !
 ! A76   L(21,29,27,1,-1)      170.7877         estimate D2E/DX2                !
 ! A77   L(24,25,27,8,-2)      180.1031         estimate D2E/DX2                !
 ! A78   L(21,29,27,1,-2)      182.2159         estimate D2E/DX2                !
 ! D1    D(20,1,2,3)           179.9999         estimate D2E/DX2                !
 ! D2    D(20,1,2,32)            0.0007         estimate D2E/DX2                !
 ! D3    D(30,1,2,3)            59.9997         estimate D2E/DX2                !
 ! D4    D(30,1,2,32)         -119.9995         estimate D2E/DX2                !
 ! D5    D(31,1,2,3)           -60.0004         estimate D2E/DX2                !
 ! D6    D(31,1,2,32)          120.0004         estimate D2E/DX2                !
 ! D7    D(2,1,20,38)          180.0            estimate D2E/DX2                !
 ! D8    D(30,1,20,38)         -59.9997         estimate D2E/DX2                !
 ! D9    D(31,1,20,38)          60.0005         estimate D2E/DX2                !
 ! D10   D(1,2,3,4)              4.3966         estimate D2E/DX2                !
 ! D11   D(1,2,3,19)          -179.9996         estimate D2E/DX2                !
 ! D12   D(32,2,3,4)          -175.6042         estimate D2E/DX2                !
 ! D13   D(32,2,3,19)           -0.0004         estimate D2E/DX2                !
 ! D14   D(2,3,4,5)             -4.4149         estimate D2E/DX2                !
 ! D15   D(2,3,4,11)           175.5841         estimate D2E/DX2                !
 ! D16   D(2,3,4,12)           175.5841         estimate D2E/DX2                !
 ! D17   D(19,3,4,5)          -179.9996         estimate D2E/DX2                !
 ! D18   D(19,3,4,11)           -0.0005         estimate D2E/DX2                !
 ! D19   D(19,3,4,12)           -0.0005         estimate D2E/DX2                !
 ! D20   D(2,3,19,18)         -175.2644         estimate D2E/DX2                !
 ! D21   D(4,3,19,18)            0.0003         estimate D2E/DX2                !
 ! D22   D(3,4,5,6)             -0.001          estimate D2E/DX2                !
 ! D23   D(3,4,5,10)           179.9996         estimate D2E/DX2                !
 ! D24   D(12,4,5,6)           179.9998         estimate D2E/DX2                !
 ! D25   D(12,4,5,10)            0.0004         estimate D2E/DX2                !
 ! D26   D(3,4,11,10)         -179.9992         estimate D2E/DX2                !
 ! D27   D(3,4,12,13)            0.0005         estimate D2E/DX2                !
 ! D28   D(5,4,12,13)          179.9998         estimate D2E/DX2                !
 ! D29   D(4,5,6,7)           -179.9995         estimate D2E/DX2                !
 ! D30   D(10,5,6,7)            -0.0002         estimate D2E/DX2                !
 ! D31   D(11,5,6,7)            -0.0009         estimate D2E/DX2                !
 ! D32   D(4,5,10,9)           179.9995         estimate D2E/DX2                !
 ! D33   D(6,5,10,9)             0.0            estimate D2E/DX2                !
 ! D34   D(6,5,11,12)         -179.9994         estimate D2E/DX2                !
 ! D35   D(5,6,7,8)              0.0001         estimate D2E/DX2                !
 ! D36   D(5,6,7,33)          -179.9998         estimate D2E/DX2                !
 ! D37   D(6,7,8,9)              0.0002         estimate D2E/DX2                !
 ! D38   D(6,7,8,34)           179.9999         estimate D2E/DX2                !
 ! D39   D(33,7,8,9)          -179.9999         estimate D2E/DX2                !
 ! D40   D(33,7,8,34)           -0.0002         estimate D2E/DX2                !
 ! D41   D(7,8,9,10)            -0.0004         estimate D2E/DX2                !
 ! D42   D(7,8,9,35)          -179.9999         estimate D2E/DX2                !
 ! D43   D(34,8,9,10)          179.9999         estimate D2E/DX2                !
 ! D44   D(34,8,9,35)            0.0004         estimate D2E/DX2                !
 ! D45   D(8,9,10,5)             0.0003         estimate D2E/DX2                !
 ! D46   D(8,9,10,11)          179.9996         estimate D2E/DX2                !
 ! D47   D(35,9,10,5)          179.9998         estimate D2E/DX2                !
 ! D48   D(35,9,10,11)          -0.0009         estimate D2E/DX2                !
 ! D49   D(9,10,11,4)         -179.9994         estimate D2E/DX2                !
 ! D50   D(9,10,11,12)        -179.9999         estimate D2E/DX2                !
 ! D51   D(5,11,12,13)         179.9999         estimate D2E/DX2                !
 ! D52   D(10,11,12,13)       -179.9998         estimate D2E/DX2                !
 ! D53   D(4,12,13,14)         179.9996         estimate D2E/DX2                !
 ! D54   D(4,12,13,18)          -0.0003         estimate D2E/DX2                !
 ! D55   D(11,12,13,14)          0.0003         estimate D2E/DX2                !
 ! D56   D(11,12,13,18)       -179.9996         estimate D2E/DX2                !
 ! D57   D(12,13,14,15)       -179.9523         estimate D2E/DX2                !
 ! D58   D(18,13,14,15)          0.0476         estimate D2E/DX2                !
 ! D59   D(12,13,18,17)        179.9998         estimate D2E/DX2                !
 ! D60   D(12,13,18,19)          0.0            estimate D2E/DX2                !
 ! D61   D(14,13,18,17)         -0.0001         estimate D2E/DX2                !
 ! D62   D(14,13,18,19)       -179.9999         estimate D2E/DX2                !
 ! D63   D(13,14,15,16)         -0.1438         estimate D2E/DX2                !
 ! D64   D(13,14,15,36)        179.8563         estimate D2E/DX2                !
 ! D65   D(14,15,16,17)          0.1946         estimate D2E/DX2                !
 ! D66   D(14,15,16,21)       -179.8054         estimate D2E/DX2                !
 ! D67   D(36,15,16,17)       -179.8056         estimate D2E/DX2                !
 ! D68   D(36,15,16,21)          0.1945         estimate D2E/DX2                !
 ! D69   D(15,16,17,18)         -0.1446         estimate D2E/DX2                !
 ! D70   D(15,16,17,37)        179.8562         estimate D2E/DX2                !
 ! D71   D(21,16,17,18)        179.8554         estimate D2E/DX2                !
 ! D72   D(21,16,17,37)         -0.1438         estimate D2E/DX2                !
 ! D73   D(15,16,21,22)        -36.1734         estimate D2E/DX2                !
 ! D74   D(15,16,21,29)        143.8253         estimate D2E/DX2                !
 ! D75   D(17,16,21,22)        143.8266         estimate D2E/DX2                !
 ! D76   D(17,16,21,29)        -36.1747         estimate D2E/DX2                !
 ! D77   D(16,17,18,13)          0.0481         estimate D2E/DX2                !
 ! D78   D(16,17,18,19)       -179.9522         estimate D2E/DX2                !
 ! D79   D(37,17,18,13)       -179.9526         estimate D2E/DX2                !
 ! D80   D(37,17,18,19)          0.0471         estimate D2E/DX2                !
 ! D81   D(13,18,19,3)           0.0            estimate D2E/DX2                !
 ! D82   D(17,18,19,3)        -179.9998         estimate D2E/DX2                !
 ! D83   D(16,21,22,23)       -179.6541         estimate D2E/DX2                !
 ! D84   D(29,21,22,23)          0.3471         estimate D2E/DX2                !
 ! D85   D(16,21,27,26)        179.9086         estimate D2E/DX2                !
 ! D86   D(22,21,27,26)         -0.1037         estimate D2E/DX2                !
 ! D87   D(16,21,29,25)        179.9497         estimate D2E/DX2                !
 ! D88   D(16,21,29,28)         -0.0346         estimate D2E/DX2                !
 ! D89   D(22,21,29,25)         -0.0515         estimate D2E/DX2                !
 ! D90   D(22,21,29,28)        179.9642         estimate D2E/DX2                !
 ! D91   D(21,22,23,24)         -0.6076         estimate D2E/DX2                !
 ! D92   D(21,22,23,39)        179.392          estimate D2E/DX2                !
 ! D93   D(22,23,24,25)          0.5462         estimate D2E/DX2                !
 ! D94   D(22,23,24,40)       -179.4528         estimate D2E/DX2                !
 ! D95   D(39,23,24,25)       -179.4535         estimate D2E/DX2                !
 ! D96   D(39,23,24,40)          0.5476         estimate D2E/DX2                !
 ! D97   D(23,24,25,26)        179.7132         estimate D2E/DX2                !
 ! D98   D(23,24,25,29)         -0.2439         estimate D2E/DX2                !
 ! D99   D(40,24,25,26)         -0.2879         estimate D2E/DX2                !
 ! D100  D(40,24,25,29)        179.7551         estimate D2E/DX2                !
 ! D101  D(23,24,27,28)         -0.2323         estimate D2E/DX2                !
 ! D102  D(40,24,27,28)        179.7889         estimate D2E/DX2                !
 ! D103  D(24,25,29,21)          0.0026         estimate D2E/DX2                !
 ! D104  D(24,25,29,28)        179.991          estimate D2E/DX2                !
 ! D105  D(26,25,29,21)       -179.9657         estimate D2E/DX2                !
 ! D106  D(26,25,29,28)          0.0227         estimate D2E/DX2                !
 --------------------------------------------------------------------------------
 Trust Radius=3.00D-01 FncErr=1.00D-07 GrdErr=1.00D-06
 Number of steps in this run=    240 maximum allowed number of steps=    240.
 GradGradGradGradGradGradGradGradGradGradGradGradGradGradGradGradGradGrad

                          Input orientation:                          
 ---------------------------------------------------------------------
 Center     Atomic      Atomic             Coordinates (Angstroms)
 Number     Number       Type             X           Y           Z
 ---------------------------------------------------------------------
      1          6           0        1.442610   -0.921880   -0.564380
      2          6           0        2.325960    0.093000    0.056940
      3          6           0        1.803830    1.121440    0.686550
      4          6           0        0.410110    1.103660    0.789570
      5          6           0       -0.537930    0.235990    0.279310
      6          7           0       -0.465580   -0.909660   -0.503780
      7          6           0       -1.618110   -1.573540   -0.858930
      8          6           0       -2.861570   -1.103450   -0.437380
      9          6           0       -2.952640    0.033490    0.341340
     10          6           0       -1.787810    0.717790    0.709330
     11         34           0       -1.560240    1.825360    1.441810
     12          6           0       -0.265340    2.064510    1.497110
     13          6           0        0.505710    3.129930    2.156130
     14          7           0       -0.116040    4.137430    2.890870
     15          6           0        0.650540    5.114410    3.489060
     16          6           0        2.033410    5.101320    3.368410
     17          6           0        2.668240    4.114410    2.645340
     18          6           0        1.911520    3.116890    2.031200
     19          6           0        2.540830    2.041940    1.250080
     20          6           0        2.270080   -1.970460   -1.206320
     21          6           0        2.815580    6.133210    4.007600
     22          7           0        2.350260    7.399570    4.072790
     23          6           0        3.067960    8.391900    4.662070
     24          6           0        4.275890    8.158020    5.221870
     25          6           0        4.816270    6.870970    5.190810
     26          7           0        5.953730    6.309440    5.631240
     27         16           0        5.932640    5.029490    5.319900
     28          7           0        4.811760    4.725510    4.682190
     29          6           0        4.072880    5.828290    4.569890
     30          1           0        0.825010   -0.453560   -1.302040
     31          1           0        0.825010   -1.365870    0.188180
     32          1           0        3.351150   -0.007970   -0.004880
     33          1           0       -1.561600   -2.424140   -1.440570
     34          1           0       -3.719480   -1.608570   -0.709170
     35          1           0       -3.875230    0.377230    0.650690
     36          1           0        0.192000    5.862830    4.031860
     37          1           0        3.696620    4.113660    2.559020
     38          1           0        2.542810   -2.819330   -1.726000
     39          1           0        2.680880    9.348330    4.682670
     40          1           0        4.796680    8.927780    5.670500
 ---------------------------------------------------------------------
                    Distance matrix (angstroms):
                    1          2          3          4          5
     1  C    0.000000
     2  C    1.482001   0.000000
     3  C    2.422904   1.314046   0.000000
     4  C    2.646139   2.286627   1.397635   0.000000
     5  C    2.444384   2.876067   2.536475   1.382750   0.000000
     6  N    1.909191   3.018680   3.269935   2.548145   1.389596
     7  C    3.143156   4.378568   4.621807   3.741474   2.395157
     8  C    4.309880   5.346617   5.289547   4.132872   2.776157
     9  C    4.588168   5.286591   4.891504   3.557283   2.423980
    10  C    3.840113   4.211779   3.614323   2.232977   1.406858
    11  Se   4.537536   4.474538   3.518933   2.197396   2.218698
    12  C    4.010656   3.560306   2.414095   1.371159   2.213781
    13  C    4.969519   4.116170   2.806922   2.445894   3.603682
    14  N    6.321769   5.509259   4.200134   3.727741   4.713753
    15  C    7.313997   6.308806   5.012779   4.840575   5.959357
    16  C    7.217674   6.011214   4.804636   5.026610   6.310766
    17  C    6.096613   4.794654   3.679936   4.196147   5.560554
    18  C    4.823751   3.635020   2.408631   2.801602   4.167554
    19  C    3.644528   2.295238   1.306926   2.373269   3.699002
    20  C    1.481996   2.420086   3.655160   4.110143   3.867873
    21  C    8.518353   7.234057   6.096790   6.437265   7.741019
    22  N    9.569415   8.337482   7.154028   7.360856   8.605173
    23  C   10.802964   9.519954   8.382265   8.670575   9.936292
    24  C   11.133407   9.773601   8.728898   9.184418  10.505252
    25  C   10.258280   8.859974   7.900649   8.488052   9.839372
    26  N   10.536978   9.103717   8.281725   9.015189  10.376493
    27  S    9.497575   8.066959   7.334021   8.150728   9.500182
    28  N    8.412531   7.002306   6.164585   6.902522   8.255927
    29  C    8.879406   7.504132   6.510250   7.073106   8.422735
    30  H    1.069998   2.097238   2.719045   2.640437   2.198580
    31  H    1.070002   2.097231   2.719039   2.575343   2.105200
    32  H    2.188789   1.032003   2.036625   3.242929   3.907074
    33  H    3.471278   4.867407   5.331219   4.615901   3.328991
    34  H    5.209576   6.326896   6.317273   5.162938   3.808117
    35  H    5.607451   6.236031   5.727727   4.348693   3.360869
    36  H    8.289857   7.324255   6.022448   5.762787   6.802629
    37  H    6.339783   4.929992   4.005269   4.795018   6.177768
    38  H    2.481958   3.421632   4.679333   5.125071   4.779875
    39  H   11.599227  10.352994   9.188031   9.396127  10.620031
    40  H   12.130100  10.754992   9.733234  10.211872  11.535606
                    6          7          8          9         10
     6  N    0.000000
     7  C    1.376660   0.000000
     8  C    2.404731   1.394590   0.000000
     9  C    2.790919   2.409183   1.381062   0.000000
    10  C    2.422503   2.781803   2.405165   1.400183   0.000000
    11  Se   3.530430   4.104787   3.715204   2.522025   1.347229
    12  C    3.590173   4.540520   4.529750   3.561240   2.179947
    13  C    4.933236   5.976941   5.998864   4.984134   3.629309
    14  N    6.092532   6.995169   6.788373   5.602564   4.387239
    15  C    7.312860   8.293399   8.149456   6.979025   5.744799
    16  C    7.574344   8.703893   8.771775   7.727014   6.394354
    17  C    6.706643   7.937599   8.204147   7.318239   5.928030
    18  C    5.318819   6.543032   6.832828   6.001919   4.603049
    19  C    4.563603   5.900542   6.475100   5.919281   4.558827
    20  C    3.017067   3.923805   5.260875   5.804125   5.230953
    21  C    8.984463  10.135814  10.215534   9.160808   7.835596
    22  N    9.895315  10.981190  10.945600   9.813440   8.548840
    23  C   11.211197  12.318713  12.301438  11.170468   9.904273
    24  C   11.725503  12.900334  12.990199  11.919698  10.606059
    25  C   10.993839  12.219261  12.418419  11.429106  10.077656
    26  N   11.443837  12.712059  13.018779  12.111731  10.743518
    27  S   10.494092  11.780992  12.169526  11.344350   9.972636
    28  N    9.300524  10.570018  10.911772  10.057034   8.683304
    29  C    9.578085  10.800303  11.009467  10.040830   8.681522
    30  H    1.584572   2.723883   3.841987   4.148320   3.499214
    31  H    1.533805   2.666159   3.748475   4.031415   3.382316
    32  H    3.953400   5.279579   6.323371   6.313427   5.238868
    33  H    2.091049   1.031997   2.107258   3.339183   3.813786
    34  H    3.334445   2.106991   1.032001   2.094750   3.339976
    35  H    3.822905   3.343508   2.098527   1.032001   2.115831
    36  H    8.177473   9.082727   8.821987   7.582210   6.436637
    37  H    7.206830   8.501352   8.899804   8.110398   6.710608
    38  H    3.767104   4.429115   5.814818   6.527821   6.098879
    39  H   11.917459  12.979903  12.890825  11.719639  10.499659
    40  H   12.751013  13.930567  14.020719  12.944509  11.634975
                   11         12         13         14         15
    11  Se   0.000000
    12  C    1.317959   0.000000
    13  C    2.545644   1.471035   0.000000
    14  N    3.087257   2.502370   1.393367   0.000000
    15  C    4.460564   3.756140   2.394961   1.378393   0.000000
    16  C    5.230490   4.243611   2.773061   2.403594   1.388185
    17  C    4.956640   3.758512   2.425915   2.795180   2.404782
    18  C    3.750806   2.476182   1.411410   2.427248   2.775880
    19  C    4.111258   2.817113   2.479186   3.760615   4.245739
    20  C    6.007678   5.478857   6.358699   7.732196   8.652450
    21  C    6.654972   5.687614   4.217005   3.718147   2.448313
    22  N    7.299718   6.475983   5.030485   4.256892   2.907189
    23  C    8.655042   7.820724   6.366568   5.601386   4.238138
    24  C    9.404884   8.463301   6.992475   6.394353   5.040769
    25  C    8.953941   7.910009   6.464177   6.090127   4.830607
    26  N    9.701445   8.589953   7.201847   7.004953   5.843018
    27  S    9.024926   7.862556   6.562723   6.578943   5.591043
    28  N    7.714487   6.557637   5.241080   5.276161   4.346327
    29  C    7.585537   6.513691   5.082528   4.819250   3.659266
    30  H    4.290875   3.919793   4.990220   6.288343   7.347610
    31  H    4.176716   3.830100   4.918028   6.202936   7.274632
    32  H    5.438360   4.430592   4.755303   6.131159   6.763112
    33  H    5.134819   5.518898   6.932367   7.994074   9.274942
    34  H    4.591395   5.503660   6.965311   7.678645   9.051004
    35  H    2.842909   4.073653   5.388538   5.769664   7.140015
    36  H    5.106845   4.589265   3.329492   2.091352   1.032000
    37  H    5.841152   4.585171   3.363325   3.827149   3.338425
    38  H    6.960114   6.490457   7.390156   8.762504   9.681000
    39  H    9.224172   8.478328   7.055726   6.179546   4.844901
    40  H   10.427685   9.494509   8.023608   7.403284   6.040774
                   16         17         18         19         20
    16  C    0.000000
    17  C    1.378343   0.000000
    18  C    2.396028   1.394575   0.000000
    19  C    3.755610   2.501623   1.470271   0.000000
    20  C    8.425808   7.212452   6.040797   4.712384   0.000000
    21  C    1.444005   2.439880   3.717750   4.941447   9.651528
    22  N    2.424561   3.595970   4.764654   6.058730  10.755133
    23  C    3.683988   4.745935   6.007043   7.227831  11.935373
    24  C    4.219887   5.057057   6.417446   7.496131  12.162689
    25  C    3.767906   4.323433   5.702089   6.635248  11.206125
    26  N    4.684961   4.952595   6.284276   7.003856  11.352456
    27  S    4.360902   4.318211   5.535611   6.082209  10.247204
    28  N    3.096204   3.019417   4.245798   4.913049   9.272039
    29  C    2.476182   2.935011   4.297454   5.263531   9.870927
    30  H    7.357311   6.312342   5.003909   3.960413   2.097230
    31  H    7.307437   6.282404   4.967128   3.960409   2.097233
    32  H    6.262617   4.948136   3.997863   2.536469   2.542349
    33  H    9.627198   8.794251   7.403969   6.634410   3.865549
    34  H    9.733706   9.209137   7.845238   7.507088   6.021042
    35  H    8.038349   7.795008   6.549658   6.655551   6.835567
    36  H    2.100203   3.333343   3.807831   5.277737   9.649735
    37  H    2.096867   1.031997   2.111570   2.709465   7.295843
    38  H    9.431288   8.197627   7.053636   5.699912   1.032003
    39  H    4.492615   5.616475   6.815648   8.073761  12.765734
    40  H    5.251388   6.070451   7.438756   8.487860  13.131869
                   21         22         23         24         25
    21  C    0.000000
    22  N    1.350718   0.000000
    23  C    2.365102   1.359067   0.000000
    24  C    2.776115   2.367210   1.351729   0.000000
    25  C    2.438655   2.758730   2.376843   1.396235   0.000000
    26  N    3.537690   4.074573   3.688306   2.529818   1.342799
    27  S    3.557582   4.472808   4.465975   3.541487   2.157312
    28  N    2.534053   3.685234   4.060007   3.515755   2.204929
    29  C    1.410656   2.383999   2.755079   2.427742   1.423149
    30  H    8.691386   9.637782  10.901541  11.341485  10.570525
    31  H    8.647921   9.708219  10.966339  11.311547  10.430820
    32  H    7.355333   8.514741   9.613451   9.739479   8.744232
    33  H   11.048552  11.924977  13.253745  13.800236  13.078666
    34  H   11.175423  11.868255  13.226071  13.945948  13.400425
    35  H    9.442833   9.989032  11.337283  12.160474  11.761102
    36  H    2.637587   2.649779   3.881302   4.833444   4.872718
    37  H    2.636892   3.860232   4.808469   4.876799   3.972744
    38  H   10.634686  11.751126  12.914136  13.106436  12.120759
    39  H    3.287987   2.068557   1.031995   2.061948   3.309896
    40  H    3.807836   3.297434   2.071852   1.031999   2.112097
                   26         27         28         29         30
    26  N    0.000000
    27  S    1.317440   0.000000
    28  N    2.171089   1.324934   0.000000
    29  C    2.212593   2.158542   1.332171   0.000000
    30  H   10.959576  10.000091   8.861600   9.191837   0.000000
    31  H   10.716392   9.660386   8.555420   9.027955   1.747302
    32  H    8.857141   7.771318   6.819666   7.450594   2.874467
    33  H   13.519101  12.546880  11.367735  11.660857   3.098110
    34  H   14.016657  13.174860  11.915091  11.995676   4.726302
    35  H   12.514210  11.816910  10.517810  10.404164   5.157094
    36  H    5.996250   5.942091   4.801938   3.918150   8.291440
    37  H    4.399378   3.668922   2.475025   2.669293   6.634262
    38  H   12.210561  11.078792  10.155671  10.805585   2.954225
    39  H    4.565762   5.443564   5.090296   3.786960  11.633489
    40  H    2.862868   4.075536   4.316950   3.367799  12.345040
                   31         32         33         34         35
    31  H    0.000000
    32  H    2.874465   0.000000
    33  H    3.077120   5.659876   0.000000
    34  H    4.638591   7.283663   2.420030   0.000000
    35  H    5.034339   7.266273   4.192127   2.411821   0.000000
    36  H    8.211497   7.793702  10.084467   9.674650   7.620136
    37  H    6.625125   4.866289   9.294537   9.920863   8.656532
    38  H    2.954229   3.394026   4.133259   6.458805   7.553667
    39  H   11.766001  10.486312  13.931395  13.787320  11.820325
    40  H   12.320277  10.683966  14.827715  14.974640  13.172411
                   36         37         38         39         40
    36  H    0.000000
    37  H    4.184640   0.000000
    38  H   10.679848   8.231587   0.000000
    39  H    4.332065   5.739633  13.752893   0.000000
    40  H    5.769067   5.836711  14.063525   2.372610   0.000000
 Stoichiometry    C22H11N5SSe
 Framework group  C1[X(C22H11N5SSe)]
 Deg. of freedom   114
 Full point group                 C1      NOp   1
 Largest Abelian subgroup         C1      NOp   1
 Largest concise Abelian subgroup C1      NOp   1
                         Standard orientation:                         
 ---------------------------------------------------------------------
 Center     Atomic      Atomic             Coordinates (Angstroms)
 Number     Number       Type             X           Y           Z
 ---------------------------------------------------------------------
      1          6           0       -3.893914    2.639711    0.406646
      2          6           0       -2.417907    2.713690    0.517355
      3          6           0       -1.697559    1.617318    0.441290
      4          6           0       -2.421152    0.455216    0.159657
      5          6           0       -3.778207    0.228614    0.021634
      6          7           0       -4.899657    1.044618    0.108037
      7          6           0       -6.154246    0.511478   -0.084222
      8          6           0       -6.308599   -0.845615   -0.365919
      9          6           0       -5.205434   -1.671644   -0.455568
     10          6           0       -3.923975   -1.141604   -0.262097
     11         34           0       -2.689180   -1.679909   -0.285257
     12          6           0       -1.791846   -0.746935   -0.037532
     13          6           0       -0.324499   -0.799731    0.052197
     14          7           0        0.379147   -1.987399   -0.137010
     15          6           0        1.754234   -1.985441   -0.041626
     16          6           0        2.442321   -0.812592    0.237691
     17          6           0        1.765510    0.372754    0.429294
     18          6           0        0.374058    0.392867    0.338217
     19          6           0       -0.393944    1.631358    0.533183
     20          6           0       -4.466915    4.001457    0.523403
     21          6           0        3.883298   -0.834654    0.328524
     22          7           0        4.516586   -1.902425    0.860740
     23          6           0        5.870900   -1.947295    0.965059
     24          6           0        6.650328   -0.931886    0.530770
     25          6           0        6.060989    0.202368   -0.031033
     26          7           0        6.521496    1.355856   -0.541434
     27         16           0        5.491288    2.075778   -0.936445
     28          7           0        4.357568    1.432067   -0.700294
     29          6           0        4.642966    0.258711   -0.137744
     30          1           0       -4.279861    2.021944    1.190421
     31          1           0       -4.159926    2.220895   -0.541370
     32          1           0       -1.955809    3.626252    0.654200
     33          1           0       -6.985462    1.119681   -0.019508
     34          1           0       -7.253544   -1.235254   -0.508345
     35          1           0       -5.325056   -2.675220   -0.664260
     36          1           0        2.277273   -2.864377   -0.179191
     37          1           0        2.284963    1.239543    0.638731
     38          1           0       -5.148055    4.775623    0.565171
     39          1           0        6.315547   -2.777733    1.386574
     40          1           0        7.677032   -0.994775    0.614110
 ---------------------------------------------------------------------
 Rotational constants (GHZ):      0.3766344      0.0659577      0.0574312
 Standard basis: 6-31++G(d,p) (6D, 7F)
 There are   636 symmetry adapted basis functions of A   symmetry.
 Integral buffers will be    131072 words long.
 Raffenetti 2 integral format.
 Two-electron integral symmetry is turned on.
   636 basis functions,  1095 primitive gaussians,   636 cartesian basis functions
   114 alpha electrons      114 beta electrons
       nuclear repulsion energy      3265.6995916942 Hartrees.
 NAtoms=   40 NActive=   40 NUniq=   40 SFac= 1.00D+00 NAtFMM=   60 NAOKFM=F Big=F
 One-electron integrals computed using PRISM.
 NBasis=   636 RedAO= T  NBF=   636
 NBsUse=   626 1.00D-06 NBFU=   626
 Harris functional with IExCor=  402 diagonalized for initial guess.
 ExpMin= 3.00D-02 ExpMax= 5.61D+05 ExpMxC= 5.42D+03 IAcc=3 IRadAn=         5 AccDes= 0.00D+00
 HarFok:  IExCor=  402 AccDes= 0.00D+00 IRadAn=         5 IDoV= 1
 ScaDFX=  1.000000  1.000000  1.000000  1.000000
 FoFCou: FMM=F IPFlag=           0 FMFlag=      100000 FMFlg1=           0
         NFxFlg=           0 DoJE=T BraDBF=F KetDBF=T FulRan=T
         Omega=  0.000000  0.000000  1.000000  0.000000  0.000000 ICntrl=     500 IOpCl=  0
         NMat0=    1 NMatS0=    1 NMatT0=    0 NMatD0=    1 NMtDS0=    0 NMtDT0=    0
         I1Cent=           4 NGrid=           0.
 Petite list used in FoFCou.
 Initial guess orbital symmetries:
       Occupied  (A) (A) (A) (A) (A) (A) (A) (A) (A) (A) (A) (A)
                 (A) (A) (A) (A) (A) (A) (A) (A) (A) (A) (A) (A)
                 (A) (A) (A) (A) (A) (A) (A) (A) (A) (A) (A) (A)
                 (A) (A) (A) (A) (A) (A) (A) (A) (A) (A) (A) (A)
                 (A) (A) (A) (A) (A) (A) (A) (A) (A) (A) (A) (A)
                 (A) (A) (A) (A) (A) (A) (A) (A) (A) (A) (A) (A)
                 (A) (A) (A) (A) (A) (A) (A) (A) (A) (A) (A) (A)
                 (A) (A) (A) (A) (A) (A) (A) (A) (A) (A) (A) (A)
                 (A) (A) (A) (A) (A) (A) (A) (A) (A) (A) (A) (A)
                 (A) (A) (A) (A) (A) (A)
       Virtual   (A) (A) (A) (A) (A) (A) (A) (A) (A) (A) (A) (A)
                 (A) (A) (A) (A) (A) (A) (A) (A) (A) (A) (A) (A)
                 (A) (A) (A) (A) (A) (A) (A) (A) (A) (A) (A) (A)
                 (A) (A) (A) (A) (A) (A) (A) (A) (A) (A) (A) (A)
                 (A) (A) (A) (A) (A) (A) (A) (A) (A) (A) (A) (A)
                 (A) (A) (A) (A) (A) (A) (A) (A) (A) (A) (A) (A)
                 (A) (A) (A) (A) (A) (A) (A) (A) (A) (A) (A) (A)
                 (A) (A) (A) (A) (A) (A) (A) (A) (A) (A) (A) (A)
                 (A) (A) (A) (A) (A) (A) (A) (A) (A) (A) (A) (A)
                 (A) (A) (A) (A) (A) (A) (A) (A) (A) (A) (A) (A)
                 (A) (A) (A) (A) (A) (A) (A) (A) (A) (A) (A) (A)
                 (A) (A) (A) (A) (A) (A) (A) (A) (A) (A) (A) (A)
                 (A) (A) (A) (A) (A) (A) (A) (A) (A) (A) (A) (A)
                 (A) (A) (A) (A) (A) (A) (A) (A) (A) (A) (A) (A)
                 (A) (A) (A) (A) (A) (A) (A) (A) (A) (A) (A) (A)
                 (A) (A) (A) (A) (A) (A) (A) (A) (A) (A) (A) (A)
                 (A) (A) (A) (A) (A) (A) (A) (A) (A) (A) (A) (A)
                 (A) (A) (A) (A) (A) (A) (A) (A) (A) (A) (A) (A)
                 (A) (A) (A) (A) (A) (A) (A) (A) (A) (A) (A) (A)
                 (A) (A) (A) (A) (A) (A) (A) (A) (A) (A) (A) (A)
                 (A) (A) (A) (A) (A) (A) (A) (A) (A) (A) (A) (A)
                 (A) (A) (A) (A) (A) (A) (A) (A) (A) (A) (A) (A)
                 (A) (A) (A) (A) (A) (A) (A) (A) (A) (A) (A) (A)
                 (A) (A) (A) (A) (A) (A) (A) (A) (A) (A) (A) (A)
                 (A) (A) (A) (A) (A) (A) (A) (A) (A) (A) (A) (A)
                 (A) (A) (A) (A) (A) (A) (A) (A) (A) (A) (A) (A)
                 (A) (A) (A) (A) (A) (A) (A) (A) (A) (A) (A) (A)
                 (A) (A) (A) (A) (A) (A) (A) (A) (A) (A) (A) (A)
                 (A) (A) (A) (A) (A) (A) (A) (A) (A) (A) (A) (A)
                 (A) (A) (A) (A) (A) (A) (A) (A) (A) (A) (A) (A)
                 (A) (A) (A) (A) (A) (A) (A) (A) (A) (A) (A) (A)
                 (A) (A) (A) (A) (A) (A) (A) (A) (A) (A) (A) (A)
                 (A) (A) (A) (A) (A) (A) (A) (A) (A) (A) (A) (A)
                 (A) (A) (A) (A) (A) (A) (A) (A) (A) (A) (A) (A)
                 (A) (A) (A) (A) (A) (A) (A) (A) (A) (A) (A) (A)
                 (A) (A) (A) (A) (A) (A) (A) (A) (A) (A) (A) (A)
                 (A) (A) (A) (A) (A) (A) (A) (A) (A) (A) (A) (A)
                 (A) (A) (A) (A) (A) (A) (A) (A) (A) (A) (A) (A)
                 (A) (A) (A) (A) (A) (A) (A) (A) (A) (A) (A) (A)
                 (A) (A) (A) (A) (A) (A) (A) (A) (A) (A) (A) (A)
                 (A) (A) (A) (A) (A) (A) (A) (A) (A) (A) (A) (A)
                 (A) (A) (A) (A) (A) (A) (A) (A) (A) (A) (A) (A)
                 (A) (A) (A) (A) (A) (A) (A) (A)
 The electronic state of the initial guess is 1-A.
 Requested convergence on RMS density matrix=1.00D-08 within 128 cycles.
 Requested convergence on MAX density matrix=1.00D-06.
 Requested convergence on             energy=1.00D-06.
 No special actions if energy rises.
 EnCoef did     9 forward-backward iterations
 EnCoef did   100 forward-backward iterations
 EnCoef did    11 forward-backward iterations
 EnCoef did     6 forward-backward iterations
 EnCoef did     2 forward-backward iterations
 EnCoef did     3 forward-backward iterations
 Restarting incremental Fock formation.
 SCF Done:  E(RB3LYP) =  -3915.00745558     A.U. after   34 cycles
             Convg  =    0.2902D-08             -V/T =  2.0033

 **********************************************************************

            Population analysis using the SCF density.

 **********************************************************************

 Orbital symmetries:
       Occupied  (A) (A) (A) (A) (A) (A) (A) (A) (A) (A) (A) (A)
                 (A) (A) (A) (A) (A) (A) (A) (A) (A) (A) (A) (A)
                 (A) (A) (A) (A) (A) (A) (A) (A) (A) (A) (A) (A)
                 (A) (A) (A) (A) (A) (A) (A) (A) (A) (A) (A) (A)
                 (A) (A) (A) (A) (A) (A) (A) (A) (A) (A) (A) (A)
                 (A) (A) (A) (A) (A) (A) (A) (A) (A) (A) (A) (A)
                 (A) (A) (A) (A) (A) (A) (A) (A) (A) (A) (A) (A)
                 (A) (A) (A) (A) (A) (A) (A) (A) (A) (A) (A) (A)
                 (A) (A) (A) (A) (A) (A) (A) (A) (A) (A) (A) (A)
                 (A) (A) (A) (A) (A) (A)
       Virtual   (A) (A) (A) (A) (A) (A) (A) (A) (A) (A) (A) (A)
                 (A) (A) (A) (A) (A) (A) (A) (A) (A) (A) (A) (A)
                 (A) (A) (A) (A) (A) (A) (A) (A) (A) (A) (A) (A)
                 (A) (A) (A) (A) (A) (A) (A) (A) (A) (A) (A) (A)
                 (A) (A) (A) (A) (A) (A) (A) (A) (A) (A) (A) (A)
                 (A) (A) (A) (A) (A) (A) (A) (A) (A) (A) (A) (A)
                 (A) (A) (A) (A) (A) (A) (A) (A) (A) (A) (A) (A)
                 (A) (A) (A) (A) (A) (A) (A) (A) (A) (A) (A) (A)
                 (A) (A) (A) (A) (A) (A) (A) (A) (A) (A) (A) (A)
                 (A) (A) (A) (A) (A) (A) (A) (A) (A) (A) (A) (A)
                 (A) (A) (A) (A) (A) (A) (A) (A) (A) (A) (A) (A)
                 (A) (A) (A) (A) (A) (A) (A) (A) (A) (A) (A) (A)
                 (A) (A) (A) (A) (A) (A) (A) (A) (A) (A) (A) (A)
                 (A) (A) (A) (A) (A) (A) (A) (A) (A) (A) (A) (A)
                 (A) (A) (A) (A) (A) (A) (A) (A) (A) (A) (A) (A)
                 (A) (A) (A) (A) (A) (A) (A) (A) (A) (A) (A) (A)
                 (A) (A) (A) (A) (A) (A) (A) (A) (A) (A) (A) (A)
                 (A) (A) (A) (A) (A) (A) (A) (A) (A) (A) (A) (A)
                 (A) (A) (A) (A) (A) (A) (A) (A) (A) (A) (A) (A)
                 (A) (A) (A) (A) (A) (A) (A) (A) (A) (A) (A) (A)
                 (A) (A) (A) (A) (A) (A) (A) (A) (A) (A) (A) (A)
                 (A) (A) (A) (A) (A) (A) (A) (A) (A) (A) (A) (A)
                 (A) (A) (A) (A) (A) (A) (A) (A) (A) (A) (A) (A)
                 (A) (A) (A) (A) (A) (A) (A) (A) (A) (A) (A) (A)
                 (A) (A) (A) (A) (A) (A) (A) (A) (A) (A) (A) (A)
                 (A) (A) (A) (A) (A) (A) (A) (A) (A) (A) (A) (A)
                 (A) (A) (A) (A) (A) (A) (A) (A) (A) (A) (A) (A)
                 (A) (A) (A) (A) (A) (A) (A) (A) (A) (A) (A) (A)
                 (A) (A) (A) (A) (A) (A) (A) (A) (A) (A) (A) (A)
                 (A) (A) (A) (A) (A) (A) (A) (A) (A) (A) (A) (A)
                 (A) (A) (A) (A) (A) (A) (A) (A) (A) (A) (A) (A)
                 (A) (A) (A) (A) (A) (A) (A) (A) (A) (A) (A) (A)
                 (A) (A) (A) (A) (A) (A) (A) (A) (A) (A) (A) (A)
                 (A) (A) (A) (A) (A) (A) (A) (A) (A) (A) (A) (A)
                 (A) (A) (A) (A) (A) (A) (A) (A) (A) (A) (A) (A)
                 (A) (A) (A) (A) (A) (A) (A) (A) (A) (A) (A) (A)
                 (A) (A) (A) (A) (A) (A) (A) (A) (A) (A) (A) (A)
                 (A) (A) (A) (A) (A) (A) (A) (A) (A) (A) (A) (A)
                 (A) (A) (A) (A) (A) (A) (A) (A) (A) (A) (A) (A)
                 (A) (A) (A) (A) (A) (A) (A) (A) (A) (A) (A) (A)
                 (A) (A) (A) (A) (A) (A) (A) (A) (A) (A) (A) (A)
                 (A) (A) (A) (A) (A) (A) (A) (A) (A) (A) (A) (A)
                 (A) (A) (A) (A) (A) (A) (A) (A)
 The electronic state is 1-A.
 Alpha  occ. eigenvalues -- -453.90745 -88.97688 -57.51801 -52.18869 -52.18679
 Alpha  occ. eigenvalues --  -52.18530 -14.36545 -14.35635 -14.35582 -14.35580
 Alpha  occ. eigenvalues --  -14.35556 -10.26310 -10.26191 -10.26171 -10.25595
 Alpha  occ. eigenvalues --  -10.24937 -10.24514 -10.24274 -10.24004 -10.23891
 Alpha  occ. eigenvalues --  -10.22424 -10.22358 -10.21644 -10.21438 -10.21360
 Alpha  occ. eigenvalues --  -10.21337 -10.21245 -10.21228 -10.21004 -10.20632
 Alpha  occ. eigenvalues --  -10.20551 -10.19075 -10.16569  -8.05087  -7.78753
 Alpha  occ. eigenvalues --   -6.01507  -6.00882  -6.00677  -5.83246  -5.82262
 Alpha  occ. eigenvalues --   -5.81924  -2.19849  -2.19236  -2.18314  -2.17761
 Alpha  occ. eigenvalues --   -2.17568  -1.17595  -1.06227  -0.97753  -0.97031
 Alpha  occ. eigenvalues --   -0.96550  -0.94489  -0.89623  -0.84705  -0.84337
 Alpha  occ. eigenvalues --   -0.83590  -0.83228  -0.79904  -0.79555  -0.77112
 Alpha  occ. eigenvalues --   -0.75247  -0.71249  -0.69901  -0.68787  -0.68178
 Alpha  occ. eigenvalues --   -0.65442  -0.64676  -0.62998  -0.62674  -0.59922
 Alpha  occ. eigenvalues --   -0.58049  -0.57147  -0.56387  -0.55414  -0.54873
 Alpha  occ. eigenvalues --   -0.54226  -0.53631  -0.52907  -0.51745  -0.51588
 Alpha  occ. eigenvalues --   -0.49570  -0.48911  -0.48672  -0.48306  -0.46688
 Alpha  occ. eigenvalues --   -0.45729  -0.45019  -0.44343  -0.43055  -0.42805
 Alpha  occ. eigenvalues --   -0.42058  -0.41532  -0.41350  -0.39297  -0.39214
 Alpha  occ. eigenvalues --   -0.39051  -0.37961  -0.37440  -0.36351  -0.33837
 Alpha  occ. eigenvalues --   -0.33482  -0.33402  -0.31762  -0.30632  -0.30282
 Alpha  occ. eigenvalues --   -0.29776  -0.28763  -0.28232  -0.27056  -0.25192
 Alpha  occ. eigenvalues --   -0.22847  -0.21925  -0.17638  -0.15600
 Alpha virt. eigenvalues --   -0.11885  -0.10548  -0.09107  -0.07327  -0.04867
 Alpha virt. eigenvalues --   -0.03420  -0.02652  -0.01693  -0.00969  -0.00811
 Alpha virt. eigenvalues --   -0.00092   0.00270   0.00740   0.00986   0.01711
 Alpha virt. eigenvalues --    0.01833   0.01965   0.02637   0.02791   0.03321
 Alpha virt. eigenvalues --    0.03424   0.03576   0.03958   0.04158   0.04859
 Alpha virt. eigenvalues --    0.04918   0.05192   0.06043   0.06144   0.06510
 Alpha virt. eigenvalues --    0.07045   0.07286   0.07556   0.08171   0.08493
 Alpha virt. eigenvalues --    0.08708   0.08996   0.09486   0.09700   0.09890
 Alpha virt. eigenvalues --    0.10226   0.10536   0.10686   0.10910   0.11092
 Alpha virt. eigenvalues --    0.11188   0.11417   0.11616   0.11989   0.12279
 Alpha virt. eigenvalues --    0.12508   0.12617   0.12824   0.13059   0.13153
 Alpha virt. eigenvalues --    0.13343   0.13619   0.13771   0.13840   0.13977
 Alpha virt. eigenvalues --    0.14258   0.14513   0.14889   0.14917   0.15268
 Alpha virt. eigenvalues --    0.15668   0.15830   0.15997   0.16112   0.16227
 Alpha virt. eigenvalues --    0.16469   0.16756   0.16815   0.17125   0.17362
 Alpha virt. eigenvalues --    0.17757   0.17834   0.18010   0.18316   0.18717
 Alpha virt. eigenvalues --    0.19213   0.19410   0.19689   0.19917   0.20093
 Alpha virt. eigenvalues --    0.20530   0.20913   0.21228   0.21531   0.21733
 Alpha virt. eigenvalues --    0.21935   0.22031   0.22200   0.22443   0.22974
 Alpha virt. eigenvalues --    0.23108   0.23217   0.23484   0.23755   0.24213
 Alpha virt. eigenvalues --    0.24511   0.24936   0.25257   0.25440   0.25813
 Alpha virt. eigenvalues --    0.26029   0.26100   0.26523   0.26684   0.26867
 Alpha virt. eigenvalues --    0.27115   0.27487   0.27862   0.28194   0.28424
 Alpha virt. eigenvalues --    0.28639   0.28905   0.29116   0.29304   0.29507
 Alpha virt. eigenvalues --    0.29794   0.30206   0.30396   0.30431   0.30609
 Alpha virt. eigenvalues --    0.31305   0.31491   0.31831   0.31886   0.32477
 Alpha virt. eigenvalues --    0.32745   0.33050   0.33626   0.33943   0.34004
 Alpha virt. eigenvalues --    0.34112   0.34239   0.34728   0.34925   0.35266
 Alpha virt. eigenvalues --    0.35592   0.36035   0.36256   0.36654   0.36770
 Alpha virt. eigenvalues --    0.37390   0.37633   0.37915   0.38248   0.39223
 Alpha virt. eigenvalues --    0.39590   0.39819   0.40478   0.40871   0.41191
 Alpha virt. eigenvalues --    0.41561   0.42590   0.43126   0.44164   0.45381
 Alpha virt. eigenvalues --    0.45767   0.46205   0.46260   0.46984   0.47908
 Alpha virt. eigenvalues --    0.49182   0.50939   0.51284   0.51900   0.52803
 Alpha virt. eigenvalues --    0.53703   0.54338   0.55168   0.56441   0.57516
 Alpha virt. eigenvalues --    0.59384   0.60758   0.61720   0.62115   0.63132
 Alpha virt. eigenvalues --    0.63544   0.64725   0.65326   0.66296   0.67647
 Alpha virt. eigenvalues --    0.68245   0.68758   0.69474   0.69821   0.70106
 Alpha virt. eigenvalues --    0.70468   0.71247   0.71837   0.72398   0.72961
 Alpha virt. eigenvalues --    0.73289   0.74086   0.74577   0.74735   0.75164
 Alpha virt. eigenvalues --    0.75642   0.75866   0.76233   0.76822   0.77125
 Alpha virt. eigenvalues --    0.77370   0.77859   0.78487   0.78671   0.78850
 Alpha virt. eigenvalues --    0.79786   0.79827   0.80171   0.80599   0.80930
 Alpha virt. eigenvalues --    0.81461   0.81982   0.82739   0.83029   0.83838
 Alpha virt. eigenvalues --    0.85582   0.86085   0.86802   0.87403   0.88070
 Alpha virt. eigenvalues --    0.88566   0.90776   0.91353   0.92087   0.92924
 Alpha virt. eigenvalues --    0.93667   0.94077   0.94755   0.95235   0.95507
 Alpha virt. eigenvalues --    0.96161   0.96926   0.96985   0.97455   0.98202
 Alpha virt. eigenvalues --    0.98300   0.99534   0.99802   1.00038   1.00929
 Alpha virt. eigenvalues --    1.01812   1.02991   1.03201   1.03991   1.05213
 Alpha virt. eigenvalues --    1.05793   1.06766   1.07315   1.07658   1.07813
 Alpha virt. eigenvalues --    1.08897   1.09125   1.10277   1.10765   1.12325
 Alpha virt. eigenvalues --    1.12959   1.13247   1.14097   1.14478   1.15225
 Alpha virt. eigenvalues --    1.15747   1.16199   1.18241   1.18515   1.18895
 Alpha virt. eigenvalues --    1.19093   1.19700   1.20448   1.21370   1.21652
 Alpha virt. eigenvalues --    1.22263   1.23145   1.23921   1.24349   1.24437
 Alpha virt. eigenvalues --    1.25064   1.25687   1.26285   1.27929   1.28517
 Alpha virt. eigenvalues --    1.29697   1.30333   1.30655   1.30783   1.31593
 Alpha virt. eigenvalues --    1.32582   1.32977   1.33151   1.33736   1.34583
 Alpha virt. eigenvalues --    1.34885   1.35605   1.35947   1.36499   1.36873
 Alpha virt. eigenvalues --    1.37152   1.37515   1.38932   1.40104   1.40522
 Alpha virt. eigenvalues --    1.41654   1.42645   1.43569   1.44155   1.45221
 Alpha virt. eigenvalues --    1.46407   1.47198   1.48440   1.50700   1.51241
 Alpha virt. eigenvalues --    1.53151   1.54486   1.56318   1.58885   1.59407
 Alpha virt. eigenvalues --    1.61082   1.62373   1.62576   1.63662   1.64866
 Alpha virt. eigenvalues --    1.66129   1.68841   1.69310   1.70349   1.73219
 Alpha virt. eigenvalues --    1.73816   1.74384   1.76964   1.77218   1.78785
 Alpha virt. eigenvalues --    1.79199   1.80532   1.82598   1.83183   1.84142
 Alpha virt. eigenvalues --    1.85107   1.85421   1.85703   1.86429   1.86827
 Alpha virt. eigenvalues --    1.88524   1.89122   1.90369   1.90457   1.91471
 Alpha virt. eigenvalues --    1.92822   1.93602   1.94509   1.95020   1.95430
 Alpha virt. eigenvalues --    1.95755   1.95835   1.96466   1.96982   1.98153
 Alpha virt. eigenvalues --    1.99004   2.00138   2.00953   2.02538   2.03000
 Alpha virt. eigenvalues --    2.03593   2.04089   2.04992   2.06293   2.08019
 Alpha virt. eigenvalues --    2.08763   2.09640   2.10739   2.11810   2.13143
 Alpha virt. eigenvalues --    2.14603   2.15421   2.16868   2.17673   2.18519
 Alpha virt. eigenvalues --    2.20383   2.20657   2.21488   2.22156   2.24793
 Alpha virt. eigenvalues --    2.26927   2.27668   2.28739   2.29685   2.30689
 Alpha virt. eigenvalues --    2.31793   2.32092   2.32320   2.33216   2.33814
 Alpha virt. eigenvalues --    2.35432   2.35859   2.36519   2.37975   2.38939
 Alpha virt. eigenvalues --    2.41497   2.42647   2.43418   2.44889   2.45378
 Alpha virt. eigenvalues --    2.47271   2.47652   2.49395   2.49450   2.50231
 Alpha virt. eigenvalues --    2.50484   2.51689   2.52524   2.52800   2.53226
 Alpha virt. eigenvalues --    2.55856   2.56563   2.57374   2.59715   2.60090
 Alpha virt. eigenvalues --    2.61517   2.61792   2.63172   2.63472   2.64285
 Alpha virt. eigenvalues --    2.66022   2.66606   2.67983   2.69075   2.69639
 Alpha virt. eigenvalues --    2.70692   2.71017   2.71357   2.73282   2.74360
 Alpha virt. eigenvalues --    2.74697   2.75242   2.76097   2.76410   2.79375
 Alpha virt. eigenvalues --    2.79980   2.81953   2.82324   2.83228   2.84704
 Alpha virt. eigenvalues --    2.85104   2.86138   2.87243   2.88905   2.90327
 Alpha virt. eigenvalues --    2.90929   2.94557   2.94830   2.99023   2.99965
 Alpha virt. eigenvalues --    3.03368   3.05010   3.07764   3.08171   3.09509
 Alpha virt. eigenvalues --    3.11735   3.15653   3.23277   3.26097   3.26712
 Alpha virt. eigenvalues --    3.30690   3.33260   3.35694   3.39121   3.41215
 Alpha virt. eigenvalues --    3.42485   3.45791   3.48303   3.49239   3.52319
 Alpha virt. eigenvalues --    3.54906   3.56145   3.68315   3.69980   3.77205
 Alpha virt. eigenvalues --    3.83399   3.87654   3.98250   4.20047   4.27045
 Alpha virt. eigenvalues --    4.31787   4.32953   4.34209   4.34823   4.36092
 Alpha virt. eigenvalues --    4.37380   4.38366   4.39374   4.42327   4.43035
 Alpha virt. eigenvalues --    4.43765   4.45164   4.47153   4.49520   4.51711
 Alpha virt. eigenvalues --    4.54614   4.56943   4.57471   4.63780   4.66044
 Alpha virt. eigenvalues --    4.70423   4.81920   4.85360   4.90370   5.03245
 Alpha virt. eigenvalues --    8.56134  84.67027
          Condensed to atoms (all electrons):
              1          2          3          4          5          6
     1  C   13.054268  -2.986634   0.076809   1.753624  -0.772001  -0.299340
     2  C   -2.986634  11.102992  -1.112605  -0.968028   1.883225  -0.450363
     3  C    0.076809  -1.112605   8.783048   1.357989   0.305408   0.058938
     4  C    1.753624  -0.968028   1.357989  13.529533   3.293415  -0.319974
     5  C   -0.772001   1.883225   0.305408   3.293415  13.800660  -0.547594
     6  N   -0.299340  -0.450363   0.058938  -0.319974  -0.547594   9.234085
     7  C    0.348233  -0.117439  -0.169149  -0.045938  -0.652631   0.163552
     8  C   -0.092805  -0.156817   0.002918  -0.645782  -0.705641   0.400784
     9  C   -1.080257   0.130231  -0.254123  -3.226228  -3.243928  -0.468485
    10  C   -1.823845   1.100076  -1.860390  -5.949182  -3.321627  -0.558342
    11  Se   0.218919   0.197305   0.167834   1.466372   1.119382   0.172603
    12  C   -0.252104  -1.052953   0.697266  -1.602833  -2.141835  -0.101633
    13  C    0.099315  -1.679616   0.101824  -3.327416  -2.409025   0.016791
    14  N   -0.011299  -0.000427   0.024691   0.158726   0.017333   0.006889
    15  C   -0.033528  -0.395917   0.751988  -0.695427   0.043515   0.007118
    16  C    0.255008  -0.112296   0.659963   0.202786   0.410554   0.006528
    17  C   -0.215232   0.089889   0.674602   0.352920   0.714268  -0.005905
    18  C   -1.600516   3.255420  -3.706084   0.632803   0.612519  -0.127171
    19  C    1.076731  -1.860220   0.112022   0.464482  -0.987693   0.096272
    20  C   -2.205011  -1.736649  -0.540916  -0.491256  -1.345096   0.288059
    21  C    0.032363  -0.049115   0.233433   0.036314   0.034015   0.000468
    22  N   -0.000172   0.000603  -0.009532  -0.001113  -0.001029   0.000002
    23  C   -0.000118  -0.001348  -0.003160  -0.000606  -0.001539  -0.000001
    24  C   -0.000105   0.001663   0.005313   0.004740   0.001889   0.000000
    25  C   -0.003172  -0.006020   0.014361   0.017284   0.005726  -0.000025
    26  N    0.000045   0.000178  -0.000220  -0.000552  -0.000078   0.000000
    27  S    0.000238   0.003321  -0.024148  -0.004398  -0.001266   0.000001
    28  N    0.000967   0.003380  -0.006166  -0.000640  -0.002041   0.000013
    29  C   -0.007067   0.023319  -0.218102  -0.068375   0.023012  -0.000227
    30  H    0.512819  -0.333232   0.176609  -0.027324  -0.196046  -0.073929
    31  H    0.243765   0.395504  -0.120320   0.088082   0.207724  -0.196066
    32  H   -0.153675   0.637906   0.023174   0.023908   0.120718  -0.062701
    33  H    0.038783   0.010460  -0.002256   0.018078   0.020182  -0.127204
    34  H    0.001813  -0.002110  -0.003289  -0.027417  -0.031935   0.010055
    35  H   -0.037514   0.016226   0.002881   0.076136   0.083823  -0.005706
    36  H   -0.002706  -0.003687   0.008505  -0.014057  -0.003805  -0.000080
    37  H   -0.032831   0.003953  -0.052042  -0.025707  -0.013847  -0.000670
    38  H   -0.344951  -0.007244   0.023498  -0.025303   0.000586  -0.016955
    39  H   -0.000002  -0.000043   0.000008  -0.000054  -0.000031  -0.000000
    40  H    0.000001   0.000013   0.000073   0.000042   0.000017   0.000000
              7          8          9         10         11         12
     1  C    0.348233  -0.092805  -1.080257  -1.823845   0.218919  -0.252104
     2  C   -0.117439  -0.156817   0.130231   1.100076   0.197305  -1.052953
     3  C   -0.169149   0.002918  -0.254123  -1.860390   0.167834   0.697266
     4  C   -0.045938  -0.645782  -3.226228  -5.949182   1.466372  -1.602833
     5  C   -0.652631  -0.705641  -3.243928  -3.321627   1.119382  -2.141835
     6  N    0.163552   0.400784  -0.468485  -0.558342   0.172603  -0.101633
     7  C    6.397960  -0.278263  -0.520654   0.412114   0.155464  -0.318236
     8  C   -0.278263   6.747694   0.860364  -0.617471   0.074177   0.447079
     9  C   -0.520654   0.860364  11.280921   2.170353  -1.355294   1.160904
    10  C    0.412114  -0.617471   2.170353  17.526694  -1.604250  -2.591549
    11  Se   0.155464   0.074177  -1.355294  -1.604250  34.994536  -1.075901
    12  C   -0.318236   0.447079   1.160904  -2.591549  -1.075901  17.003143
    13  C    0.041424   0.075964   1.099521   3.021836  -0.997454   2.367158
    14  N   -0.004532   0.011490   0.033254  -0.283129  -0.117726  -0.166544
    15  C    0.001002   0.006958   0.096837  -0.658370  -0.232764   2.378702
    16  C    0.010538  -0.004529  -0.080917  -0.171691   0.083841  -0.858361
    17  C    0.010871  -0.002434   0.007829   0.459391   0.142956  -2.829046
    18  C    0.004564  -0.065396  -0.152140   1.683423   0.849625  -6.286506
    19  C   -0.005977   0.000521  -0.142115  -1.054619  -0.069748   1.346150
    20  C    0.147916   0.128619  -0.368211  -0.404264   0.072461  -0.244356
    21  C    0.000412  -0.000780  -0.010002  -0.122133   0.005418   0.285657
    22  N   -0.000004   0.000006   0.000096   0.000635   0.000897  -0.003723
    23  C   -0.000008   0.000001   0.000011  -0.000164  -0.000203  -0.003631
    24  C    0.000004   0.000001   0.000004   0.000516  -0.000128   0.004546
    25  C   -0.000003   0.000008  -0.000061   0.004270  -0.005205   0.002352
    26  N    0.000000  -0.000000   0.000000  -0.000032   0.000115  -0.000534
    27  S    0.000001  -0.000005  -0.000013  -0.000211   0.000849  -0.000854
    28  N   -0.000001  -0.000002   0.000013  -0.001352   0.000804   0.000455
    29  C    0.000298  -0.000135  -0.000386   0.031862   0.012403  -0.094871
    30  H   -0.000972   0.023755   0.010598  -0.090031  -0.003760   0.132785
    31  H   -0.056687  -0.020988   0.029731   0.054994  -0.025722  -0.036402
    32  H    0.001959  -0.009538   0.012172   0.056890  -0.002941   0.012390
    33  H    0.479430  -0.172882  -0.002889   0.017964  -0.003429  -0.010098
    34  H   -0.045791   0.422772  -0.005121  -0.024105  -0.004014  -0.004635
    35  H   -0.098743  -0.211860   0.342495   0.119618  -0.107254  -0.033623
    36  H   -0.000146   0.000163   0.002012   0.000656  -0.002860   0.039965
    37  H   -0.001065   0.000434   0.004137   0.036055  -0.002242  -0.001834
    38  H   -0.001731   0.002220  -0.004530  -0.002261   0.001925  -0.000483
    39  H   -0.000000  -0.000000  -0.000002  -0.000013  -0.000068  -0.000022
    40  H    0.000000  -0.000000  -0.000000  -0.000004   0.000004   0.000088
             13         14         15         16         17         18
     1  C    0.099315  -0.011299  -0.033528   0.255008  -0.215232  -1.600516
     2  C   -1.679616  -0.000427  -0.395917  -0.112296   0.089889   3.255420
     3  C    0.101824   0.024691   0.751988   0.659963   0.674602  -3.706084
     4  C   -3.327416   0.158726  -0.695427   0.202786   0.352920   0.632803
     5  C   -2.409025   0.017333   0.043515   0.410554   0.714268   0.612519
     6  N    0.016791   0.006889   0.007118   0.006528  -0.005905  -0.127171
     7  C    0.041424  -0.004532   0.001002   0.010538   0.010871   0.004564
     8  C    0.075964   0.011490   0.006958  -0.004529  -0.002434  -0.065396
     9  C    1.099521   0.033254   0.096837  -0.080917   0.007829  -0.152140
    10  C    3.021836  -0.283129  -0.658370  -0.171691   0.459391   1.683423
    11  Se  -0.997454  -0.117726  -0.232764   0.083841   0.142956   0.849625
    12  C    2.367158  -0.166544   2.378702  -0.858361  -2.829046  -6.286506
    13  C   19.978580  -0.391254   0.979776  -0.776883  -6.206468  -7.317440
    14  N   -0.391254   7.284827  -0.270657   0.378095   0.183602   0.181419
    15  C    0.979776  -0.270657  24.619063  -4.959267  -8.834329  -8.893666
    16  C   -0.776883   0.378095  -4.959267  21.403868  -1.731412  -2.822377
    17  C   -6.206468   0.183602  -8.834329  -1.731412  21.882750   7.313294
    18  C   -7.317440   0.181419  -8.893666  -2.822377   7.313294  25.707402
    19  C    3.139670  -0.033442  -0.932356  -0.697296  -2.740889  -0.661801
    20  C   -0.309136  -0.002056  -0.027718   0.042190  -0.009671   0.147679
    21  C    0.707670  -0.065155   2.476886   3.150121  -3.319865  -0.919579
    22  N   -0.020826  -0.002091  -0.167457  -0.851039   0.331216  -0.035201
    23  C    0.081142  -0.010204   0.179611   0.265330  -0.249494   0.085310
    24  C   -0.181666   0.019849  -0.119967  -2.188986  -0.030244  -0.227193
    25  C   -0.390677   0.056579   0.157200  -2.032506  -0.851615  -0.064402
    26  N    0.006440  -0.001127   0.005532   0.287916   0.004634   0.000869
    27  S    0.031354  -0.000099  -0.102625  -0.242257   0.104562  -0.021224
    28  N    0.032165  -0.006101  -0.080904  -0.230798  -0.040988   0.002174
    29  C   -0.881864   0.187163  -0.560488  -2.612296  -0.434459  -2.306112
    30  H    0.042498   0.002411   0.004841   0.011592  -0.035735  -0.060960
    31  H    0.026495  -0.000292   0.005258  -0.014464   0.023978  -0.038241
    32  H   -0.023406  -0.000066  -0.004030  -0.021340  -0.003871   0.086176
    33  H   -0.000187  -0.000221  -0.000083   0.000082   0.000511   0.001501
    34  H    0.004722   0.000071  -0.000062  -0.000005  -0.000133  -0.001634
    35  H   -0.009132   0.000636  -0.000624  -0.001976   0.001963   0.019378
    36  H    0.020423  -0.130946   0.942633  -0.378582  -0.102669  -0.031779
    37  H   -0.002120   0.002214   0.052062  -0.500367   0.622099   0.343001
    38  H   -0.005289  -0.000028  -0.000402   0.000303  -0.001457   0.010018
    39  H    0.003072  -0.000595   0.005902   0.073978  -0.004914   0.005129
    40  H   -0.001191   0.000241   0.005165  -0.025153  -0.016656  -0.004416
             19         20         21         22         23         24
     1  C    1.076731  -2.205011   0.032363  -0.000172  -0.000118  -0.000105
     2  C   -1.860220  -1.736649  -0.049115   0.000603  -0.001348   0.001663
     3  C    0.112022  -0.540916   0.233433  -0.009532  -0.003160   0.005313
     4  C    0.464482  -0.491256   0.036314  -0.001113  -0.000606   0.004740
     5  C   -0.987693  -1.345096   0.034015  -0.001029  -0.001539   0.001889
     6  N    0.096272   0.288059   0.000468   0.000002  -0.000001   0.000000
     7  C   -0.005977   0.147916   0.000412  -0.000004  -0.000008   0.000004
     8  C    0.000521   0.128619  -0.000780   0.000006   0.000001   0.000001
     9  C   -0.142115  -0.368211  -0.010002   0.000096   0.000011   0.000004
    10  C   -1.054619  -0.404264  -0.122133   0.000635  -0.000164   0.000516
    11  Se  -0.069748   0.072461   0.005418   0.000897  -0.000203  -0.000128
    12  C    1.346150  -0.244356   0.285657  -0.003723  -0.003631   0.004546
    13  C    3.139670  -0.309136   0.707670  -0.020826   0.081142  -0.181666
    14  N   -0.033442  -0.002056  -0.065155  -0.002091  -0.010204   0.019849
    15  C   -0.932356  -0.027718   2.476886  -0.167457   0.179611  -0.119967
    16  C   -0.697296   0.042190   3.150121  -0.851039   0.265330  -2.188986
    17  C   -2.740889  -0.009671  -3.319865   0.331216  -0.249494  -0.030244
    18  C   -0.661801   0.147679  -0.919579  -0.035201   0.085310  -0.227193
    19  C   10.643404   0.074173  -0.053307   0.016275  -0.039226  -0.000944
    20  C    0.074173  13.852006   0.001745  -0.000007  -0.000024   0.000028
    21  C   -0.053307   0.001745  20.246997  -0.142946  -0.321655  -2.930196
    22  N    0.016275  -0.000007  -0.142946   7.131585  -0.213132   0.325325
    23  C   -0.039226  -0.000024  -0.321655  -0.213132   7.780592  -1.662227
    24  C   -0.000944   0.000028  -2.930196   0.325325  -1.662227  25.138300
    25  C   -0.473836  -0.000113  -2.935588  -0.267104   4.153591  -0.686117
    26  N    0.017185   0.000001   0.713127  -0.005499  -0.132064  -1.927505
    27  S    0.034561   0.000137  -0.887906   0.045412  -0.019421  -0.514123
    28  N    0.014086   0.000047  -0.745731   0.025533   0.242096   1.053154
    29  C   -0.356184   0.001651  -8.276160   1.134025  -4.696204 -10.025724
    30  H   -0.028398   0.059801   0.001404   0.000027  -0.000017   0.000003
    31  H    0.070654  -0.553525  -0.000651  -0.000018   0.000025  -0.000014
    32  H   -0.128881  -0.422460  -0.003479   0.000012   0.000010   0.000027
    33  H    0.000471  -0.032030   0.000007  -0.000000  -0.000000   0.000000
    34  H   -0.000116   0.002745  -0.000015   0.000000   0.000000   0.000000
    35  H   -0.003849  -0.007485   0.000028   0.000001   0.000002  -0.000001
    36  H   -0.017876  -0.000476   0.014211  -0.012570   0.000553  -0.008109
    37  H   -0.149589  -0.011333  -0.151522   0.001010   0.053673  -0.033968
    38  H   -0.016470   0.712056  -0.000014   0.000000  -0.000000   0.000000
    39  H   -0.000650  -0.000000   0.057753  -0.133810   0.571420  -0.506782
    40  H   -0.000214   0.000000  -0.005101   0.017308  -0.139336   0.745579
             25         26         27         28         29         30
     1  C   -0.003172   0.000045   0.000238   0.000967  -0.007067   0.512819
     2  C   -0.006020   0.000178   0.003321   0.003380   0.023319  -0.333232
     3  C    0.014361  -0.000220  -0.024148  -0.006166  -0.218102   0.176609
     4  C    0.017284  -0.000552  -0.004398  -0.000640  -0.068375  -0.027324
     5  C    0.005726  -0.000078  -0.001266  -0.002041   0.023012  -0.196046
     6  N   -0.000025   0.000000   0.000001   0.000013  -0.000227  -0.073929
     7  C   -0.000003   0.000000   0.000001  -0.000001   0.000298  -0.000972
     8  C    0.000008  -0.000000  -0.000005  -0.000002  -0.000135   0.023755
     9  C   -0.000061   0.000000  -0.000013   0.000013  -0.000386   0.010598
    10  C    0.004270  -0.000032  -0.000211  -0.001352   0.031862  -0.090031
    11  Se  -0.005205   0.000115   0.000849   0.000804   0.012403  -0.003760
    12  C    0.002352  -0.000534  -0.000854   0.000455  -0.094871   0.132785
    13  C   -0.390677   0.006440   0.031354   0.032165  -0.881864   0.042498
    14  N    0.056579  -0.001127  -0.000099  -0.006101   0.187163   0.002411
    15  C    0.157200   0.005532  -0.102625  -0.080904  -0.560488   0.004841
    16  C   -2.032506   0.287916  -0.242257  -0.230798  -2.612296   0.011592
    17  C   -0.851615   0.004634   0.104562  -0.040988  -0.434459  -0.035735
    18  C   -0.064402   0.000869  -0.021224   0.002174  -2.306112  -0.060960
    19  C   -0.473836   0.017185   0.034561   0.014086  -0.356184  -0.028398
    20  C   -0.000113   0.000001   0.000137   0.000047   0.001651   0.059801
    21  C   -2.935588   0.713127  -0.887906  -0.745731  -8.276160   0.001404
    22  N   -0.267104  -0.005499   0.045412   0.025533   1.134025   0.000027
    23  C    4.153591  -0.132064  -0.019421   0.242096  -4.696204  -0.000017
    24  C   -0.686117  -1.927505  -0.514123   1.053154 -10.025724   0.000003
    25  C   43.187747  -3.693997  -1.315910   4.657209 -33.329925  -0.000434
    26  N   -3.693997   8.400698   0.024838  -1.011564   4.642316   0.000005
    27  S   -1.315910   0.024838  16.647384  -0.472244   1.730873   0.000080
    28  N    4.657209  -1.011564  -0.472244   8.891181  -4.929919   0.000144
    29  C  -33.329925   4.642316   1.730873  -4.929919  66.630539   0.000491
    30  H   -0.000434   0.000005   0.000080   0.000144   0.000491   0.855490
    31  H    0.000500  -0.000008  -0.000142  -0.000205  -0.001201  -0.285062
    32  H    0.000420  -0.000024  -0.000041  -0.000185  -0.000383  -0.000820
    33  H    0.000001  -0.000000   0.000000  -0.000000   0.000010  -0.007555
    34  H    0.000000  -0.000000  -0.000000  -0.000000   0.000001   0.001099
    35  H   -0.000010   0.000000   0.000002   0.000003  -0.000043  -0.000094
    36  H    0.003653  -0.000162  -0.002771  -0.000408  -0.184872  -0.000231
    37  H    0.330356  -0.011454  -0.068692   0.077644  -0.370911  -0.002325
    38  H   -0.000002   0.000000   0.000004   0.000002   0.000031   0.008461
[...]
 8200,-0.00338241,-0.00164523,-0.00085628,0.00006446,-0.00021630,0.0000
 8134,0.00000608,0.00002800,-0.00003131,0.00004159,-0.00003626,0.000021
 67,0.00001028,0.00000347,-0.00001929,0.00018277,0.00001270,0.00000149,
 -0.00002182,0.00001609,0.00004949,0.00020444,-0.00016183,-0.00003549,0
 .00002698,-0.00000439,-0.00000374,0.00000135,-0.00002932,0.00000387,-0
 .00001123,-0.00000668,-0.00008431,-0.00000108,0.00000110,-0.00000313,-
 0.00000071,-0.00000065,0.00000015,-0.00000868,-0.00000551,0.00000021,-
 0.07717248,0.16312771,-0.00000662,-0.00000318,-0.00004199,-0.00001954,
 -0.00013634,0.00011953,-0.00016519,0.00016247,-0.00003069,-0.00020154,
 0.00000199,-0.00027547,0.00006896,0.00006444,-0.00005157,0.00001781,-0
 .00003368,0.00000022,-0.00004173,-0.00002537,0.00000231,0.00000615,-0.
 00001427,-0.00004229,0.00004440,-0.00002117,0.00004024,-0.00006170,-0.
 00000958,0.00003341,0.00004172,0.00004553,-0.00003107,0.00039967,-0.00
 028408,0.00011128,0.00062117,-0.00569857,0.00663043,-0.00087792,-0.010
 94380,-0.01171646,0.08862979,-0.11479060,-0.17079795,0.00201070,-0.006
 48567,0.00365527,0.00135134,-0.00249942,0.00312166,-0.00119498,0.00102
 246,-0.00032338,0.00080836,0.00024878,-0.00085652,0.00003710,-0.000003
 03,-0.00000443,0.00014516,0.00090965,-0.00144470,-0.00183129,-0.001436
 02,0.00012423,-0.00036450,0.00026574,-0.00032934,0.00008616,-0.0001403
 1,-0.00003009,-0.00004977,0.00006374,-0.00002718,0.00008453,-0.0000279
 3,0.00001851,-0.00012881,0.00001203,0.00003635,0.00008876,0.00002094,-
 0.00004987,-0.00002504,0.00011921,-0.00008156,-0.00007770,0.00003408,-
 0.00000598,-0.00001231,0.00003810,-0.00001198,0.00001239,0.00000612,0.
 00005785,-0.00000218,-0.00000560,0.00000024,0.00000188,-0.00000231,-0.
 00000358,-0.00000055,0.00000083,-0.00000165,-0.08927545,0.13942905,0.1
 7263442,-0.00000630,0.00000280,0.00007577,0.00012795,-0.00020906,-0.00
 011460,0.00052687,0.00041677,0.00017328,0.00008265,0.00009954,0.000047
 14,0.00005794,-0.00001844,-0.00005120,0.00000380,-0.00000279,-0.000010
 93,0.00000528,-0.00001901,0.00000133,-0.00000764,0.00001370,-0.0000031
 9,0.00000659,-0.00002409,-0.00000326,0.00000938,0.00004712,0.00004818,
 -0.00006599,-0.00007376,-0.00006704,-0.00045057,0.00044642,0.00032353,
 -0.00013194,-0.00280666,-0.00077327,0.00030095,0.00029116,-0.00059727,
 0.00138158,0.00022202,0.00183135,-0.00406343,-0.00112359,0.00079285,-0
 .33594062,-0.00824742,0.06965420,-0.01276470,-0.00036458,0.00435439,0.
 00093323,0.00169186,0.00051316,0.00004065,-0.00000435,-0.00000470,0.00
 050153,0.00038381,-0.00044008,-0.00028120,0.00008673,-0.00000787,-0.00
 008228,0.00000687,0.00004088,0.00005132,-0.00005760,-0.00005268,0.0001
 7651,0.00012983,0.00010560,-0.00017863,0.00019737,0.00016029,-0.001490
 06,-0.00070714,-0.00052453,-0.00402548,-0.00173808,-0.00225413,0.00125
 884,-0.00010691,-0.00001507,-0.00001726,0.00003107,0.00000824,-0.00000
 802,0.00001290,0.00000131,-0.00000067,-0.00000052,-0.00003796,-0.00000
 015,0.00000208,0.00000178,0.00000265,0.00000014,-0.00000099,0.00000809
 ,-0.00000173,-0.00000113,-0.00018939,-0.00018030,-0.00012181,0.3542565
 9,-0.00002388,-0.00006851,-0.00004179,-0.00032642,0.00021847,0.0000867
 7,-0.00005726,-0.00029799,-0.00070282,-0.00005301,0.00005852,0.0001303
 9,0.00005396,0.00004839,-0.00004658,0.00003985,-0.00001654,-0.00000421
 ,-0.00000641,-0.00001403,-0.00001608,-0.00001250,0.00000283,0.00000578
 ,0.00001967,-0.00003444,-0.00003780,-0.00006726,0.00000348,0.00002905,
 -0.00014094,-0.00020733,-0.00004486,-0.00096023,0.00012054,0.00042318,
 -0.00256000,0.00045987,-0.00582473,0.00046771,-0.00171612,0.00159404,0
 .00010384,0.00090136,-0.00691738,0.01896304,0.00578428,-0.00544494,-0.
 00781814,-0.05233250,-0.00368338,-0.02136601,0.00346152,0.00279853,0.0
 0100646,-0.00050467,0.00374818,0.00003455,0.00002134,0.00002648,0.0011
 5627,-0.00020489,0.00287304,-0.00013650,-0.00065276,-0.00015461,0.0001
 2703,0.00039344,-0.00010845,-0.00013906,-0.00006264,0.00003265,0.00031
 112,-0.00014316,-0.00032319,0.00011692,0.00058929,0.00032543,-0.000970
 43,-0.00003508,0.00011572,-0.00058088,-0.00077426,-0.00063432,0.000149
 02,-0.00082573,-0.00088354,-0.00004698,0.00001532,0.00000339,-0.000004
 89,0.00005104,-0.00001132,0.00003204,-0.00003998,-0.00000751,-0.000002
 02,0.00000093,0.00000161,0.00000356,-0.00000267,-0.00000165,0.00000678
 ,0.00000687,0.00000052,0.00113188,-0.00015940,0.00022957,0.01157052,0.
 04593283,-0.00006971,-0.00001357,-0.00021056,-0.00028693,-0.00009730,0
 .00022549,0.00030880,-0.00051547,-0.00029759,-0.00004831,0.00006305,0.
 00018820,0.00007834,0.00000765,-0.00004638,0.00006495,-0.00001515,-0.0
 0000551,-0.00002191,-0.00003039,-0.00001143,0.00000248,-0.00000050,-0.
 00000181,0.00000930,-0.00003239,-0.00001542,-0.00004282,0.00003488,0.0
 0002132,0.00002138,-0.00008970,-0.00018446,-0.00074852,0.00015154,0.00
 027166,-0.00063742,-0.00551453,0.00277356,-0.00068828,0.00133701,-0.00
 192995,0.00180799,-0.00718172,0.00143056,0.02060754,0.00083492,0.00230
 564,0.06753931,-0.00535646,-0.06605813,-0.01479119,-0.00113145,0.00801
 721,0.00032174,0.00323953,-0.00051974,0.00006270,-0.00001168,-0.000015
 40,-0.00023578,0.00243096,-0.00139805,-0.00032728,0.00029859,0.0000284
 0,-0.00006878,-0.00018444,0.00026297,-0.00001204,-0.00003047,-0.000071
 86,0.00032211,-0.00010928,0.00019365,0.00021463,0.00101196,0.00051826,
 -0.00142191,-0.00015719,0.00013696,-0.00022281,-0.00089703,-0.00103520
 ,0.00024349,-0.00133650,-0.00084182,-0.00008473,0.00003191,0.00001728,
 0.00000097,0.00010642,-0.00001003,0.00006708,-0.00004324,0.00011809,-0
 .00000235,0.00000086,0.00000364,0.00000473,0.00000104,-0.00000269,0.00
 000483,0.00000534,-0.00000141,0.00105864,0.00066141,-0.00049001,-0.073
 04004,0.01243340,0.05667049,0.00141129,0.02828723,-0.00334463,0.001202
 04,-0.00011895,0.00589243,0.00031321,0.00218532,-0.00023271,0.00024832
 ,-0.00015831,-0.00001534,-0.00014817,0.00000378,-0.00006006,-0.0000545
 9,0.00010816,-0.00008864,-0.00012187,-0.00004251,-0.00010316,-0.000010
 03,0.00001409,-0.00002893,-0.00000671,-0.00002553,-0.00000505,0.000054
 36,-0.00003078,0.00003267,-0.00002444,0.00004637,-0.00000731,0.0000460
 1,0.00012408,0.00012990,-0.00002720,-0.00010713,-0.00007064,0.00005545
 ,0.00007950,-0.00003462,-0.00007947,-0.00000234,0.00003284,0.00000334,
 -0.00003960,-0.00008393,0.00000794,0.00005749,0.00006820,0.00028230,-0
 .00025441,0.00037080,-0.00100249,-0.00039036,-0.00103085,-0.06167566,-
 0.10650682,0.03905834,0.00003499,0.00004105,0.00003656,-0.00000178,-0.
 00002348,-0.00001438,-0.00000945,0.00001561,0.00000567,0.00000415,-0.0
 0000748,-0.00001153,-0.00000833,-0.00000194,0.00000758,-0.00000239,-0.
 00001451,-0.00001319,0.00000244,0.00000885,0.00001287,0.00000392,-0.00
 000474,-0.00001096,0.00000090,0.00000753,-0.00001273,-0.00022249,0.000
 87447,0.00076670,-0.00030645,-0.00245738,-0.00452014,0.00070958,0.0005
 1473,-0.00032267,-0.00001103,-0.00000833,0.00002345,0.00001236,-0.0000
 0870,0.00000987,0.00000188,-0.00000350,0.00000045,0.00000340,-0.000009
 97,0.00000404,-0.00000051,0.00000320,0.00002829,0.05931455,-0.01532369
 ,-0.02521534,0.01109079,0.00672504,-0.00272172,-0.00225595,-0.00117863
 ,-0.00173581,0.00031590,-0.00032884,-0.00000699,-0.00014355,-0.0001339
 4,-0.00008854,0.00002418,0.00014715,0.00005086,0.00001432,0.00010031,-
 0.00008412,-0.00009383,0.00001804,0.00010567,0.00005545,-0.00003861,-0
 .00004136,-0.00002003,0.00018606,-0.00001584,-0.00005903,0.00016308,-0
 .00001491,0.00000842,-0.00017556,-0.00000188,-0.00004996,-0.00000912,0
 .00006016,0.00005552,0.00003718,-0.00011377,-0.00015468,0.00006991,0.0
 0002011,-0.00003547,0.00002814,-0.00003221,-0.00001256,0.00006994,0.00
 003348,0.00000742,0.00017846,-0.00022718,-0.00014144,0.00022521,0.0001
 2611,0.00008014,-0.06762250,-0.23350728,0.05664125,0.00010905,0.000092
 81,0.00001524,0.00000579,-0.00005992,-0.00003998,-0.00001215,0.0000261
 1,0.00001715,-0.00001086,-0.00002579,-0.00000089,-0.00000321,-0.000000
 92,-0.00001974,0.00000146,-0.00003812,-0.00002839,-0.00000196,0.000034
 15,0.00002390,0.00000698,-0.00001033,-0.00002486,-0.00010536,-0.000021
 75,0.00006467,-0.00036314,-0.00015818,0.00065446,-0.00087290,0.0022687
 7,-0.00115453,0.00019403,0.00053841,-0.00011429,0.00002373,0.00000653,
 0.00008474,0.00001783,-0.00000392,0.00001367,0.00000778,-0.00000567,0.
 00000289,0.00000433,-0.00000482,0.00000353,0.00000933,0.00002309,0.000
 02649,0.07784979,0.26076026,0.00073470,-0.01835785,-0.00272720,0.00731
 615,-0.00332512,0.00593460,-0.00140436,0.00194811,0.00018807,0.0005016
 9,-0.00014112,0.00017196,-0.00018405,-0.00008910,-0.00009370,-0.000368
 69,0.00013198,-0.00018526,-0.00015216,0.00021192,0.00007012,-0.0000083
 2,-0.00015966,-0.00006305,0.00006291,0.00002353,0.00001461,-0.00001573
 ,-0.00000610,-0.00004011,-0.00024492,0.00001736,0.00007784,0.00029941,
 0.00039422,0.00018406,-0.00017076,-0.00036170,-0.00030235,0.00004255,0
 .00033100,0.00026124,-0.00028743,-0.00008576,-0.00000136,0.00008698,-0
 .00004365,-0.00007798,0.00000017,0.00003681,0.00008399,0.00005141,-0.0
 0034871,0.00007933,-0.00101781,-0.00131707,-0.00143555,0.03657031,0.08
 791342,-0.04648409,-0.00011658,-0.00010598,-0.00008027,-0.00000582,0.0
 0007051,0.00004839,0.00002529,-0.00003451,-0.00002300,-0.00000159,0.00
 002902,0.00001158,0.00001296,-0.00000314,0.00001033,-0.00000288,0.0000
 4698,0.00002862,-0.00000163,-0.00004378,-0.00003186,-0.00000804,0.0000
 1910,0.00002949,0.00009420,0.00000790,-0.00002334,-0.00039500,0.001704
 78,0.00125496,-0.00510253,-0.00286436,-0.00151247,0.00026636,-0.000706
 19,-0.00063721,-0.00006105,-0.00002898,-0.00005286,-0.00002416,-0.0000
 1166,0.00000550,-0.00000560,0.00000291,-0.00000169,-0.00000348,-0.0000
 0401,-0.00000096,-0.00001400,-0.00001566,-0.00000822,-0.03646715,-0.06
 484709,0.04532110,-0.00001093,0.00000048,0.00000127,0.00000725,-0.0000
 1433,0.00000595,-0.00000097,0.00001280,-0.00000452,0.00002490,-0.00000
 338,0.00000884,-0.00000713,-0.00001233,-0.00000598,-0.00000144,0.00000
 047,0.00000460,0.00001216,0.00000429,-0.00000776,-0.00000569,0.0000070
 6,0.00001299,-0.00001085,-0.00000764,-0.00000601,0.00000543,0.00000442
 ,0.00000176,-0.00000271,-0.00000562,-0.00000144,0.00001077,0.00002186,
 0.00001196,-0.00003779,-0.00002366,-0.00000602,-0.00002211,0.00005627,
 0.00004822,0.00006398,-0.00002715,-0.00004681,0.00044019,-0.00008266,-
 0.00005089,-0.00013475,-0.00015475,-0.00009890,0.00004296,0.00004264,-
 0.00002036,0.00000524,-0.00003123,-0.00002208,0.00000886,-0.00000337,0
 .00000073,0.00062778,-0.00361203,-0.00255110,0.01293966,-0.01353227,-0
 .00898077,-0.17580060,0.11758028,0.07783766,-0.01437314,0.02090942,0.0
 1379569,-0.00465282,-0.00204736,-0.00153515,-0.00063683,0.00114965,0.0
 0074721,-0.00049853,0.00015006,0.00008746,0.00037188,0.00013143,0.0001
 1651,-0.00039550,-0.00058210,-0.00040245,0.00000306,0.00000297,0.00000
 461,-0.00000086,0.00000303,0.00000174,0.00000008,0.00000005,-0.0000038
 0,-0.00000080,0.00000170,0.00000126,0.00000094,0.00000114,0.00000060,-
 0.00000050,0.00000049,-0.00000052,-0.00003248,-0.00002586,0.00001820,-
 0.00001352,-0.00000602,-0.00000872,0.00000248,0.00000238,-0.00000432,0
 .18129502,0.00002127,0.00000079,-0.00000612,-0.00001991,0.00002919,0.0
 0000473,0.00001380,-0.00005063,-0.00001220,-0.00004788,0.00001272,-0.0
 0000324,0.00001722,0.00001627,0.00000998,0.00000264,0.00000478,-0.0000
 0103,-0.00003470,-0.00000596,0.00001132,0.00001408,-0.00002451,-0.0000
 3043,0.00002830,0.00002300,0.00002095,-0.00003647,-0.00003001,-0.00001
 987,0.00000689,0.00000372,0.00000322,0.00001802,-0.00004149,-0.0000259
 1,0.00003981,0.00006872,-0.00000843,-0.00007821,-0.00011639,-0.0000757
 7,0.00005551,0.00002739,0.00000103,0.00060579,-0.00021713,-0.00047413,
 -0.00026595,-0.00014390,0.00003026,0.00005968,-0.00008276,-0.00004194,
 -0.00005143,0.00002518,-0.00000014,-0.00001953,0.00000414,-0.00000082,
 -0.00137062,0.00049933,-0.00395470,0.00894826,-0.02325351,-0.01493074,
 0.11641359,-0.16255958,-0.07969567,-0.00321431,0.00701785,0.00013287,-
 0.00140768,0.00317684,-0.00376431,-0.00005493,0.00054777,-0.00028033,-
 0.00000840,-0.00029299,0.00077084,0.00015888,-0.00008301,0.00021005,-0
 .00052990,-0.00018984,-0.00002683,-0.00000240,-0.00000617,-0.00000744,
 0.00000155,-0.00000649,-0.00000241,-0.00000269,-0.00000034,0.00000593,
 0.00000038,-0.00000268,-0.00000262,-0.00000099,-0.00000181,-0.00000154
 ,-0.00000142,0.00000027,-0.00000006,0.00006277,-0.00006233,-0.00005481
 ,-0.00000620,0.00001803,0.00000796,-0.00000318,-0.00000757,0.00000884,
 -0.11961720,0.17671286,0.00001538,0.00000271,-0.00000293,-0.00001703,0
 .00002399,0.00000340,-0.00000044,-0.00004193,-0.00001791,-0.00002765,-
 0.00000257,0.00000185,0.00001454,0.00000931,0.00000456,0.00000220,0.00
 000407,-0.00000388,-0.00002788,-0.00000168,0.00000307,0.00001140,-0.00
 002139,-0.00002019,0.00002350,0.00001809,0.00001466,-0.00002949,-0.000
 01644,-0.00001903,0.00000161,0.00000200,0.00001369,0.00002070,-0.00000
 920,-0.00002154,0.00002579,0.00001415,0.00003671,-0.00007707,-0.000057
 26,-0.00008394,0.00008040,0.00000176,0.00003740,0.00048888,-0.00036101
 ,0.00012899,-0.00018459,-0.00000118,-0.00006525,0.00005126,-0.00001150
 ,-0.00005886,-0.00002388,0.00001741,0.00001291,-0.00001614,0.00000301,
 -0.00000190,-0.00105798,-0.00413354,0.00353041,0.00590135,-0.01549133,
 -0.01137905,0.07719216,-0.07942559,-0.09511123,-0.00255570,0.00039956,
 0.00702512,-0.00109538,-0.00376042,0.00616501,-0.00003711,-0.00029528,
 0.00075576,0.00006048,0.00078891,-0.00091047,0.00008561,0.00022808,-0.
 00023012,-0.00031028,0.00000336,-0.00014866,-0.00000065,-0.00000553,-0
 .00000416,0.00000250,-0.00000429,-0.00000233,-0.00000167,-0.00000020,0
 .00000547,0.00000028,-0.00000243,-0.00000147,-0.00000129,-0.00000168,-
 0.00000079,-0.00000202,-0.00000056,0.00000107,0.00002828,-0.00003364,-
 0.00001148,-0.00000168,-0.00002469,0.00001774,-0.00000126,-0.00000576,
 0.00000639,-0.07881976,0.10005186,0.09307835,0.00000931,-0.00000390,-0
 .00000580,-0.00001867,0.00001758,0.00000223,0.00000522,-0.00003171,-0.
 00000801,-0.00001754,0.00000294,-0.00001250,0.00000993,0.00001000,0.00
 000311,0.00000021,-0.00000009,-0.00000313,-0.00001306,-0.00000280,0.00
 000527,0.00000448,-0.00000797,-0.00001151,0.00001142,0.00001038,0.0000
 0534,-0.00001169,-0.00001657,-0.00000032,0.00000070,0.00001004,0.00000
 237,0.00001638,-0.00001978,-0.00001495,0.00003683,0.00001669,-0.000006
 79,-0.00000811,-0.00008497,-0.00005201,-0.00005746,0.00006611,0.000065
 00,0.00022686,-0.00029961,-0.00019484,-0.00007505,0.00003792,0.0000322
 4,0.00001109,-0.00007520,-0.00004984,-0.00001648,0.00003618,0.00002160
 ,-0.00000737,0.00000262,0.00000113,-0.00127887,0.00141772,0.00092727,-
 0.00564601,-0.00052515,-0.00050640,-0.00386513,-0.02446085,-0.01661691
 ,-0.10592828,-0.08913778,-0.06091043,0.01190151,0.01502229,0.01021103,
 0.00169507,-0.00135613,-0.00081126,0.00056834,0.00024429,0.00018652,-0
 .00034181,0.00144818,0.00093023,-0.00251698,0.00139429,0.00088978,-0.0
 0000218,-0.00000434,-0.00000409,0.00000056,-0.00000310,-0.00000050,0.0
 0000031,-0.00000094,0.00000393,0.00000031,-0.00000126,-0.00000079,-0.0
 0000037,-0.00000116,-0.00000059,-0.00000039,-0.00000011,0.00000062,0.0
 0011692,0.00002410,-0.00001966,-0.00001404,-0.00001855,-0.00000975,-0.
 00000185,-0.00000049,0.00000298,0.00077731,0.00030557,0.00028264,0.104
 42858,0.00000166,0.00000101,-0.00000166,-0.00000723,0.00000353,-0.0000
 0898,-0.00000045,-0.00001298,0.00001622,-0.00001017,-0.00000606,-0.000
 02480,-0.00000460,0.00001100,0.00000370,-0.00000253,-0.00000152,-0.000
 00282,0.00000204,-0.00000280,0.00000473,-0.00000129,0.00000149,-0.0000
 0431,0.00000485,0.00000008,0.00000246,0.00000535,-0.00000163,0.0000047
 0,0.00000040,-0.00000229,0.00000225,-0.00001826,0.00001045,0.00002148,
 0.00004243,-0.00000264,-0.00004053,-0.00003755,-0.00003607,0.00008199,
 -0.00003051,0.00002730,-0.00008480,-0.00018619,-0.00060096,0.00089487,
 0.00006362,0.00001756,0.00005139,-0.00002335,0.00007173,-0.00007557,0.
 00000349,0.00001540,0.00000084,-0.00000393,0.00000064,-0.00000076,0.00
 079551,0.00004629,-0.00012709,-0.00013131,0.00408440,-0.00308713,0.001
 34923,0.00161335,0.00000689,-0.08911509,-0.21707355,-0.12454563,-0.010
 45742,-0.01135565,-0.00975414,-0.00089933,0.00076511,0.00200223,0.0000
 5153,-0.00057987,-0.00000100,0.00008860,-0.00064602,-0.00091137,0.0028
 0673,0.00143433,-0.00227960,0.00000214,-0.00000068,-0.00000147,0.00000
 125,-0.00000181,0.00000004,0.00000042,0.00000197,0.00000265,0.00000045
 ,-0.00000030,-0.00000047,0.00000003,-0.00000026,-0.00000016,0.00000003
 ,-0.00000012,-0.00000083,-0.00001103,0.00003216,-0.00006250,0.00003019
 ,-0.00001875,0.00006353,-0.00000131,-0.00000255,0.00000279,-0.00029394
 ,-0.00100977,0.00214084,0.09598556,0.22321849,-0.00000027,0.00000118,0
 .00000228,0.00000404,-0.00000362,-0.00001421,0.00002386,0.00001700,-0.
 00000456,-0.00003300,0.00000664,-0.00001013,-0.00000147,0.00000646,0.0
 0001592,-0.00000320,0.00000089,-0.00001065,0.00000427,-0.00000481,0.00
 000648,-0.00000005,0.00000544,-0.00000323,-0.00000209,0.00000139,0.000
 00284,0.00001416,0.00000524,-0.00000991,0.00000379,0.00000173,0.000002
 87,-0.00002948,-0.00000317,-0.00001722,-0.00001837,0.00004505,0.000046
 01,-0.00001861,0.00001529,-0.00011338,-0.00001426,0.00000923,0.0001015
 4,0.00007736,0.00112663,-0.00117270,-0.00002179,-0.00011568,-0.0001251
 3,0.00012656,-0.00012239,0.00016613,-0.00001967,-0.00001997,-0.0000036
 8,-0.00000105,-0.00000025,-0.00000261,0.00041119,-0.00028839,0.0000416
 1,-0.00027992,-0.00313410,0.00664069,0.00066453,-0.00029174,0.00143460
 ,-0.06087729,-0.12446042,-0.11824285,-0.00681238,-0.00944638,-0.003500
 79,-0.00056500,0.00203782,-0.00093893,0.00010111,-0.00003528,-0.000599
 90,-0.00006954,-0.00084724,0.00014660,0.00174147,-0.00238836,0.0033880
 7,0.00000217,-0.00000210,-0.00000054,0.00000089,-0.00000094,0.00000029
 ,0.00000071,-0.00000021,0.00000142,0.00000055,-0.00000004,0.00000033,-
 0.00000053,-0.00000081,0.00000091,0.00000066,-0.00000254,0.00000079,0.
 00005035,-0.00004890,0.00007422,0.00000417,0.00007176,-0.00004546,-0.0
 0000077,0.00000190,0.00000036,-0.00012991,0.00215165,-0.00274735,0.065
 66679,0.13571202,0.11548926\\-0.00004459,-0.00000969,-0.00002497,0.000
 00460,0.00006587,0.00002099,0.00001167,-0.00000616,-0.00004636,-0.0000
 2372,-0.00000944,0.00004288,0.00000431,0.00000205,0.00001853,0.0000042
 6,0.00001827,-0.00002321,-0.00000138,-0.00001386,0.00000458,-0.0000097
 7,0.00000604,-0.00000090,-0.00000208,-0.00000073,-0.00000203,-0.000002
 61,-0.00000110,0.00000620,-0.00001743,0.00001293,-0.00000892,0.0000337
 9,-0.00003588,0.00001339,-0.00000261,0.00003468,-0.00006516,-0.0000074
 1,-0.00001405,0.00003265,0.00000741,0.00001170,-0.00000331,0.00000016,
 0.00000156,0.00001073,0.00000700,-0.00001871,-0.00000756,0.00001493,0.
 00000052,0.00000957,-0.00002137,-0.00002806,0.00001089,-0.00000971,-0.
 00002198,0.00000237,-0.00003302,0.00001505,-0.00000424,0.00000159,-0.0
 0002562,-0.00000715,0.00002415,0.00001299,0.00001250,-0.00002283,-0.00
 000977,0.00001207,0.00003969,-0.00000156,0.00003463,-0.00002539,0.0000
 5125,0.00001258,0.00003434,-0.00004454,-0.00003115,-0.00001544,-0.0000
 0376,0.00003147,0.00002213,-0.00001205,-0.00005083,0.00002585,0.000005
 92,0.00001501,0.00001140,0.00000103,0.00000316,-0.00000912,-0.00001055
 ,0.00000111,-0.00000725,0.00000433,-0.00000180,-0.00000034,-0.00000041
 ,0.00000268,0.00000047,0.00000330,0.00000153,0.00000315,0.00000627,-0.
 00000392,-0.00000782,0.00000142,-0.00000336,0.00000351,0.00001334,-0.0
 0000923,0.00000526,-0.00000445,0.00000301,0.00000421,0.00000385,-0.000
 00843\\\@


 IT IS THE BEHAVIOR AND DISTRIBUTION OF THE ELECTRONS 
 AROUND THE NUCLEUS THAT GIVES THE FUNDAMENTAL 
 CHARACTER OF AN ATOM:  IT MUST BE THE SAME FOR MOLECULES.

                               -- C. A. COULSON, 1951
 Job cpu time:  0 days 21 hours  5 minutes 29.0 seconds.
 File lengths (MBytes):  RWF=   1746 Int=      0 D2E=      0 Chk=     30 Scr=      1
 Normal termination of Gaussian 09 at Mon Dec 30 02:12:21 2013.
