 Entering Gaussian System, Link 0=g09
 Initial command:
 /opt/gaussian/g09/l1.exe /panfs/panfs.cluster/home/shuo/Gau-16907.inp -scrdir=/panfs/panfs.cluster/home/shuo/
 Default is to use a total of  12 processors:
                               12 via shared-memory
                                1 via Linda
 Entering Link 1 = /opt/gaussian/g09/l1.exe PID=     16908.
  
 Copyright (c) 1988,1990,1992,1993,1995,1998,2003,2009,2011,
            Gaussian, Inc.  All Rights Reserved.
  
 This is part of the Gaussian(R) 09 program.  It is based on
 the Gaussian(R) 03 system (copyright 2003, Gaussian, Inc.),
 the Gaussian(R) 98 system (copyright 1998, Gaussian, Inc.),
 the Gaussian(R) 94 system (copyright 1995, Gaussian, Inc.),
 the Gaussian 92(TM) system (copyright 1992, Gaussian, Inc.),
 the Gaussian 90(TM) system (copyright 1990, Gaussian, Inc.),
 the Gaussian 88(TM) system (copyright 1988, Gaussian, Inc.),
 the Gaussian 86(TM) system (copyright 1986, Carnegie Mellon
 University), and the Gaussian 82(TM) system (copyright 1983,
 Carnegie Mellon University). Gaussian is a federally registered
 trademark of Gaussian, Inc.
  
 This software contains proprietary and confidential information,
 including trade secrets, belonging to Gaussian, Inc.
  
 This software is provided under written license and may be
 used, copied, transmitted, or stored only in accord with that
 written license.
  
 The following legend is applicable only to US Government
 contracts under FAR:
  
                    RESTRICTED RIGHTS LEGEND
  
 Use, reproduction and disclosure by the US Government is
 subject to restrictions as set forth in subparagraphs (a)
 and (c) of the Commercial Computer Software - Restricted
 Rights clause in FAR 52.227-19.
  
 Gaussian, Inc.
 340 Quinnipiac St., Bldg. 40, Wallingford CT 06492
  
  
 ---------------------------------------------------------------
 Warning -- This program may not be used in any manner that
 competes with the business of Gaussian, Inc. or will provide
 assistance to any competitor of Gaussian, Inc.  The licensee
 of this program is prohibited from giving any competitor of
 Gaussian, Inc. access to this program.  By using this program,
 the user acknowledges that Gaussian, Inc. is engaged in the
 business of creating and licensing software in the field of
 computational chemistry and represents and warrants to the
 licensee that it is not a competitor of Gaussian, Inc. and that
 it will not use this program in any manner prohibited above.
 ---------------------------------------------------------------
  

 Cite this work as:
 Gaussian 09, Revision C.01,
 M. J. Frisch, G. W. Trucks, H. B. Schlegel, G. E. Scuseria, 
 M. A. Robb, J. R. Cheeseman, G. Scalmani, V. Barone, B. Mennucci, 
 G. A. Petersson, H. Nakatsuji, M. Caricato, X. Li, H. P. Hratchian, 
 A. F. Izmaylov, J. Bloino, G. Zheng, J. L. Sonnenberg, M. Hada, 
 M. Ehara, K. Toyota, R. Fukuda, J. Hasegawa, M. Ishida, T. Nakajima, 
 Y. Honda, O. Kitao, H. Nakai, T. Vreven, J. A. Montgomery, Jr., 
 J. E. Peralta, F. Ogliaro, M. Bearpark, J. J. Heyd, E. Brothers, 
 K. N. Kudin, V. N. Staroverov, T. Keith, R. Kobayashi, J. Normand, 
 K. Raghavachari, A. Rendell, J. C. Burant, S. S. Iyengar, J. Tomasi, 
 M. Cossi, N. Rega, J. M. Millam, M. Klene, J. E. Knox, J. B. Cross, 
 V. Bakken, C. Adamo, J. Jaramillo, R. Gomperts, R. E. Stratmann, 
 O. Yazyev, A. J. Austin, R. Cammi, C. Pomelli, J. W. Ochterski, 
 R. L. Martin, K. Morokuma, V. G. Zakrzewski, G. A. Voth, 
 P. Salvador, J. J. Dannenberg, S. Dapprich, A. D. Daniels, 
 O. Farkas, J. B. Foresman, J. V. Ortiz, J. Cioslowski, 
 and D. J. Fox, Gaussian, Inc., Wallingford CT, 2010.
 
 ******************************************
 Gaussian 09:  EM64L-G09RevC.01 23-Sep-2011
                28-Dec-2013 
 ******************************************
 %chk=20_C20H10N4OS4Si.chk
 %NProcShared=12
 Will use up to   12 processors via shared memory.
 %Mem=8000MB
 Default route:  MaxDisk=100GB
 --------------------------------------------
 #B3LYP/6-31++G(d,p) opt scf=direct freq test
 --------------------------------------------
 1/14=-1,18=20,19=15,26=3,38=1/1,3;
 2/9=110,12=2,17=6,18=5,40=1/2;
 3/5=1,6=6,7=1111,11=2,16=1,25=1,30=1,71=1,74=-5/1,2,3;
 4//1;
 5/5=2,38=5/2;
 6/7=2,8=2,9=2,10=2,28=1/1;
 7//1,2,3,16;
 1/14=-1,18=20,19=15/3(2);
 2/9=110/2;
 99//99;
 2/9=110/2;
 3/5=1,6=6,7=1111,11=2,16=1,25=1,30=1,71=1,74=-5/1,2,3;
 4/5=5,16=3/1;
 5/5=2,38=5/2;
 7//1,2,3,16;
 1/14=-1,18=20,19=15/3(-5);
 2/9=110/2;
 6/7=2,8=2,9=2,10=2,19=2,28=1/1;
 99/9=1/99;
 ----------------------------------------------------------------------
 Geom opt of No.20 candidate from the CEPDB database with SMILE code of
  C1ccc2csc(c12)-c1ccc(-c2ncc(-c3nccs3)c3nsnc23)c2cscc12, HPC, 20131227
 , Shuo Dai, Gaussian09
 ----------------------------------------------------------------------
 Charge =  0 Multiplicity = 1
 Symbolic Z-Matrix:
 C                    -1.44691   0.962    -0.01093 
 C                    -2.23238  -0.31826  -0.07262 
 C                    -1.4121   -1.37686  -0.04678 
 C                    -0.06327  -0.93958  -0.01563 
 C                     1.14672  -1.53616   0.00236 
 S                     2.36494  -0.34826   0.04372 
 C                     1.22313   0.98602   0.02221 
 C                    -0.04655   0.46964   0.00046 
 C                     1.735     2.34337   0.01696 
 C                     3.11921   2.5791   -0.09894 
 C                     3.68812   3.84815  -0.11804 
 C                     2.96598   5.05563  -0.01851 
 C                     3.59059   6.33741  -0.01278 
 N                     2.79662   7.44452  -0.03499 
 C                     3.29217   8.69275  -0.01892 
 C                     4.64303   8.9978   -0.0099 
 C                     5.10976   10.35577  -0.00324 
 N                     4.31359   11.40614   0.00219 
 C                     5.0812    12.55097  -0.00182 
 C                     6.44028   12.35675  -0.00746 
 S                     6.78863   10.71347  -0.00255 
 C                     5.5199    7.88203  -0.00901 
 N                     6.86503   7.87707  -0.02296 
 S                     7.40068   6.33249  -0.00875 
 N                     5.95259   5.58162   0.03601 
 C                     4.98569   6.51681   0.00438 
 C                     1.57888   4.85618   0.05766 
 C                     0.63447   5.86029   0.18261 
 S                    -0.95573   5.28734   0.06828 
 C                    -0.35652   3.71026   0.27423 
 C                     0.98444   3.5468    0.0765 
 H                    -1.71274   1.41152   0.95104 
 H                    -1.6584    1.6066   -0.87105 
 H                    -3.31274  -0.308    -0.0626 
 H                    -1.71433  -2.41029  -0.02405 
 H                     1.4149   -2.58146  -0.00348 
 H                     3.84602   1.77017  -0.18051 
 H                     4.76766   3.8213   -0.22131 
 H                     2.51625   9.4604   -0.01563 
 H                     4.59442   13.51384  -0.00163 
 H                     7.2554    13.05474  -0.01333 
 H                     0.72522   6.92508   0.30362 
 H                    -1.1244    3.04772   0.54438 
 

 GradGradGradGradGradGradGradGradGradGradGradGradGradGradGradGradGradGrad
 Berny optimization.
 Initialization pass.
                           ----------------------------
                           !    Initial Parameters    !
                           ! (Angstroms and Degrees)  !
 --------------------------                            --------------------------
 ! Name  Definition              Value          Derivative Info.                !
 --------------------------------------------------------------------------------
 ! R1    R(1,2)                  1.5033         estimate D2E/DX2                !
 ! R2    R(1,8)                  1.4844         estimate D2E/DX2                !
 ! R3    R(1,32)                 1.0946         estimate D2E/DX2                !
 ! R4    R(1,33)                 1.0955         estimate D2E/DX2                !
 ! R5    R(2,3)                  1.3395         estimate D2E/DX2                !
 ! R6    R(2,34)                 1.0805         estimate D2E/DX2                !
 ! R7    R(3,4)                  1.4183         estimate D2E/DX2                !
 ! R8    R(3,35)                 1.077          estimate D2E/DX2                !
 ! R9    R(4,5)                  1.3492         estimate D2E/DX2                !
 ! R10   R(4,8)                  1.4094         estimate D2E/DX2                !
 ! R11   R(5,6)                  1.702          estimate D2E/DX2                !
 ! R12   R(5,36)                 1.0792         estimate D2E/DX2                !
 ! R13   R(6,7)                  1.7563         estimate D2E/DX2                !
 ! R14   R(7,8)                  1.3708         estimate D2E/DX2                !
 ! R15   R(7,9)                  1.4507         estimate D2E/DX2                !
 ! R16   R(9,10)                 1.4089         estimate D2E/DX2                !
 ! R17   R(9,31)                 1.4196         estimate D2E/DX2                !
 ! R18   R(10,11)                1.3909         estimate D2E/DX2                !
 ! R19   R(10,37)                1.0905         estimate D2E/DX2                !
 ! R20   R(11,12)                1.4105         estimate D2E/DX2                !
 ! R21   R(11,38)                1.0848         estimate D2E/DX2                !
 ! R22   R(12,13)                1.4259         estimate D2E/DX2                !
 ! R23   R(12,27)                1.4034         estimate D2E/DX2                !
 ! R24   R(13,14)                1.3626         estimate D2E/DX2                !
 ! R25   R(13,26)                1.4067         estimate D2E/DX2                !
 ! R26   R(14,15)                1.3431         estimate D2E/DX2                !
 ! R27   R(15,16)                1.3849         estimate D2E/DX2                !
 ! R28   R(15,39)                1.0915         estimate D2E/DX2                !
 ! R29   R(16,17)                1.436          estimate D2E/DX2                !
 ! R30   R(16,22)                1.4191         estimate D2E/DX2                !
 ! R31   R(17,18)                1.318          estimate D2E/DX2                !
 ! R32   R(17,21)                1.7166         estimate D2E/DX2                !
 ! R33   R(18,19)                1.3784         estimate D2E/DX2                !
 ! R34   R(19,20)                1.3729         estimate D2E/DX2                !
 ! R35   R(19,40)                1.0789         estimate D2E/DX2                !
 ! R36   R(20,21)                1.6798         estimate D2E/DX2                !
 ! R37   R(20,41)                1.0731         estimate D2E/DX2                !
 ! R38   R(22,23)                1.3452         estimate D2E/DX2                !
 ! R39   R(22,26)                1.4661         estimate D2E/DX2                !
 ! R40   R(23,24)                1.6349         estimate D2E/DX2                !
 ! R41   R(24,25)                1.6318         estimate D2E/DX2                !
 ! R42   R(25,26)                1.3455         estimate D2E/DX2                !
 ! R43   R(27,28)                1.3841         estimate D2E/DX2                !
 ! R44   R(27,31)                1.4381         estimate D2E/DX2                !
 ! R45   R(28,29)                1.6941         estimate D2E/DX2                !
 ! R46   R(28,42)                1.0755         estimate D2E/DX2                !
 ! R47   R(29,30)                1.6996         estimate D2E/DX2                !
 ! R48   R(30,31)                1.3653         estimate D2E/DX2                !
 ! R49   R(30,43)                1.0496         estimate D2E/DX2                !
 ! A1    A(2,1,8)              102.1664         estimate D2E/DX2                !
 ! A2    A(2,1,32)             105.006          estimate D2E/DX2                !
 ! A3    A(2,1,33)             111.5945         estimate D2E/DX2                !
 ! A4    A(8,1,32)             111.0126         estimate D2E/DX2                !
 ! A5    A(8,1,33)             112.5394         estimate D2E/DX2                !
 ! A6    A(32,1,33)            113.6719         estimate D2E/DX2                !
 ! A7    A(1,2,3)              110.628          estimate D2E/DX2                !
 ! A8    A(1,2,34)             120.9301         estimate D2E/DX2                !
 ! A9    A(3,2,34)             128.2918         estimate D2E/DX2                !
 ! A10   A(2,3,4)              109.8258         estimate D2E/DX2                !
 ! A11   A(2,3,35)             125.939          estimate D2E/DX2                !
 ! A12   A(4,3,35)             124.2138         estimate D2E/DX2                !
 ! A13   A(3,4,5)              135.7969         estimate D2E/DX2                !
 ! A14   A(3,4,8)              108.6513         estimate D2E/DX2                !
 ! A15   A(5,4,8)              115.5517         estimate D2E/DX2                !
 ! A16   A(4,5,6)              109.4885         estimate D2E/DX2                !
 ! A17   A(4,5,36)             130.6242         estimate D2E/DX2                !
 ! A18   A(6,5,36)             119.8872         estimate D2E/DX2                !
 ! A19   A(5,6,7)               93.7043         estimate D2E/DX2                !
 ! A20   A(6,7,8)              108.4315         estimate D2E/DX2                !
 ! A21   A(6,7,9)              118.7831         estimate D2E/DX2                !
 ! A22   A(8,7,9)              132.7821         estimate D2E/DX2                !
 ! A23   A(1,8,4)              108.6845         estimate D2E/DX2                !
 ! A24   A(1,8,7)              138.4974         estimate D2E/DX2                !
 ! A25   A(4,8,7)              112.818          estimate D2E/DX2                !
 ! A26   A(7,9,10)             120.2327         estimate D2E/DX2                !
 ! A27   A(7,9,31)             127.3372         estimate D2E/DX2                !
 ! A28   A(10,9,31)            112.3999         estimate D2E/DX2                !
 ! A29   A(9,10,11)            123.7555         estimate D2E/DX2                !
 ! A30   A(9,10,37)            122.468          estimate D2E/DX2                !
 ! A31   A(11,10,37)           113.7765         estimate D2E/DX2                !
 ! A32   A(10,11,12)           124.8005         estimate D2E/DX2                !
 ! A33   A(10,11,38)           112.6917         estimate D2E/DX2                !
 ! A34   A(12,11,38)           122.5077         estimate D2E/DX2                !
 ! A35   A(11,12,13)           123.0642         estimate D2E/DX2                !
 ! A36   A(11,12,27)           112.8423         estimate D2E/DX2                !
 ! A37   A(13,12,27)           124.0897         estimate D2E/DX2                !
 ! A38   A(12,13,14)           118.365          estimate D2E/DX2                !
 ! A39   A(12,13,26)           123.3078         estimate D2E/DX2                !
 ! A40   A(14,13,26)           118.3253         estimate D2E/DX2                !
 ! A41   A(13,14,15)           122.6796         estimate D2E/DX2                !
 ! A42   A(14,15,16)           124.38           estimate D2E/DX2                !
 ! A43   A(14,15,39)           113.0402         estimate D2E/DX2                !
 ! A44   A(16,15,39)           122.5796         estimate D2E/DX2                !
 ! A45   A(15,16,17)           121.6936         estimate D2E/DX2                !
 ! A46   A(15,16,22)           115.438          estimate D2E/DX2                !
 ! A47   A(17,16,22)           122.8683         estimate D2E/DX2                !
 ! A48   A(16,17,18)           123.8711         estimate D2E/DX2                !
 ! A49   A(16,17,21)           120.995          estimate D2E/DX2                !
 ! A50   A(18,17,21)           115.1338         estimate D2E/DX2                !
 ! A51   A(17,18,19)           108.9954         estimate D2E/DX2                !
 ! A52   A(18,19,20)           115.7095         estimate D2E/DX2                !
 ! A53   A(18,19,40)           119.339          estimate D2E/DX2                !
 ! A54   A(20,19,40)           124.9515         estimate D2E/DX2                !
 ! A55   A(19,20,21)           110.1005         estimate D2E/DX2                !
 ! A56   A(19,20,41)           131.2942         estimate D2E/DX2                !
 ! A57   A(21,20,41)           118.6054         estimate D2E/DX2                !
 ! A58   A(17,21,20)            90.0589         estimate D2E/DX2                !
 ! A59   A(16,22,23)           128.3717         estimate D2E/DX2                !
 ! A60   A(16,22,26)           120.4652         estimate D2E/DX2                !
 ! A61   A(23,22,26)           111.1628         estimate D2E/DX2                !
 ! A62   A(22,23,24)           109.3302         estimate D2E/DX2                !
 ! A63   A(23,24,25)            98.292          estimate D2E/DX2                !
 ! A64   A(24,25,26)           108.4958         estimate D2E/DX2                !
 ! A65   A(13,26,22)           118.6871         estimate D2E/DX2                !
 ! A66   A(13,26,25)           128.6325         estimate D2E/DX2                !
 ! A67   A(22,26,25)           112.6802         estimate D2E/DX2                !
 ! A68   A(12,27,28)           125.1825         estimate D2E/DX2                !
 ! A69   A(12,27,31)           122.591          estimate D2E/DX2                !
 ! A70   A(28,27,31)           112.1662         estimate D2E/DX2                !
 ! A71   A(27,28,29)           112.8938         estimate D2E/DX2                !
 ! A72   A(27,28,42)           132.1309         estimate D2E/DX2                !
 ! A73   A(29,28,42)           114.9377         estimate D2E/DX2                !
 ! A74   A(28,29,30)            88.5508         estimate D2E/DX2                !
 ! A75   A(29,30,31)           116.0927         estimate D2E/DX2                !
 ! A76   A(29,30,43)           111.0387         estimate D2E/DX2                !
 ! A77   A(31,30,43)           132.8661         estimate D2E/DX2                !
 ! A78   A(9,31,27)            123.5569         estimate D2E/DX2                !
 ! A79   A(9,31,30)            128.8206         estimate D2E/DX2                !
 ! A80   A(27,31,30)           107.3898         estimate D2E/DX2                !
 ! D1    D(8,1,2,3)              2.1255         estimate D2E/DX2                !
 ! D2    D(8,1,2,34)           178.0268         estimate D2E/DX2                !
 ! D3    D(32,1,2,3)          -113.8224         estimate D2E/DX2                !
 ! D4    D(32,1,2,34)           62.0788         estimate D2E/DX2                !
 ! D5    D(33,1,2,3)           122.5939         estimate D2E/DX2                !
 ! D6    D(33,1,2,34)          -61.5049         estimate D2E/DX2                !
 ! D7    D(2,1,8,4)             -1.472          estimate D2E/DX2                !
 ! D8    D(2,1,8,7)            178.5639         estimate D2E/DX2                !
 ! D9    D(32,1,8,4)           110.0311         estimate D2E/DX2                !
 ! D10   D(32,1,8,7)           -69.9331         estimate D2E/DX2                !
 ! D11   D(33,1,8,4)          -121.2805         estimate D2E/DX2                !
 ! D12   D(33,1,8,7)            58.7553         estimate D2E/DX2                !
 ! D13   D(1,2,3,4)             -1.9908         estimate D2E/DX2                !
 ! D14   D(1,2,3,35)           176.3773         estimate D2E/DX2                !
 ! D15   D(34,2,3,4)          -177.5105         estimate D2E/DX2                !
 ! D16   D(34,2,3,35)            0.8577         estimate D2E/DX2                !
 ! D17   D(2,3,4,5)           -179.0804         estimate D2E/DX2                !
 ! D18   D(2,3,4,8)              0.9871         estimate D2E/DX2                !
 ! D19   D(35,3,4,5)             2.5173         estimate D2E/DX2                !
 ! D20   D(35,3,4,8)          -177.4152         estimate D2E/DX2                !
 ! D21   D(3,4,5,6)           -179.8128         estimate D2E/DX2                !
 ! D22   D(3,4,5,36)             0.0445         estimate D2E/DX2                !
 ! D23   D(8,4,5,6)              0.1164         estimate D2E/DX2                !
 ! D24   D(8,4,5,36)           179.9736         estimate D2E/DX2                !
 ! D25   D(3,4,8,1)              0.4222         estimate D2E/DX2                !
 ! D26   D(3,4,8,7)           -179.6036         estimate D2E/DX2                !
 ! D27   D(5,4,8,1)           -179.5257         estimate D2E/DX2                !
 ! D28   D(5,4,8,7)              0.4486         estimate D2E/DX2                !
 ! D29   D(4,5,6,7)             -0.4758         estimate D2E/DX2                !
 ! D30   D(36,5,6,7)           179.6491         estimate D2E/DX2                !
 ! D31   D(5,6,7,8)              0.7165         estimate D2E/DX2                !
 ! D32   D(5,6,7,9)           -178.708          estimate D2E/DX2                !
 ! D33   D(6,7,8,1)            179.1992         estimate D2E/DX2                !
 ! D34   D(6,7,8,4)             -0.764          estimate D2E/DX2                !
 ! D35   D(9,7,8,1)             -1.488          estimate D2E/DX2                !
 ! D36   D(9,7,8,4)            178.5488         estimate D2E/DX2                !
 ! D37   D(6,7,9,10)             6.0289         estimate D2E/DX2                !
 ! D38   D(6,7,9,31)          -176.1309         estimate D2E/DX2                !
 ! D39   D(8,7,9,10)          -173.2272         estimate D2E/DX2                !
 ! D40   D(8,7,9,31)             4.613          estimate D2E/DX2                !
 ! D41   D(7,9,10,11)          179.6955         estimate D2E/DX2                !
 ! D42   D(7,9,10,37)           -0.428          estimate D2E/DX2                !
 ! D43   D(31,9,10,11)           1.5528         estimate D2E/DX2                !
 ! D44   D(31,9,10,37)        -178.5707         estimate D2E/DX2                !
 ! D45   D(7,9,31,27)         -179.5985         estimate D2E/DX2                !
 ! D46   D(7,9,31,30)            6.6624         estimate D2E/DX2                !
 ! D47   D(10,9,31,27)          -1.6168         estimate D2E/DX2                !
 ! D48   D(10,9,31,30)        -175.3558         estimate D2E/DX2                !
 ! D49   D(9,10,11,12)           0.3289         estimate D2E/DX2                !
 ! D50   D(9,10,11,38)        -179.5581         estimate D2E/DX2                !
 ! D51   D(37,10,11,12)       -179.5572         estimate D2E/DX2                !
 ! D52   D(37,10,11,38)          0.5558         estimate D2E/DX2                !
 ! D53   D(10,11,12,13)        178.5835         estimate D2E/DX2                !
 ! D54   D(10,11,12,27)         -2.1048         estimate D2E/DX2                !
 ! D55   D(38,11,12,13)         -1.5401         estimate D2E/DX2                !
 ! D56   D(38,11,12,27)        177.7716         estimate D2E/DX2                !
 ! D57   D(11,12,13,14)        174.1345         estimate D2E/DX2                !
 ! D58   D(11,12,13,26)         -5.3648         estimate D2E/DX2                !
 ! D59   D(27,12,13,14)         -5.0996         estimate D2E/DX2                !
 ! D60   D(27,12,13,26)        175.4011         estimate D2E/DX2                !
 ! D61   D(11,12,27,28)        178.9374         estimate D2E/DX2                !
 ! D62   D(11,12,27,31)          1.9845         estimate D2E/DX2                !
 ! D63   D(13,12,27,28)         -1.7591         estimate D2E/DX2                !
 ! D64   D(13,12,27,31)       -178.712          estimate D2E/DX2                !
 ! D65   D(12,13,14,15)        179.3521         estimate D2E/DX2                !
 ! D66   D(26,13,14,15)         -1.1233         estimate D2E/DX2                !
 ! D67   D(12,13,26,22)        179.2047         estimate D2E/DX2                !
 ! D68   D(12,13,26,25)         -0.982          estimate D2E/DX2                !
 ! D69   D(14,13,26,22)         -0.2948         estimate D2E/DX2                !
 ! D70   D(14,13,26,25)        179.5186         estimate D2E/DX2                !
 ! D71   D(13,14,15,16)          1.5665         estimate D2E/DX2                !
 ! D72   D(13,14,15,39)       -178.5543         estimate D2E/DX2                !
 ! D73   D(14,15,16,17)        179.5066         estimate D2E/DX2                !
 ! D74   D(14,15,16,22)         -0.4376         estimate D2E/DX2                !
 ! D75   D(39,15,16,17)         -0.3615         estimate D2E/DX2                !
 ! D76   D(39,15,16,22)        179.6943         estimate D2E/DX2                !
 ! D77   D(15,16,17,18)          0.3804         estimate D2E/DX2                !
 ! D78   D(15,16,17,21)       -179.5927         estimate D2E/DX2                !
 ! D79   D(22,16,17,18)       -179.6796         estimate D2E/DX2                !
 ! D80   D(22,16,17,21)          0.3473         estimate D2E/DX2                !
 ! D81   D(15,16,22,23)        178.8175         estimate D2E/DX2                !
 ! D82   D(15,16,22,26)         -0.9821         estimate D2E/DX2                !
 ! D83   D(17,16,22,23)         -1.1259         estimate D2E/DX2                !
 ! D84   D(17,16,22,26)        179.0744         estimate D2E/DX2                !
 ! D85   D(16,17,18,19)       -179.5808         estimate D2E/DX2                !
 ! D86   D(21,17,18,19)          0.3937         estimate D2E/DX2                !
 ! D87   D(16,17,21,20)        179.5363         estimate D2E/DX2                !
 ! D88   D(18,17,21,20)         -0.439          estimate D2E/DX2                !
 ! D89   D(17,18,19,20)         -0.126          estimate D2E/DX2                !
 ! D90   D(17,18,19,40)        179.7982         estimate D2E/DX2                !
 ! D91   D(18,19,20,21)         -0.1928         estimate D2E/DX2                !
 ! D92   D(18,19,20,41)        179.8613         estimate D2E/DX2                !
 ! D93   D(40,19,20,21)        179.8877         estimate D2E/DX2                !
 ! D94   D(40,19,20,41)         -0.0582         estimate D2E/DX2                !
 ! D95   D(19,20,21,17)          0.3351         estimate D2E/DX2                !
 ! D96   D(41,20,21,17)       -179.7111         estimate D2E/DX2                !
 ! D97   D(16,22,23,24)        179.7801         estimate D2E/DX2                !
 ! D98   D(26,22,23,24)         -0.4051         estimate D2E/DX2                !
 ! D99   D(16,22,26,13)          1.3493         estimate D2E/DX2                !
 ! D100  D(16,22,26,25)       -178.4926         estimate D2E/DX2                !
 ! D101  D(23,22,26,13)       -178.4822         estimate D2E/DX2                !
 ! D102  D(23,22,26,25)          1.6758         estimate D2E/DX2                !
 ! D103  D(22,23,24,25)         -0.7115         estimate D2E/DX2                !
 ! D104  D(23,24,25,26)          1.6727         estimate D2E/DX2                !
 ! D105  D(24,25,26,13)        178.0729         estimate D2E/DX2                !
 ! D106  D(24,25,26,22)         -2.1045         estimate D2E/DX2                !
 ! D107  D(12,27,28,29)        173.4198         estimate D2E/DX2                !
 ! D108  D(12,27,28,42)         -4.193          estimate D2E/DX2                !
 ! D109  D(31,27,28,29)         -9.3521         estimate D2E/DX2                !
 ! D110  D(31,27,28,42)        173.035          estimate D2E/DX2                !
 ! D111  D(12,27,31,9)          -0.171          estimate D2E/DX2                !
 ! D112  D(12,27,31,30)        174.7208         estimate D2E/DX2                !
 ! D113  D(28,27,31,9)        -177.482          estimate D2E/DX2                !
 ! D114  D(28,27,31,30)         -2.5903         estimate D2E/DX2                !
 ! D115  D(27,28,29,30)         14.163          estimate D2E/DX2                !
 ! D116  D(42,28,29,30)       -167.7891         estimate D2E/DX2                !
 ! D117  D(28,29,30,31)        -16.5632         estimate D2E/DX2                !
 ! D118  D(28,29,30,43)        162.9295         estimate D2E/DX2                !
 ! D119  D(29,30,31,9)        -171.625          estimate D2E/DX2                !
 ! D120  D(29,30,31,27)         13.8398         estimate D2E/DX2                !
 ! D121  D(43,30,31,9)           9.0211         estimate D2E/DX2                !
 ! D122  D(43,30,31,27)       -165.5141         estimate D2E/DX2                !
 --------------------------------------------------------------------------------
 Trust Radius=3.00D-01 FncErr=1.00D-07 GrdErr=1.00D-06
 Number of steps in this run=    258 maximum allowed number of steps=    258.
 GradGradGradGradGradGradGradGradGradGradGradGradGradGradGradGradGradGrad

                          Input orientation:                          
 ---------------------------------------------------------------------
 Center     Atomic      Atomic             Coordinates (Angstroms)
 Number     Number       Type             X           Y           Z
 ---------------------------------------------------------------------
      1          6           0       -1.446910    0.962000   -0.010930
      2          6           0       -2.232380   -0.318260   -0.072620
      3          6           0       -1.412100   -1.376860   -0.046780
      4          6           0       -0.063270   -0.939580   -0.015630
      5          6           0        1.146720   -1.536160    0.002360
      6         16           0        2.364940   -0.348260    0.043720
      7          6           0        1.223130    0.986020    0.022210
      8          6           0       -0.046550    0.469640    0.000460
      9          6           0        1.735000    2.343370    0.016960
     10          6           0        3.119210    2.579100   -0.098940
     11          6           0        3.688120    3.848150   -0.118040
     12          6           0        2.965980    5.055630   -0.018510
     13          6           0        3.590590    6.337410   -0.012780
     14          7           0        2.796620    7.444520   -0.034990
     15          6           0        3.292170    8.692750   -0.018920
     16          6           0        4.643030    8.997800   -0.009900
     17          6           0        5.109760   10.355770   -0.003240
     18          7           0        4.313590   11.406140    0.002190
     19          6           0        5.081200   12.550970   -0.001820
     20          6           0        6.440280   12.356750   -0.007460
     21         16           0        6.788630   10.713470   -0.002550
     22          6           0        5.519900    7.882030   -0.009010
     23          7           0        6.865030    7.877070   -0.022960
     24         16           0        7.400680    6.332490   -0.008750
     25          7           0        5.952590    5.581620    0.036010
     26          6           0        4.985690    6.516810    0.004380
     27          6           0        1.578880    4.856180    0.057660
     28          6           0        0.634470    5.860290    0.182610
     29         16           0       -0.955730    5.287340    0.068280
     30          6           0       -0.356520    3.710260    0.274230
     31          6           0        0.984440    3.546800    0.076500
     32          1           0       -1.712740    1.411520    0.951040
     33          1           0       -1.658400    1.606600   -0.871050
     34          1           0       -3.312740   -0.308000   -0.062600
     35          1           0       -1.714330   -2.410290   -0.024050
     36          1           0        1.414900   -2.581460   -0.003480
     37          1           0        3.846020    1.770170   -0.180510
     38          1           0        4.767660    3.821300   -0.221310
     39          1           0        2.516250    9.460400   -0.015630
     40          1           0        4.594420   13.513840   -0.001630
     41          1           0        7.255400   13.054740   -0.013330
     42          1           0        0.725220    6.925080    0.303620
     43          1           0       -1.124400    3.047720    0.544380
 ---------------------------------------------------------------------
                    Distance matrix (angstroms):
                    1          2          3          4          5
     1  C    0.000000
     2  C    1.503275   0.000000
     3  C    2.339394   1.339463   0.000000
     4  C    2.351699   2.257061   1.418283   0.000000
     5  C    3.601097   3.592662   2.564245   1.349188   0.000000
     6  S    4.031125   4.598890   3.915640   2.499877   1.702021
     7  C    2.670354   3.694684   3.540113   2.316073   2.523415
     8  C    1.484438   2.324646   2.297068   1.409411   2.333909
     9  C    3.468935   4.778326   4.873234   3.743340   3.923906
    10  C    4.844813   6.085631   6.015406   4.745127   4.564684
    11  C    5.891508   7.239707   7.301921   6.083237   5.955166
    12  C    6.019258   7.476936   7.781087   6.717061   6.838263
    13  C    7.366915   8.843557   9.194456   8.142806   8.244139
    14  N    7.747980   9.249487   9.773956   8.858469   9.131056
    15  C    9.067714  10.569855  11.114314  10.200038  10.451507
    16  C   10.082730  11.578608  12.012474  10.995491  11.099038
    17  C   11.455693  12.955568  13.423530  12.423579  12.534900
    18  N   11.927430  13.428212  14.006820  13.098627  13.324121
    19  C   13.301148  14.802383  15.367154  14.438168  14.626257
    20  C   13.858142  15.358228  15.820034  14.801643  14.867240
    21  S   12.763830  14.250705  14.609244  13.518220  13.486460
    22  C    9.819535  11.284797  11.566378  10.439954  10.383985
    23  N   10.812339  12.244540  12.415582  11.213149  11.014019
    24  S   10.349977  11.706084  11.708997  10.420825  10.051258
    25  N    8.723285  10.090298  10.132421   8.872389   8.588382
    26  C    8.499088   9.941059  10.160923   9.005007   8.921212
    27  C    4.932013   6.427869   6.914308   6.024356   6.407170
    28  C    5.325678   6.816044   7.524454   6.838448   7.416358
    29  S    4.353860   5.750864   6.680799   6.291109   7.140364
    30  C    2.970387   4.457368   5.205390   4.668086   5.464299
    31  C    3.549690   5.030791   5.477320   4.608014   5.086090
    32  H    1.094587   2.076065   2.976759   3.030326   4.214893
    33  H    1.095465   2.161488   3.105015   3.123974   4.302149
    34  H    2.257630   1.080455   2.180629   3.310612   4.625946
    35  H    3.382902   2.155765   1.076957   2.211121   2.991723
    36  H    4.554791   4.292960   3.073250   2.209277   1.079169
    37  H    5.356958   6.428073   6.129397   4.759462   4.272175
    38  H    6.844029   8.133795   8.077175   6.785733   6.470210
    39  H    9.377071  10.870829  11.527320  10.715107  11.081528
    40  H   13.930055  15.425214  16.056565  15.185375  15.439856
    41  H   14.898475  16.396909  16.834422  15.792528  15.818046
    42  H    6.354165   7.832939   8.579809   7.910532   8.477087
    43  H    2.182340   3.596961   4.473159   4.163913   5.144291
                    6          7          8          9         10
     6  S    0.000000
     7  C    1.756273   0.000000
     8  C    2.546785   1.370842   0.000000
     9  C    2.764491   1.450668   2.585548   0.000000
    10  C    3.026336   2.479456   3.805488   1.408914   0.000000
    11  C    4.403048   3.779899   5.037473   2.469264   1.390867
    12  C    5.437568   4.427291   5.486985   2.978745   2.482569
    13  C    6.797323   5.851792   6.903600   4.404141   3.788736
    14  N    7.805124   6.647659   7.532186   5.210707   4.876522
    15  C    9.088649   7.979743   8.875075   6.537637   6.116620
    16  C    9.619844   8.711221   9.732512   7.262148   6.597702
    17  C   11.050452  10.143902  11.150027   8.694134   8.027954
    18  N   11.914902  10.868774  11.773608   9.422481   8.908053
    19  C   13.182195  12.191528  13.124495  10.742090  10.163515
    20  C   13.342724  12.510517  13.541876  11.063816  10.326680
    21  S   11.913566  11.207082  12.314859   9.777430   8.924232
    22  C    8.814433   8.125156   9.269789   6.708420   5.821724
    23  N    9.376103   8.906158  10.131165   7.545902   6.488869
    24  S    8.366233   8.169934   9.478097   6.929190   5.694476
    25  N    6.930712   6.594507   7.881833   5.317395   4.130542
    26  C    7.348406   6.689306   7.867129   5.290061   4.358897
    27  C    5.263486   3.886638   4.678357   2.517984   2.753586
    28  C    6.446698   4.912307   5.436550   3.688812   4.125459
    29  S    6.541211   4.821919   4.903207   3.988687   4.895678
    30  C    4.891939   3.159160   3.266902   2.511779   3.674164
    31  C    4.132596   2.572453   3.246173   1.419552   2.350418
    32  H    4.532938   3.108554   2.137038   3.691580   5.080693
    33  H    4.565692   3.079975   2.156448   3.584209   4.936342
    34  H    5.678818   4.717605   3.358079   5.702260   7.050294
    35  H    4.571324   4.490627   3.328076   5.873401   6.947138
    36  H    2.427341   3.572723   3.383055   4.935264   5.435546
    37  H    2.594537   2.745094   4.108069   2.196351   1.090538
    38  H    4.819599   4.545526   5.870215   3.382023   2.067710
    39  H    9.810007   8.572555   9.348902   7.159855   6.908168
    40  H   14.040315  12.973528  13.845207  11.530656  11.034231
    41  H   14.267455  13.492351  14.550031  12.050277  11.262967
    42  H    7.460409   5.966535   6.508475   4.700414   4.978030
    43  H    4.894776   3.167675   2.846771   2.991730   4.317602
                   11         12         13         14         15
    11  C    0.000000
    12  C    1.410461   0.000000
    13  C    2.493393   1.425879   0.000000
    14  N    3.706150   2.394943   1.362562   0.000000
    15  C    4.861764   3.651718   2.374177   1.343096   0.000000
    16  C    5.238553   4.284072   2.860999   2.412994   1.384904
    17  C    6.662084   5.717299   4.295950   3.718468   2.463639
    18  N    7.584780   6.491953   5.120056   4.242289   2.899350
    19  C    8.814378   7.788103   6.389864   5.594304   4.252856
    20  C    8.943315   8.085619   6.659821   6.116128   4.830696
    21  S    7.533865   6.828181   5.420098   5.159770   4.038417
    22  C    4.431647   3.809348   2.471458   2.758323   2.370685
    23  N    5.131666   4.812809   3.618372   4.091357   3.664789
    24  S    4.468444   4.614871   3.810095   4.736525   4.738226
    25  N    2.855954   3.033064   2.480452   3.665458   4.093896
    26  C    2.969919   2.492950   1.406692   2.377861   2.757402
    27  C    2.344331   1.403435   2.499196   2.861989   4.202439
    28  C    3.669315   2.474645   3.000744   2.689243   3.889320
    29  S    4.865319   3.929508   4.666717   4.329460   5.445096
    30  C    4.065956   3.596488   4.750155   4.897204   6.182563
    31  C    2.727369   2.492408   3.819358   4.299843   5.640525
    32  H    6.020746   6.009158   7.301962   7.596293   8.888546
    33  H    5.846097   5.831597   7.118222   7.391043   8.686069
    34  H    8.141787   8.257893   9.582271   9.870492  11.164240
    35  H    8.268215   8.811657  10.230570  10.838176  12.179596
    36  H    6.820597   7.793024   9.180412  10.120791  11.429444
    37  H    2.084907   3.405138   4.577451   5.772405   6.946580
    38  H    1.084801   2.193342   2.785640   4.128854   5.094022
    39  H    5.734206   4.427670   3.302617   2.035376   1.091489
    40  H    9.708784   8.613560   7.246306   6.330074   4.993903
    41  H    9.874095   9.076613   7.652016   7.166293   5.893571
    42  H    4.292327   2.935918   2.942076   2.162215   3.133356
    43  H    4.923397   4.591270   5.776125   5.919621   7.189559
                   16         17         18         19         20
    16  C    0.000000
    17  C    1.435954   0.000000
    18  N    2.430798   1.318026   0.000000
    19  C    3.580094   2.195386   1.378360   0.000000
    20  C    3.809548   2.402961   2.329498   1.372899   0.000000
    21  S    2.747213   1.716553   2.570143   2.508331   1.679804
    22  C    1.419100   2.507516   3.724871   4.689511   4.568394
    23  N    2.488672   3.037320   4.354861   5.002783   4.499798
    24  S    3.835168   4.629809   5.939038   6.636982   6.100334
    25  N    3.658872   4.848135   6.050826   7.023716   6.792799
    26  C    2.504582   3.840972   4.935309   6.034919   6.018378
    27  C    5.152339   6.535772   7.098147   8.454560   8.938456
    28  C    5.094073   6.346030   6.657697   8.035709   8.714789
    29  S    6.717123   7.904699   8.075259   9.445092  10.231484
    30  C    7.282466   8.609298   9.006137  10.382830  11.001710
    31  C    6.565527   7.961576   8.535689   9.892657  10.362840
    32  H    9.943383  11.289675  11.709372  13.082542  13.681685
    33  H    9.750869  11.095452  11.509048  12.882430  13.487036
    34  H   12.243160  13.588893  13.978061  15.356270  15.985003
    35  H   13.059891  14.475528  15.074158  16.432256  16.869007
    36  H   12.020821  13.454513  14.284796  15.570234  15.760856
    37  H    7.273443   8.679919   9.649037  10.852799  10.901184
    38  H    5.182314   6.547052   7.601706   8.738056   8.700419
    39  H    2.176517   2.743745   2.648897   4.016314   4.877184
    40  H    4.516309   3.199841   2.126330   1.078922   2.178552
    41  H    4.825272   3.447943   3.372294   2.231829   1.073147
    42  H    4.443388   5.575660   5.748666   7.121692   7.890610
    43  H    8.305054   9.621447   9.986435  11.363079  12.007787
                   21         22         23         24         25
    21  S    0.000000
    22  C    3.102704   0.000000
    23  N    2.837502   1.345211   0.000000
    24  S    4.423531   2.436885   1.634885   0.000000
    25  N    5.199648   2.341182   2.470853   1.631801   0.000000
    26  C    4.567559   1.466078   2.320124   2.422049   1.345539
    27  C    7.839194   4.969090   6.088978   6.006435   4.433517
    28  C    7.839727   5.290707   6.552064   6.785366   5.327434
    29  S    9.456374   6.976545   8.238890   8.421868   6.914660
    30  C   10.008732   7.212226   8.342746   8.193309   6.585105
    31  C    9.222583   6.274705   7.303593   6.995389   5.368859
    32  H   12.637599   9.751937  10.785646  10.401518   8.774070
    33  H   12.451574   9.573512  10.615409  10.254001   8.634275
    34  H   14.950387  12.045538  13.060779  12.604617  10.979239
    35  H   15.637579  12.580388  13.395342  12.630117  11.075012
    36  H   14.339879  11.239915  11.793437  10.737229   9.339597
    37  H    9.416647   6.339252   6.814211   5.786179   4.360237
    38  H    7.185693   4.135271   4.570293   3.644729   2.137522
    39  H    4.452369   3.393112   4.628053   5.800131   5.182281
    40  H    3.557616   5.707351   6.076948   7.710184   8.047742
    41  H    2.387370   5.456089   5.192374   6.723821   7.585992
    42  H    7.156157   4.899229   6.221753   6.708987   5.403878
    43  H   11.030816   8.235503   9.352833   9.152740   7.534114
                   26         27         28         29         30
    26  C    0.000000
    27  C    3.790367   0.000000
    28  C    4.404078   1.384110   0.000000
    29  S    6.067631   2.571043   1.694131   0.000000
    30  C    6.040592   2.259604   2.369195   1.699603   0.000000
    31  C    4.983589   1.438120   2.342216   2.606493   1.365280
    32  H    8.475206   4.847533   5.088363   4.046518   2.753472
    33  H    8.307856   4.679984   4.945840   3.863151   2.726159
    34  H   10.744601   7.114152   7.327237   6.072928   4.999910
    35  H   11.161729   7.978314   8.600120   7.735471   6.276444
    36  H    9.773900   7.439699   8.479790   8.218458   6.542231
    37  H    4.885041   3.836679   5.212964   5.957280   4.651030
    38  H    2.713715   3.364093   4.626434   5.915262   5.149283
    39  H    3.842298   4.699242   4.067086   5.429191   6.434356
    40  H    7.007964   9.167992   8.619279   9.923928  10.986268
    41  H    6.920724   9.972177   9.779326  11.303177  12.055842
    42  H    4.290435   2.251573   1.075480   2.358637   3.392063
    43  H    7.046942   3.288639   3.336922   2.295870   1.049562
                   31         32         33         34         35
    31  C    0.000000
    32  H    3.549510   0.000000
    33  H    3.412745   1.833309   0.000000
    34  H    5.774477   2.558166   2.656337   0.000000
    35  H    6.540672   3.944241   4.105599   2.641216   0.000000
    36  H    6.143880   5.161117   5.266659   5.246208   3.133976
    37  H    3.378033   5.684087   5.549977   7.455236   6.958320
    38  H    3.804838   7.012633   6.827980   9.075746   8.993766
    39  H    6.109468   9.143483   8.935414  11.375455  12.602030
    40  H   10.600941  13.680424  13.477241  15.923886  17.128302
    41  H   11.390080  14.728276  14.534491  17.036749  17.878012
    42  H    3.395814   6.063179   5.945395   8.291965   9.654424
    43  H    2.217025   1.785684   2.089360   4.051927   5.519149
                   36         37         38         39         40
    36  H    0.000000
    37  H    4.987822   0.000000
    38  H    7.230753   2.249049   0.000000
    39  H   12.092126   7.806094   6.075409   0.000000
    40  H   16.406341  11.768852   9.696577   4.555147   0.000000
    41  H   16.691384  11.789544   9.564963   5.948010   2.700319
    42  H    9.536471   6.045401   5.123507   3.120506   7.646937
    43  H    6.199666   5.182921   5.991751   7.395296  11.939125
                   41         42         43
    41  H    0.000000
    42  H    8.961944   0.000000
    43  H   13.064170   4.302671   0.000000
 Stoichiometry    C23H12N4S4
 Framework group  C1[X(C23H12N4S4)]
 Deg. of freedom   123
 Full point group                 C1      NOp   1
 Largest Abelian subgroup         C1      NOp   1
 Largest concise Abelian subgroup C1      NOp   1
                         Standard orientation:                         
 ---------------------------------------------------------------------
 Center     Atomic      Atomic             Coordinates (Angstroms)
 Number     Number       Type             X           Y           Z
 ---------------------------------------------------------------------
      1          6           0       -5.853458    1.558210   -0.057216
      2          6           0       -7.355323    1.566779   -0.121742
      3          6           0       -7.836658    0.317548   -0.078157
      4          6           0       -6.764493   -0.609699   -0.031262
      5          6           0       -6.648794   -1.953374    0.006954
      6         16           0       -5.001962   -2.380283    0.057641
      7          6           0       -4.451145   -0.713238    0.012286
      8          6           0       -5.550049    0.105498   -0.023639
      9          6           0       -3.024793   -0.448830    0.005663
     10          6           0       -2.106512   -1.512838   -0.092748
     11          6           0       -0.726169   -1.343132   -0.111895
     12          6           0       -0.066878   -0.098954   -0.029702
     13          6           0        1.353139    0.030055   -0.023338
     14          7           0        1.889592    1.281934   -0.063234
     15          6           0        3.214090    1.504153   -0.048090
     16          6           0        4.174202    0.506411   -0.022479
     17          6           0        5.577702    0.809937   -0.017815
     18          7           0        6.064417    2.034747   -0.029754
     19          6           0        7.441274    1.970396   -0.030329
     20          6           0        7.978459    0.707034   -0.016184
     21         16           0        6.752634   -0.441314    0.003628
     22          6           0        3.673280   -0.821192   -0.002714
     23          7           0        4.365203   -1.974803    0.001764
     24         16           0        3.320748   -3.232181    0.032827
     25          7           0        1.928748   -2.381161    0.062411
     26          6           0        2.228617   -1.070439    0.011792
     27          6           0       -0.955540    0.985710    0.028721
     28          6           0       -0.585341    2.315188    0.134547
     29         16           0       -1.898361    3.377494    0.002017
     30          6           0       -2.938075    2.051774    0.225868
     31          6           0       -2.383603    0.816972    0.047508
     32          1           0       -5.608125    2.032595    0.898237
     33          1           0       -5.409802    2.059917   -0.924108
     34          1           0       -7.905678    2.496547   -0.126561
     35          1           0       -8.877381    0.041668   -0.053187
     36          1           0       -7.404419   -2.723840    0.011231
     37          1           0       -2.422393   -2.554497   -0.159379
     38          1           0       -0.190266   -2.282173   -0.200225
     39          1           0        3.469375    2.565300   -0.060147
     40          1           0        8.013245    2.885146   -0.042736
     41          1           0        8.997562    0.370770   -0.015212
     42          1           0        0.372510    2.790371    0.250215
     43          1           0       -3.902872    2.369903    0.489574
 ---------------------------------------------------------------------
 Rotational constants (GHZ):      0.3193763      0.0492096      0.0426673
 Standard basis: 6-31++G(d,p) (6D, 7F)
 There are   677 symmetry adapted basis functions of A   symmetry.
 Integral buffers will be    131072 words long.
 Raffenetti 2 integral format.
 Two-electron integral symmetry is turned on.
   677 basis functions,  1184 primitive gaussians,   677 cartesian basis functions
   121 alpha electrons      121 beta electrons
       nuclear repulsion energy      3347.1010318404 Hartrees.
 NAtoms=   43 NActive=   43 NUniq=   43 SFac= 1.00D+00 NAtFMM=   60 NAOKFM=F Big=F
 One-electron integrals computed using PRISM.
 NBasis=   677 RedAO= T  NBF=   677
 NBsUse=   663 1.00D-06 NBFU=   663
 Harris functional with IExCor=  402 diagonalized for initial guess.
 ExpMin= 3.60D-02 ExpMax= 2.19D+04 ExpMxC= 3.30D+03 IAcc=3 IRadAn=         5 AccDes= 0.00D+00
 HarFok:  IExCor=  402 AccDes= 0.00D+00 IRadAn=         5 IDoV= 1
 ScaDFX=  1.000000  1.000000  1.000000  1.000000
 FoFCou: FMM=F IPFlag=           0 FMFlag=      100000 FMFlg1=           0
         NFxFlg=           0 DoJE=T BraDBF=F KetDBF=T FulRan=T
         Omega=  0.000000  0.000000  1.000000  0.000000  0.000000 ICntrl=     500 IOpCl=  0
         NMat0=    1 NMatS0=    1 NMatT0=    0 NMatD0=    1 NMtDS0=    0 NMtDT0=    0
         I1Cent=           4 NGrid=           0.
 Petite list used in FoFCou.
 Initial guess orbital symmetries:
       Occupied  (A) (A) (A) (A) (A) (A) (A) (A) (A) (A) (A) (A)
                 (A) (A) (A) (A) (A) (A) (A) (A) (A) (A) (A) (A)
                 (A) (A) (A) (A) (A) (A) (A) (A) (A) (A) (A) (A)
                 (A) (A) (A) (A) (A) (A) (A) (A) (A) (A) (A) (A)
                 (A) (A) (A) (A) (A) (A) (A) (A) (A) (A) (A) (A)
                 (A) (A) (A) (A) (A) (A) (A) (A) (A) (A) (A) (A)
                 (A) (A) (A) (A) (A) (A) (A) (A) (A) (A) (A) (A)
                 (A) (A) (A) (A) (A) (A) (A) (A) (A) (A) (A) (A)
                 (A) (A) (A) (A) (A) (A) (A) (A) (A) (A) (A) (A)
                 (A) (A) (A) (A) (A) (A) (A) (A) (A) (A) (A) (A)
                 (A)
       Virtual   (A) (A) (A) (A) (A) (A) (A) (A) (A) (A) (A) (A)
                 (A) (A) (A) (A) (A) (A) (A) (A) (A) (A) (A) (A)
                 (A) (A) (A) (A) (A) (A) (A) (A) (A) (A) (A) (A)
                 (A) (A) (A) (A) (A) (A) (A) (A) (A) (A) (A) (A)
                 (A) (A) (A) (A) (A) (A) (A) (A) (A) (A) (A) (A)
                 (A) (A) (A) (A) (A) (A) (A) (A) (A) (A) (A) (A)
                 (A) (A) (A) (A) (A) (A) (A) (A) (A) (A) (A) (A)
                 (A) (A) (A) (A) (A) (A) (A) (A) (A) (A) (A) (A)
                 (A) (A) (A) (A) (A) (A) (A) (A) (A) (A) (A) (A)
                 (A) (A) (A) (A) (A) (A) (A) (A) (A) (A) (A) (A)
                 (A) (A) (A) (A) (A) (A) (A) (A) (A) (A) (A) (A)
                 (A) (A) (A) (A) (A) (A) (A) (A) (A) (A) (A) (A)
                 (A) (A) (A) (A) (A) (A) (A) (A) (A) (A) (A) (A)
                 (A) (A) (A) (A) (A) (A) (A) (A) (A) (A) (A) (A)
                 (A) (A) (A) (A) (A) (A) (A) (A) (A) (A) (A) (A)
                 (A) (A) (A) (A) (A) (A) (A) (A) (A) (A) (A) (A)
                 (A) (A) (A) (A) (A) (A) (A) (A) (A) (A) (A) (A)
                 (A) (A) (A) (A) (A) (A) (A) (A) (A) (A) (A) (A)
                 (A) (A) (A) (A) (A) (A) (A) (A) (A) (A) (A) (A)
                 (A) (A) (A) (A) (A) (A) (A) (A) (A) (A) (A) (A)
                 (A) (A) (A) (A) (A) (A) (A) (A) (A) (A) (A) (A)
                 (A) (A) (A) (A) (A) (A) (A) (A) (A) (A) (A) (A)
                 (A) (A) (A) (A) (A) (A) (A) (A) (A) (A) (A) (A)
                 (A) (A) (A) (A) (A) (A) (A) (A) (A) (A) (A) (A)
                 (A) (A) (A) (A) (A) (A) (A) (A) (A) (A) (A) (A)
                 (A) (A) (A) (A) (A) (A) (A) (A) (A) (A) (A) (A)
                 (A) (A) (A) (A) (A) (A) (A) (A) (A) (A) (A) (A)
                 (A) (A) (A) (A) (A) (A) (A) (A) (A) (A) (A) (A)
                 (A) (A) (A) (A) (A) (A) (A) (A) (A) (A) (A) (A)
                 (A) (A) (A) (A) (A) (A) (A) (A) (A) (A) (A) (A)
                 (A) (A) (A) (A) (A) (A) (A) (A) (A) (A) (A) (A)
                 (A) (A) (A) (A) (A) (A) (A) (A) (A) (A) (A) (A)
                 (A) (A) (A) (A) (A) (A) (A) (A) (A) (A) (A) (A)
                 (A) (A) (A) (A) (A) (A) (A) (A) (A) (A) (A) (A)
                 (A) (A) (A) (A) (A) (A) (A) (A) (A) (A) (A) (A)
                 (A) (A) (A) (A) (A) (A) (A) (A) (A) (A) (A) (A)
                 (A) (A) (A) (A) (A) (A) (A) (A) (A) (A) (A) (A)
                 (A) (A) (A) (A) (A) (A) (A) (A) (A) (A) (A) (A)
                 (A) (A) (A) (A) (A) (A) (A) (A) (A) (A) (A) (A)
                 (A) (A) (A) (A) (A) (A) (A) (A) (A) (A) (A) (A)
                 (A) (A) (A) (A) (A) (A) (A) (A) (A) (A) (A) (A)
                 (A) (A) (A) (A) (A) (A) (A) (A) (A) (A) (A) (A)
                 (A) (A) (A) (A) (A) (A) (A) (A) (A) (A) (A) (A)
                 (A) (A) (A) (A) (A) (A) (A) (A) (A) (A) (A) (A)
                 (A) (A) (A) (A) (A) (A) (A) (A) (A) (A) (A) (A)
                 (A) (A)
 The electronic state of the initial guess is 1-A.
 Requested convergence on RMS density matrix=1.00D-08 within 128 cycles.
 Requested convergence on MAX density matrix=1.00D-06.
 Requested convergence on             energy=1.00D-06.
 No special actions if energy rises.
 EnCoef did     4 forward-backward iterations
 EnCoef did   100 forward-backward iterations
 EnCoef did     6 forward-backward iterations
 Restarting incremental Fock formation.
 SCF Done:  E(RB3LYP) =  -2695.37894062     A.U. after   25 cycles
             Convg  =    0.2087D-08             -V/T =  2.0054

 **********************************************************************

            Population analysis using the SCF density.

 **********************************************************************

 Orbital symmetries:
       Occupied  (A) (A) (A) (A) (A) (A) (A) (A) (A) (A) (A) (A)
                 (A) (A) (A) (A) (A) (A) (A) (A) (A) (A) (A) (A)
                 (A) (A) (A) (A) (A) (A) (A) (A) (A) (A) (A) (A)
                 (A) (A) (A) (A) (A) (A) (A) (A) (A) (A) (A) (A)
                 (A) (A) (A) (A) (A) (A) (A) (A) (A) (A) (A) (A)
                 (A) (A) (A) (A) (A) (A) (A) (A) (A) (A) (A) (A)
                 (A) (A) (A) (A) (A) (A) (A) (A) (A) (A) (A) (A)
                 (A) (A) (A) (A) (A) (A) (A) (A) (A) (A) (A) (A)
                 (A) (A) (A) (A) (A) (A) (A) (A) (A) (A) (A) (A)
                 (A) (A) (A) (A) (A) (A) (A) (A) (A) (A) (A) (A)
                 (A)
       Virtual   (A) (A) (A) (A) (A) (A) (A) (A) (A) (A) (A) (A)
                 (A) (A) (A) (A) (A) (A) (A) (A) (A) (A) (A) (A)
                 (A) (A) (A) (A) (A) (A) (A) (A) (A) (A) (A) (A)
                 (A) (A) (A) (A) (A) (A) (A) (A) (A) (A) (A) (A)
                 (A) (A) (A) (A) (A) (A) (A) (A) (A) (A) (A) (A)
                 (A) (A) (A) (A) (A) (A) (A) (A) (A) (A) (A) (A)
                 (A) (A) (A) (A) (A) (A) (A) (A) (A) (A) (A) (A)
                 (A) (A) (A) (A) (A) (A) (A) (A) (A) (A) (A) (A)
                 (A) (A) (A) (A) (A) (A) (A) (A) (A) (A) (A) (A)
                 (A) (A) (A) (A) (A) (A) (A) (A) (A) (A) (A) (A)
                 (A) (A) (A) (A) (A) (A) (A) (A) (A) (A) (A) (A)
                 (A) (A) (A) (A) (A) (A) (A) (A) (A) (A) (A) (A)
                 (A) (A) (A) (A) (A) (A) (A) (A) (A) (A) (A) (A)
                 (A) (A) (A) (A) (A) (A) (A) (A) (A) (A) (A) (A)
                 (A) (A) (A) (A) (A) (A) (A) (A) (A) (A) (A) (A)
                 (A) (A) (A) (A) (A) (A) (A) (A) (A) (A) (A) (A)
                 (A) (A) (A) (A) (A) (A) (A) (A) (A) (A) (A) (A)
                 (A) (A) (A) (A) (A) (A) (A) (A) (A) (A) (A) (A)
                 (A) (A) (A) (A) (A) (A) (A) (A) (A) (A) (A) (A)
                 (A) (A) (A) (A) (A) (A) (A) (A) (A) (A) (A) (A)
                 (A) (A) (A) (A) (A) (A) (A) (A) (A) (A) (A) (A)
                 (A) (A) (A) (A) (A) (A) (A) (A) (A) (A) (A) (A)
                 (A) (A) (A) (A) (A) (A) (A) (A) (A) (A) (A) (A)
                 (A) (A) (A) (A) (A) (A) (A) (A) (A) (A) (A) (A)
                 (A) (A) (A) (A) (A) (A) (A) (A) (A) (A) (A) (A)
                 (A) (A) (A) (A) (A) (A) (A) (A) (A) (A) (A) (A)
                 (A) (A) (A) (A) (A) (A) (A) (A) (A) (A) (A) (A)
                 (A) (A) (A) (A) (A) (A) (A) (A) (A) (A) (A) (A)
                 (A) (A) (A) (A) (A) (A) (A) (A) (A) (A) (A) (A)
                 (A) (A) (A) (A) (A) (A) (A) (A) (A) (A) (A) (A)
                 (A) (A) (A) (A) (A) (A) (A) (A) (A) (A) (A) (A)
                 (A) (A) (A) (A) (A) (A) (A) (A) (A) (A) (A) (A)
                 (A) (A) (A) (A) (A) (A) (A) (A) (A) (A) (A) (A)
                 (A) (A) (A) (A) (A) (A) (A) (A) (A) (A) (A) (A)
                 (A) (A) (A) (A) (A) (A) (A) (A) (A) (A) (A) (A)
                 (A) (A) (A) (A) (A) (A) (A) (A) (A) (A) (A) (A)
                 (A) (A) (A) (A) (A) (A) (A) (A) (A) (A) (A) (A)
                 (A) (A) (A) (A) (A) (A) (A) (A) (A) (A) (A) (A)
                 (A) (A) (A) (A) (A) (A) (A) (A) (A) (A) (A) (A)
                 (A) (A) (A) (A) (A) (A) (A) (A) (A) (A) (A) (A)
                 (A) (A) (A) (A) (A) (A) (A) (A) (A) (A) (A) (A)
                 (A) (A) (A) (A) (A) (A) (A) (A) (A) (A) (A) (A)
                 (A) (A) (A) (A) (A) (A) (A) (A) (A) (A) (A) (A)
                 (A) (A) (A) (A) (A) (A) (A) (A) (A) (A) (A) (A)
                 (A) (A) (A) (A) (A) (A) (A) (A) (A) (A) (A) (A)
                 (A) (A)
 The electronic state is 1-A.
 Alpha  occ. eigenvalues --  -88.99571 -88.92218 -88.92077 -88.92004 -14.38762
 Alpha  occ. eigenvalues --  -14.38365 -14.34341 -14.34274 -10.26277 -10.25877
 Alpha  occ. eigenvalues --  -10.25818 -10.25384 -10.23959 -10.23832 -10.23310
 Alpha  occ. eigenvalues --  -10.22530 -10.22520 -10.22473 -10.21923 -10.21286
 Alpha  occ. eigenvalues --  -10.21260 -10.21041 -10.21020 -10.20950 -10.20509
 Alpha  occ. eigenvalues --  -10.20431 -10.20410 -10.20257 -10.20192 -10.20110
 Alpha  occ. eigenvalues --  -10.20010  -8.04831  -7.98266  -7.98097  -7.98075
 Alpha  occ. eigenvalues --   -6.01401  -6.00805  -6.00594  -5.94608  -5.94510
 Alpha  occ. eigenvalues --   -5.94476  -5.94279  -5.94105  -5.94093  -5.94082
 Alpha  occ. eigenvalues --   -5.93858  -5.93778  -1.03602  -0.97403  -0.95389
 Alpha  occ. eigenvalues --   -0.92483  -0.91092  -0.90609  -0.86003  -0.84582
 Alpha  occ. eigenvalues --   -0.82716  -0.81774  -0.81215  -0.78735  -0.76001
 Alpha  occ. eigenvalues --   -0.75238  -0.73494  -0.72465  -0.72039  -0.69936
 Alpha  occ. eigenvalues --   -0.67784  -0.64866  -0.64649  -0.62132  -0.60337
 Alpha  occ. eigenvalues --   -0.59791  -0.59375  -0.58082  -0.56699  -0.55032
 Alpha  occ. eigenvalues --   -0.54643  -0.53447  -0.52739  -0.52314  -0.51256
 Alpha  occ. eigenvalues --   -0.49569  -0.47622  -0.47555  -0.47296  -0.46911
 Alpha  occ. eigenvalues --   -0.45407  -0.44014  -0.43509  -0.43057  -0.42852
 Alpha  occ. eigenvalues --   -0.42579  -0.42323  -0.41803  -0.40533  -0.40263
 Alpha  occ. eigenvalues --   -0.40220  -0.39921  -0.39225  -0.39105  -0.38148
 Alpha  occ. eigenvalues --   -0.37258  -0.37134  -0.36495  -0.36203  -0.35667
 Alpha  occ. eigenvalues --   -0.34508  -0.33500  -0.33086  -0.32100  -0.30409
 Alpha  occ. eigenvalues --   -0.30285  -0.29611  -0.29224  -0.28815  -0.27459
 Alpha  occ. eigenvalues --   -0.26325  -0.25902  -0.25206  -0.23073  -0.22893
 Alpha  occ. eigenvalues --   -0.19019
 Alpha virt. eigenvalues --   -0.12192  -0.07908  -0.04375  -0.03702  -0.02444
 Alpha virt. eigenvalues --   -0.01975  -0.01642  -0.01149  -0.00376  -0.00286
 Alpha virt. eigenvalues --    0.00143   0.00432   0.00629   0.01124   0.01218
 Alpha virt. eigenvalues --    0.01619   0.01642   0.01918   0.02326   0.02524
 Alpha virt. eigenvalues --    0.02780   0.03249   0.03308   0.03777   0.04239
 Alpha virt. eigenvalues --    0.04410   0.04552   0.04922   0.05137   0.05557
 Alpha virt. eigenvalues --    0.05692   0.05873   0.06150   0.06547   0.06793
 Alpha virt. eigenvalues --    0.07143   0.07357   0.07791   0.08042   0.08277
 Alpha virt. eigenvalues --    0.09021   0.09321   0.09609   0.09775   0.09864
 Alpha virt. eigenvalues --    0.10021   0.10108   0.10801   0.10993   0.11239
 Alpha virt. eigenvalues --    0.11267   0.11524   0.11630   0.11826   0.12083
 Alpha virt. eigenvalues --    0.12287   0.12505   0.12895   0.13010   0.13192
 Alpha virt. eigenvalues --    0.13264   0.13320   0.13508   0.13764   0.13909
 Alpha virt. eigenvalues --    0.13970   0.14344   0.14510   0.14936   0.15091
 Alpha virt. eigenvalues --    0.15318   0.15446   0.15713   0.15843   0.16036
 Alpha virt. eigenvalues --    0.16251   0.16826   0.16947   0.17042   0.17349
 Alpha virt. eigenvalues --    0.17449   0.17801   0.17960   0.18135   0.18484
 Alpha virt. eigenvalues --    0.18624   0.18968   0.19172   0.19401   0.19602
 Alpha virt. eigenvalues --    0.19911   0.20157   0.20408   0.20454   0.20809
 Alpha virt. eigenvalues --    0.21192   0.21412   0.21564   0.21955   0.22346
 Alpha virt. eigenvalues --    0.22404   0.22747   0.23091   0.23246   0.23512
 Alpha virt. eigenvalues --    0.23689   0.24028   0.24320   0.24525   0.24810
 Alpha virt. eigenvalues --    0.24955   0.25025   0.25266   0.25509   0.25651
 Alpha virt. eigenvalues --    0.25884   0.26245   0.26251   0.26796   0.26936
 Alpha virt. eigenvalues --    0.26997   0.27189   0.27774   0.27970   0.28436
 Alpha virt. eigenvalues --    0.28547   0.28804   0.28975   0.29157   0.29370
 Alpha virt. eigenvalues --    0.29815   0.29948   0.30091   0.30454   0.30661
 Alpha virt. eigenvalues --    0.31131   0.31286   0.31652   0.32079   0.32188
 Alpha virt. eigenvalues --    0.32399   0.32588   0.32837   0.33478   0.33984
 Alpha virt. eigenvalues --    0.34242   0.34604   0.34998   0.35357   0.35975
 Alpha virt. eigenvalues --    0.36360   0.36821   0.37012   0.37316   0.37744
 Alpha virt. eigenvalues --    0.38260   0.38518   0.38993   0.39215   0.39727
 Alpha virt. eigenvalues --    0.40167   0.40465   0.41032   0.41954   0.42060
 Alpha virt. eigenvalues --    0.42964   0.43524   0.44084   0.44298   0.45081
 Alpha virt. eigenvalues --    0.45785   0.46388   0.46614   0.47797   0.48654
 Alpha virt. eigenvalues --    0.48959   0.49986   0.50525   0.50780   0.51504
 Alpha virt. eigenvalues --    0.51856   0.52298   0.52812   0.53336   0.53852
 Alpha virt. eigenvalues --    0.54560   0.56771   0.57129   0.57408   0.59420
 Alpha virt. eigenvalues --    0.60162   0.60693   0.62178   0.62903   0.63752
 Alpha virt. eigenvalues --    0.64094   0.64490   0.64850   0.65636   0.65944
 Alpha virt. eigenvalues --    0.66101   0.66257   0.66912   0.67377   0.67722
 Alpha virt. eigenvalues --    0.68307   0.68454   0.68975   0.69097   0.69764
 Alpha virt. eigenvalues --    0.69933   0.70471   0.71065   0.71711   0.71847
 Alpha virt. eigenvalues --    0.72151   0.72380   0.72731   0.72856   0.73616
 Alpha virt. eigenvalues --    0.74125   0.75683   0.75996   0.76265   0.76786
 Alpha virt. eigenvalues --    0.77011   0.77505   0.78279   0.78842   0.79373
 Alpha virt. eigenvalues --    0.79886   0.80243   0.80786   0.81183   0.81710
 Alpha virt. eigenvalues --    0.82094   0.82443   0.82924   0.83162   0.83891
 Alpha virt. eigenvalues --    0.84596   0.85206   0.85783   0.86475   0.86814
 Alpha virt. eigenvalues --    0.87819   0.88417   0.88603   0.90001   0.90139
 Alpha virt. eigenvalues --    0.91873   0.92942   0.93197   0.94396   0.95499
 Alpha virt. eigenvalues --    0.95692   0.95875   0.96463   0.97253   0.97745
 Alpha virt. eigenvalues --    0.98549   0.98635   0.99432   0.99943   1.00461
 Alpha virt. eigenvalues --    1.00854   1.01488   1.02216   1.02317   1.02578
 Alpha virt. eigenvalues --    1.02981   1.03706   1.04236   1.04944   1.05396
 Alpha virt. eigenvalues --    1.05810   1.06650   1.07438   1.07777   1.08032
 Alpha virt. eigenvalues --    1.08832   1.09611   1.10655   1.11467   1.12189
 Alpha virt. eigenvalues --    1.12817   1.13431   1.13537   1.14420   1.15119
 Alpha virt. eigenvalues --    1.15534   1.16757   1.17115   1.18035   1.19069
 Alpha virt. eigenvalues --    1.19768   1.20092   1.20387   1.20780   1.20947
 Alpha virt. eigenvalues --    1.21559   1.22205   1.23017   1.23560   1.24548
 Alpha virt. eigenvalues --    1.24702   1.25503   1.25857   1.26598   1.27341
 Alpha virt. eigenvalues --    1.27966   1.28130   1.29331   1.29437   1.30024
 Alpha virt. eigenvalues --    1.30340   1.32035   1.32824   1.33441   1.34205
 Alpha virt. eigenvalues --    1.34243   1.34957   1.35352   1.35946   1.36470
 Alpha virt. eigenvalues --    1.37101   1.37824   1.38374   1.38548   1.38661
 Alpha virt. eigenvalues --    1.39698   1.39966   1.41132   1.42489   1.43166
 Alpha virt. eigenvalues --    1.44373   1.45646   1.45768   1.47654   1.48065
 Alpha virt. eigenvalues --    1.48978   1.51621   1.52348   1.53015   1.54551
 Alpha virt. eigenvalues --    1.56062   1.57552   1.61131   1.61671   1.63107
 Alpha virt. eigenvalues --    1.65024   1.66986   1.68080   1.69006   1.70180
 Alpha virt. eigenvalues --    1.70477   1.71198   1.71967   1.72694   1.73063
 Alpha virt. eigenvalues --    1.75214   1.75711   1.76768   1.77496   1.78743
 Alpha virt. eigenvalues --    1.79900   1.80365   1.81391   1.81903   1.82824
 Alpha virt. eigenvalues --    1.83851   1.84649   1.85557   1.86738   1.87281
 Alpha virt. eigenvalues --    1.87846   1.89131   1.89882   1.91396   1.91876
 Alpha virt. eigenvalues --    1.92945   1.93518   1.94077   1.94985   1.95554
 Alpha virt. eigenvalues --    1.96644   1.96958   1.98261   1.98372   2.00447
 Alpha virt. eigenvalues --    2.01798   2.03242   2.03678   2.04000   2.04680
 Alpha virt. eigenvalues --    2.05104   2.06366   2.07551   2.08071   2.10774
 Alpha virt. eigenvalues --    2.12832   2.13252   2.14594   2.15119   2.15425
 Alpha virt. eigenvalues --    2.17497   2.18175   2.18974   2.20292   2.22220
 Alpha virt. eigenvalues --    2.22465   2.22822   2.24190   2.24223   2.28389
 Alpha virt. eigenvalues --    2.29392   2.29586   2.29819   2.30947   2.31858
 Alpha virt. eigenvalues --    2.32670   2.33202   2.33467   2.34418   2.34944
 Alpha virt. eigenvalues --    2.36053   2.36638   2.36937   2.37371   2.38770
 Alpha virt. eigenvalues --    2.40067   2.41059   2.42685   2.43388   2.44925
 Alpha virt. eigenvalues --    2.45581   2.46170   2.47001   2.47218   2.48073
 Alpha virt. eigenvalues --    2.48723   2.49401   2.50148   2.50913   2.51879
 Alpha virt. eigenvalues --    2.53076   2.54937   2.55521   2.55925   2.56726
 Alpha virt. eigenvalues --    2.57743   2.58863   2.60557   2.60897   2.61686
 Alpha virt. eigenvalues --    2.62787   2.63742   2.63839   2.64779   2.65633
 Alpha virt. eigenvalues --    2.66978   2.67411   2.68821   2.69279   2.71041
 Alpha virt. eigenvalues --    2.71750   2.72613   2.73738   2.74850   2.75261
 Alpha virt. eigenvalues --    2.76437   2.78483   2.79357   2.80989   2.82046
 Alpha virt. eigenvalues --    2.82764   2.83703   2.85334   2.87713   2.89239
 Alpha virt. eigenvalues --    2.92571   2.93200   2.93882   2.96592   2.97653
 Alpha virt. eigenvalues --    2.98927   3.01831   3.06027   3.06394   3.11015
 Alpha virt. eigenvalues --    3.12206   3.12531   3.16137   3.17431   3.23295
 Alpha virt. eigenvalues --    3.25407   3.29343   3.31781   3.34297   3.37885
 Alpha virt. eigenvalues --    3.39432   3.39730   3.42787   3.46474   3.53659
 Alpha virt. eigenvalues --    3.54828   3.60681   3.67811   3.68822   3.72743
 Alpha virt. eigenvalues --    3.74216   3.96394   3.99638   4.00335   4.00717
 Alpha virt. eigenvalues --    4.15795   4.24415   4.26136   4.26954   4.33254
 Alpha virt. eigenvalues --    4.34105   4.34185   4.34470   4.35881   4.36946
 Alpha virt. eigenvalues --    4.37697   4.38457   4.41534   4.44114   4.45408
 Alpha virt. eigenvalues --    4.47832   4.52201   4.56413   4.57430   4.59735
 Alpha virt. eigenvalues --    4.61754   4.65108   4.66283   4.79263   4.79804
 Alpha virt. eigenvalues --    4.84324   4.96551
          Condensed to atoms (all electrons):
              1          2          3          4          5          6
     1  C   17.751570  -8.369487   3.773524   1.665334  -0.514665   0.305390
     2  C   -8.369487  14.656871  -2.823702  -2.960850   0.286073  -0.082830
     3  C    3.773524  -2.823702  11.560235   4.476907  -1.594437   0.471634
     4  C    1.665334  -2.960850   4.476907  23.396686  -9.439799   1.432516
     5  C   -0.514665   0.286073  -1.594437  -9.439799  12.883298  -0.943387
     6  S    0.305390  -0.082830   0.471634   1.432516  -0.943387  16.372617
     7  C   -0.909516   0.608254  -2.294888  -3.228157   1.029895   0.004719
     8  C   -7.641746   4.134126  -5.895980  -1.975160   0.767305  -0.453850
     9  C   -0.965742   0.699344  -0.875467  -2.130056   1.210587  -0.328476
    10  C    0.712272   0.050714  -0.307234  -2.844686   1.166415  -0.416368
    11  C    0.121685   0.060202  -0.032098  -0.281997   0.145349  -0.015303
    12  C   -0.157073  -0.189741   0.162764   1.082919  -0.379732   0.007745
    13  C   -0.068892  -0.016645   0.008969   0.082910  -0.021715   0.020836
    14  N    0.000192   0.000010   0.000024   0.000251  -0.000052  -0.000750
    15  C    0.000981   0.000426  -0.000200  -0.002628   0.000281   0.001409
    16  C   -0.001564  -0.000013   0.000026   0.001471  -0.000438  -0.000612
    17  C   -0.000102  -0.000005   0.000002   0.000067  -0.000021  -0.000134
    18  N   -0.000000   0.000000  -0.000000  -0.000000  -0.000000   0.000000
    19  C   -0.000000  -0.000000   0.000000   0.000000  -0.000000  -0.000001
    20  C    0.000000   0.000000  -0.000000  -0.000000  -0.000000   0.000000
    21  S   -0.000002   0.000000   0.000000   0.000003  -0.000001   0.000001
    22  C    0.000583   0.000141  -0.000027   0.000031  -0.000214  -0.000103
    23  N   -0.000010  -0.000001   0.000001   0.000022  -0.000007   0.000078
    24  S    0.000018  -0.000001  -0.000001  -0.000130   0.000015  -0.000373
    25  N   -0.000054  -0.000085   0.000095   0.001613  -0.000417   0.002687
    26  C   -0.008460  -0.000501   0.001382   0.025083  -0.011175   0.001046
    27  C   -0.226141  -0.287805   0.133791   0.405784   0.031890  -0.038969
    28  C    0.492055   0.063540  -0.043306  -0.364619   0.116398  -0.037872
    29  S   -0.441984  -0.184692   0.003922   0.102329   0.013486   0.001962
    30  C   -0.082824   0.703534  -0.942271  -3.181363   0.906564  -0.122828
    31  C    0.527879  -0.843846   0.548894   0.942595  -0.280224  -0.005731
    32  H    0.288591  -0.274279   0.030174  -0.007457   0.118617  -0.019828
    33  H    0.394395   0.012950   0.014383  -0.003667   0.031549  -0.006715
    34  H   -0.317088   0.600155  -0.109464   0.041886  -0.064719   0.003426
    35  H    0.258812  -0.295402   0.361091   0.161802  -0.110559   0.002330
    36  H   -0.069901   0.052097  -0.254112  -0.239704   0.468522  -0.065808
    37  H    0.032255   0.007705  -0.013694  -0.152517   0.048530  -0.024778
    38  H   -0.006769  -0.001593   0.001543   0.016839  -0.000417   0.027399
    39  H    0.000110   0.000054  -0.000018  -0.000167   0.000019   0.000066
    40  H   -0.000000  -0.000000   0.000000   0.000000  -0.000000  -0.000000
    41  H    0.000000   0.000000  -0.000000  -0.000000  -0.000000  -0.000000
    42  H    0.003113  -0.005801   0.001723   0.004351   0.000602  -0.001347
    43  H    0.164894   0.773471  -0.214268  -0.454637  -0.032799   0.018896
              7          8          9         10         11         12
     1  C   -0.909516  -7.641746  -0.965742   0.712272   0.121685  -0.157073
     2  C    0.608254   4.134126   0.699344   0.050714   0.060202  -0.189741
     3  C   -2.294888  -5.895980  -0.875467  -0.307234  -0.032098   0.162764
     4  C   -3.228157  -1.975160  -2.130056  -2.844686  -0.281997   1.082919
     5  C    1.029895   0.767305   1.210587   1.166415   0.145349  -0.379732
     6  S    0.004719  -0.453850  -0.328476  -0.416368  -0.015303   0.007745
     7  C    9.647759   2.080432   1.881907  -1.855146  -0.724609   0.601469
     8  C    2.080432  16.193507   1.329838  -1.725165  -0.666501   1.093520
     9  C    1.881907   1.329838  11.034060  -2.385629  -2.334099   1.935103
    10  C   -1.855146  -1.725165  -2.385629  10.848297   2.053518  -2.644562
    11  C   -0.724609  -0.666501  -2.334099   2.053518   9.735813  -2.349749
    12  C    0.601469   1.093520   1.935103  -2.644562  -2.349749  11.322563
    13  C    0.195626   0.203987   0.778407  -0.642720  -1.420887   1.562989
    14  N   -0.003584   0.001338   0.004366  -0.027549   0.006172  -0.195536
    15  C   -0.014949  -0.007023  -0.018570   0.067610  -0.118895  -0.914964
    16  C    0.018983   0.007207   0.124477  -0.030173  -0.187141   1.009116
    17  C    0.000940   0.000497   0.014221  -0.009180   0.014116   0.071235
    18  N   -0.000002   0.000000   0.000041   0.000059  -0.001370  -0.002064
    19  C   -0.000001   0.000001   0.000035  -0.000109   0.001413   0.002367
    20  C    0.000001  -0.000000   0.000039   0.000112  -0.001471  -0.004593
    21  S    0.000116   0.000015   0.000538   0.000483  -0.014713   0.000027
    22  C    0.004060  -0.001988  -0.030801   0.048528   0.179403  -0.086131
    23  N    0.000298   0.000037  -0.002590  -0.004790  -0.102380  -0.021238
    24  S   -0.002562  -0.000107   0.000021  -0.012288   0.081417  -0.063874
    25  N    0.011446   0.000358  -0.025536  -0.025845  -0.027936   0.037353
    26  C    0.089310   0.041847   0.296811  -0.152385  -0.790791  -0.422179
    27  C   -0.537737   0.440221  -0.320828   0.028158   1.054380   0.383018
    28  C   -0.442164  -1.105445  -2.777656   1.035327  -0.128678  -0.584877
    29  S    0.136204   0.417548   0.189259  -0.139821  -0.016992  -0.035336
    30  C    1.104827  -1.637609  -1.330857   1.537958   1.091982  -3.860062
    31  C   -1.534839   0.085616  -0.737882   1.555492   1.204394  -1.798879
    32  H    0.021878   0.004829   0.052908   0.022365   0.000937   0.002509
    33  H   -0.023878  -0.139877   0.058523  -0.004322   0.008419   0.004267
    34  H   -0.008107   0.154289  -0.008626  -0.004673  -0.000321  -0.000619
    35  H    0.018956  -0.117784  -0.015153   0.001325  -0.000633   0.000814
    36  H    0.100054   0.215292   0.041107   0.018617   0.001710  -0.006755
    37  H   -0.263400  -0.063451  -0.366622   0.688053   0.210698  -0.089247
    38  H    0.054493   0.007906   0.114608  -0.060100   0.292820  -0.047584
    39  H   -0.000336  -0.000588  -0.001778   0.005721   0.016683  -0.026733
    40  H    0.000000   0.000000   0.000002  -0.000004   0.000019  -0.000003
    41  H   -0.000000  -0.000000   0.000001   0.000003   0.000030  -0.000177
    42  H   -0.006469  -0.000309  -0.027913  -0.019933  -0.066622   0.043342
    43  H    0.109351  -0.402443  -0.111900   0.126917   0.025857  -0.151862
             13         14         15         16         17         18
     1  C   -0.068892   0.000192   0.000981  -0.001564  -0.000102  -0.000000
     2  C   -0.016645   0.000010   0.000426  -0.000013  -0.000005   0.000000
     3  C    0.008969   0.000024  -0.000200   0.000026   0.000002  -0.000000
     4  C    0.082910   0.000251  -0.002628   0.001471   0.000067  -0.000000
     5  C   -0.021715  -0.000052   0.000281  -0.000438  -0.000021  -0.000000
     6  S    0.020836  -0.000750   0.001409  -0.000612  -0.000134   0.000000
     7  C    0.195626  -0.003584  -0.014949   0.018983   0.000940  -0.000002
     8  C    0.203987   0.001338  -0.007023   0.007207   0.000497   0.000000
     9  C    0.778407   0.004366  -0.018570   0.124477   0.014221   0.000041
    10  C   -0.642720  -0.027549   0.067610  -0.030173  -0.009180   0.000059
    11  C   -1.420887   0.006172  -0.118895  -0.187141   0.014116  -0.001370
    12  C    1.562989  -0.195536  -0.914964   1.009116   0.071235  -0.002064
    13  C    9.317015   0.187707  -2.307960   2.237288   0.777221  -0.003310
    14  N    0.187707   7.351390  -0.156786   0.115383   0.039757   0.001202
    15  C   -2.307960  -0.156786  12.999824  -7.370385  -3.049450   0.285686
    16  C    2.237288   0.115383  -7.370385  15.328941   2.965213  -0.361140
    17  C    0.777221   0.039757  -3.049450   2.965213   8.871293   0.166611
    18  N   -0.003310   0.001202   0.285686  -0.361140   0.166611   7.053510
    19  C    0.014441  -0.009914  -0.215788   0.163858  -0.054532  -0.082529
    20  C   -0.037851   0.009170   0.138325  -0.032314  -0.076486   0.051430
    21  S   -0.048127   0.006103   0.215367  -0.437470  -0.343732   0.014804
    22  C   -1.254233  -0.128314   3.069022  -3.421739  -1.779098   0.040686
    23  N   -0.047132  -0.005494   0.100844  -0.169418  -0.125983  -0.000986
    24  S   -0.037855  -0.001771   0.047933  -0.127354  -0.010476   0.001999
    25  N    0.013062   0.016174  -0.052491   0.015651   0.006028  -0.000032
    26  C   -0.874562  -0.081625   2.024451  -2.398958  -0.611425   0.012607
    27  C   -0.722175  -0.013706   0.489015  -0.352158  -0.045602  -0.000496
    28  C   -0.015992   0.189934  -0.383660  -0.057032  -0.015322  -0.000034
    29  S    0.039159   0.026203  -0.010244   0.034339   0.003353   0.000030
    30  C   -1.263543   0.046377   0.072797  -0.059692  -0.010627  -0.000065
    31  C   -0.463851  -0.092821   0.124227  -0.137877  -0.021679   0.000303
    32  H    0.000598   0.000014  -0.000338   0.000070  -0.000006  -0.000000
    33  H    0.003881  -0.000069  -0.000404   0.000055  -0.000002  -0.000000
    34  H   -0.000067   0.000001   0.000009   0.000000   0.000000   0.000000
    35  H    0.000044  -0.000000   0.000000  -0.000000   0.000000   0.000000
    36  H   -0.000258  -0.000001   0.000005  -0.000006  -0.000000  -0.000000
    37  H   -0.024961   0.001783   0.001317  -0.004223   0.000187   0.000005
    38  H   -0.021979  -0.013215   0.009425  -0.004336  -0.003024  -0.000185
    39  H   -0.173925  -0.134060   0.721348  -0.379211  -0.136725  -0.005510
    40  H    0.001507  -0.000123  -0.016678   0.008701   0.007312  -0.101894
    41  H   -0.000989   0.000220   0.004072   0.008404  -0.012630   0.014259
    42  H    0.169263  -0.006385  -0.086761   0.021362   0.000560  -0.000448
    43  H   -0.060063   0.001579   0.008594  -0.002635   0.000119   0.000004
             19         20         21         22         23         24
     1  C   -0.000000   0.000000  -0.000002   0.000583  -0.000010   0.000018
     2  C   -0.000000   0.000000   0.000000   0.000141  -0.000001  -0.000001
     3  C    0.000000  -0.000000   0.000000  -0.000027   0.000001  -0.000001
     4  C    0.000000  -0.000000   0.000003   0.000031   0.000022  -0.000130
     5  C   -0.000000  -0.000000  -0.000001  -0.000214  -0.000007   0.000015
     6  S   -0.000001   0.000000   0.000001  -0.000103   0.000078  -0.000373
     7  C   -0.000001   0.000001   0.000116   0.004060   0.000298  -0.002562
     8  C    0.000001  -0.000000   0.000015  -0.001988   0.000037  -0.000107
     9  C    0.000035   0.000039   0.000538  -0.030801  -0.002590   0.000021
[...]
 00011497,-0.00005254,-0.00008404,0.00157863,0.00087438,0.00701234,0.00
 016487,-0.00014542,0.00094050,0.00015276,-0.00013377,-0.00130225,-0.00
 028919,0.00000138,-0.00036124,0.00031842,0.00012800,-0.00041254,0.0000
 2042,-0.00006889,0.00009182,0.00013319,0.00002935,-0.00005396,-0.00001
 037,0.00003117,-0.00003852,0.00000138,0.00000463,-0.00001266,0.0000078
 2,-0.00002070,-0.00004789,0.00000051,-0.00000174,0.00000010,0.00000121
 ,-0.00000065,-0.00000170,-0.00000073,-0.00000047,0.00000067,-0.0000004
 4,0.00000037,0.00000069,-0.00000082,0.00000028,0.00000158,0.00000974,0
 .00000283,0.00001667,0.00001651,-0.00001100,0.00001873,-0.01179962,0.0
 0522270,0.02771468,-0.00000052,0.00000007,-0.00000055,0.00000008,-0.00
 000235,0.00000108,-0.00000203,0.00000061,-0.00000145,-0.00000054,0.000
 00296,-0.00000270,0.00000198,0.00000611,-0.00000053,0.00000389,-0.0000
 0265,-0.00000073,0.00000501,-0.00000002,0.00000463,-0.00000569,0.00000
 150,-0.00000105,-0.00001564,-0.00000548,0.00000455,0.00002239,0.000008
 90,-0.00000579,-0.00000177,-0.00001842,0.00000360,0.00000724,0.0000282
 6,0.00000097,-0.00004141,-0.00004564,0.00000521,0.00001817,0.00003970,
 -0.00001520,0.00000548,0.00003116,-0.00000068,0.00087894,-0.00031537,0
 .00003646,-0.00086247,-0.00455647,0.00082693,0.01207407,-0.01693159,-0
 .00024950,-0.14875116,0.13987119,0.00122316,-0.00931483,0.02365647,-0.
 00040317,-0.00335395,0.00091910,0.00098465,-0.00032549,-0.00020263,0.0
 0003525,-0.00010955,0.00035074,-0.00003733,0.00014518,-0.00013673,-0.0
 0000337,0.00007215,0.00011450,-0.00000943,0.00004999,-0.00000696,-0.00
 001172,-0.00000345,0.00000403,-0.00000060,0.00000253,-0.00000375,-0.00
 000184,-0.00000211,-0.00000462,0.00000128,0.00000201,0.00000593,0.0000
 0002,0.00000430,0.00000239,-0.00000335,-0.00000079,-0.00000100,-0.0000
 0015,0.00000017,-0.00000082,-0.00000027,0.00000100,0.00000018,0.000000
 38,0.00000064,0.00000101,0.00000011,0.00000014,0.00000078,0.00000142,-
 0.00000090,0.00000113,0.00000041,-0.00000274,-0.00000833,-0.00000491,0
 .00000245,-0.00000601,0.00001318,0.14905155,0.00000299,-0.00000067,0.0
 0000171,-0.00000227,0.00000385,-0.00000303,0.00000500,-0.00000081,0.00
 000327,0.00000153,-0.00000675,0.00000899,-0.00000542,-0.00001700,-0.00
 000015,-0.00001303,0.00000644,0.00000361,-0.00001184,0.00000198,-0.000
 01178,0.00001650,-0.00000514,0.00000412,0.00005284,-0.00000604,-0.0000
 1859,-0.00007027,-0.00002693,0.00001570,-0.00001848,0.00006859,0.00000
 685,0.00000315,-0.00010366,-0.00001659,0.00001742,0.00012761,0.0000090
 8,0.00002207,-0.00016077,-0.00001644,0.00008522,0.00009641,-0.00001251
 ,0.00099557,-0.00046549,0.00000684,-0.00248644,-0.00368730,0.00083132,
 0.01238319,-0.02427182,0.00034899,0.13430560,-0.25205143,0.00264713,-0
 .00219964,0.00397223,0.00024099,-0.00122930,0.00178814,0.00051260,-0.0
 0038306,-0.00022810,0.00004034,-0.00000753,0.00008693,-0.00001822,0.00
 002502,-0.00000517,-0.00000239,0.00003205,-0.00008151,0.00000093,0.000
 04036,-0.00002354,-0.00000149,0.00002920,-0.00002743,-0.00000530,-0.00
 001289,0.00001586,0.00000949,-0.00000348,0.00001432,0.00000364,0.00000
 179,-0.00001834,-0.00000603,-0.00001174,0.00000136,0.00001027,0.000000
 37,0.00000283,0.00000174,0.00000042,0.00000159,-0.00000080,-0.00000245
 ,-0.00000113,-0.00000093,-0.00000155,-0.00000195,-0.00000048,0.,-0.000
 00190,-0.00000452,0.00000109,-0.00000539,0.00000039,0.00000075,0.00000
 525,0.00000575,0.00004478,-0.00000884,0.00000562,-0.14214252,0.2750194
 8,-0.00000061,0.00000011,0.00000157,-0.00000029,-0.00000045,-0.0000013
 2,0.00000079,0.00000043,-0.00000048,-0.00000016,0.00000066,-0.00000024
 ,0.00000119,0.00000077,-0.00000045,-0.00000086,-0.00000020,-0.00000075
 ,0.00000211,-0.00000114,0.00000192,-0.00000019,-0.00000076,-0.00000041
 ,-0.00000632,0.00000335,0.00000175,0.00000257,0.00000478,-0.00000875,-
 0.00000199,-0.00000343,-0.00000061,-0.00000548,-0.00000158,0.00001599,
 0.00000533,0.00000184,0.00001456,-0.00001795,-0.00000468,-0.00012411,-
 0.00000089,-0.00000494,0.00005202,-0.00006194,0.00015244,0.00100586,0.
 00068058,0.00103229,0.00388315,-0.00244371,0.00331255,-0.00280887,0.00
 163086,0.00208719,-0.03420899,0.00153817,-0.00238951,0.00422032,0.0011
 3967,0.00029966,0.00681796,0.00004458,0.00002832,-0.00015450,0.0000039
 4,-0.00006127,-0.00014372,-0.00002203,0.00001322,-0.00002015,-0.000004
 92,-0.00000255,0.00001199,-0.00001288,0.00000034,-0.00006652,-0.000000
 12,0.00000099,0.00000082,-0.00000306,0.00000046,-0.00000514,0.00000441
 ,0.00000017,0.00000014,-0.00000257,0.00000231,-0.00000211,0.00000249,-
 0.00000437,-0.00000182,0.00000017,-0.00000013,0.00000062,0.00000038,0.
 00000004,-0.00000061,-0.00000058,-0.00000018,0.00000040,-0.00000031,0.
 ,0.00000042,-0.00000020,0.00000012,0.00000058,0.00000060,-0.00000015,0
 .00000071,0.00000407,-0.00000069,0.00000782,0.00000808,0.00000909,0.00
 009922,-0.00206818,-0.00430204,0.02459231,-0.00000084,0.00000010,-0.00
 000042,0.00000044,-0.00000142,0.00000076,-0.00000162,0.00000031,-0.000
 00089,-0.00000082,0.00000244,-0.00000318,0.00000224,0.00000618,0.00000
 023,0.00000387,-0.00000235,-0.00000100,0.00000457,-0.00000082,0.000003
 54,-0.00000602,0.00000165,-0.00000106,-0.00001750,0.00000023,0.0000062
 9,0.00002419,0.00000919,-0.00000726,0.00000554,-0.00002473,0.00000023,
 0.00000840,0.00004037,0.00001855,0.00001218,-0.00010693,-0.00000897,0.
 00017436,0.00006477,-0.00008144,-0.00029085,0.00027841,0.00005610,0.00
 137406,-0.00036479,0.00012886,-0.00398354,0.00586526,0.00002424,-0.005
 18795,-0.00202539,0.00139941,-0.00391852,-0.02332733,0.00209776,-0.180
 23500,-0.15066656,0.02729928,0.00892030,0.01010419,-0.00191721,-0.0000
 8475,-0.00014999,0.00000765,-0.00010738,0.00012231,0.00000174,0.000061
 13,-0.00005240,-0.00000028,0.00004422,0.00007389,-0.00000812,-0.000021
 94,-0.00000030,-0.00001401,-0.00001086,0.00000692,0.00000366,0.0000067
 2,-0.00000464,-0.00000516,0.00000049,-0.00000339,-0.00000144,0.0000004
 1,0.00000518,0.00000093,0.00000313,0.00000021,-0.00000392,-0.00000018,
 -0.00000090,-0.00000038,0.00000007,-0.00000052,0.00000006,0.00000070,0
 .00000021,0.00000024,0.00000059,0.00000073,0.00000012,0.00000009,0.000
 00064,0.00000143,-0.00000033,0.00000180,-0.00000008,-0.00000101,-0.000
 00380,-0.00000235,0.00012472,0.00003783,-0.00000107,0.00044715,0.00052
 532,-0.00041537,0.18265124,0.00000035,-0.00000023,0.00000094,-0.000000
 03,0.00000140,-0.00000103,0.00000160,-0.00000043,0.00000088,0.00000019
 ,-0.00000238,0.00000162,-0.00000116,-0.00000437,-0.00000011,-0.0000030
 7,0.00000180,0.00000079,-0.00000381,0.00000009,-0.00000319,0.00000410,
 -0.00000102,0.00000159,0.00001178,0.00000331,-0.00000265,-0.00001704,-
 0.00000717,0.00000219,-0.00000239,0.00001619,-0.00000168,-0.00000566,-
 0.00002841,0.00000578,-0.00000389,0.00010564,-0.00000121,-0.00017863,-
 0.00010194,-0.00001358,0.00020348,-0.00031504,0.00001350,-0.00115028,0
 .00053088,0.00026934,0.00263230,-0.00392563,0.00007030,0.00156447,0.00
 164723,0.00024953,0.00417154,0.00721056,-0.00099198,-0.15283265,-0.228
 03587,0.03090458,-0.01348402,-0.01088752,0.00197417,0.00015226,0.00015
 417,-0.00003787,0.00014578,-0.00027249,0.00000594,-0.00011683,0.000090
 12,0.00000446,-0.00008380,-0.00014503,0.00001576,0.00007762,-0.0000130
 5,-0.00001280,0.00000426,-0.00000331,-0.00000132,-0.00000367,0.0000034
 5,0.00000321,0.00000009,0.00000085,-0.00000046,-0.00000343,-0.00000802
 ,-0.00000032,-0.00000419,0.00000137,0.00000272,0.00000081,0.00000061,0
 .00000022,-0.00000006,0.00000064,-0.00000005,-0.00000077,-0.00000028,-
 0.00000022,-0.00000049,-0.00000053,0.00000002,-0.00000027,-0.00000046,
 -0.00000092,0.00000032,-0.00000159,-0.00000034,0.00000414,0.00000847,0
 .00000550,-0.00001810,0.00000148,0.00001465,-0.00065229,-0.00000532,-0
 .00017456,0.15958523,0.23398238,-0.00000067,0.00000023,0.00000083,-0.0
 0000034,-0.00000048,-0.00000132,0.00000051,0.00000021,0.00000003,-0.00
 000001,0.00000009,-0.00000019,0.00000078,0.00000061,-0.00000108,-0.000
 00112,0.00000008,0.00000053,0.00000064,-0.00000080,0.00000006,0.000000
 59,-0.00000017,0.00000096,0.00000418,-0.00000153,0.00000210,-0.0000095
 7,-0.00000186,-0.00000785,0.00001251,0.00000829,0.00000228,0.00001296,
 0.00001395,0.00012651,-0.00000170,-0.00001017,-0.00003054,-0.00009772,
 -0.00001960,-0.00059259,0.00005294,-0.00000209,0.00035246,0.00020941,0
 .00019525,0.00243779,0.00024974,-0.00029536,0.00050118,0.00112411,0.00
 061816,0.00690699,0.00005271,0.00181155,-0.00049376,0.02744856,0.03069
 187,-0.02704767,-0.00014573,-0.00041584,-0.00257361,-0.00001363,-0.000
 00992,-0.00016165,-0.00000532,0.00001282,0.00000433,0.00000851,0.00000
 018,0.00001945,-0.00000441,-0.00000313,-0.00000912,-0.00000849,-0.0000
 0449,-0.00011213,-0.00000520,-0.00000876,0.00000095,0.00000441,-0.0000
 0050,-0.00000492,-0.00000344,0.00000015,-0.00000226,0.00000034,0.00000
 312,-0.00000269,-0.00000045,0.00000227,-0.00000565,0.00000002,-0.00000
 009,0.00000017,0.00000032,0.00000020,-0.00000062,-0.00000057,-0.000000
 14,0.00000035,-0.00000031,0.,0.00000037,-0.00000019,-0.00000004,0.0000
 0040,-0.00000030,0.00000053,-0.00000090,-0.00000003,0.00000006,0.00000
 216,0.00001456,0.00000880,0.00017755,-0.00032340,-0.00029398,-0.003188
 97,-0.02858030,-0.03229959,0.02368796,-0.00001780,0.00004478,0.0000240
 2,-0.00000618,-0.00000369,-0.00000101,0.00000052,0.00001488,0.00000114
 ,-0.00000242,0.00000267,-0.00000060,0.00001699,0.00005146,0.00000411,-
 0.00002898,0.00001678,0.00004575,-0.00017143,0.00010887,0.00023199,0.0
 0007301,0.00004002,-0.00002310,0.00111733,0.00062566,0.00000190,-0.000
 19637,-0.00003146,-0.00021617,-0.00029208,0.00005266,0.00002773,-0.000
 13162,-0.00147414,-0.00170421,-0.00065913,0.00279527,0.00034760,-0.002
 72915,-0.00314711,0.00010716,-0.00031320,-0.00097460,0.00021841,0.0002
 7389,0.00005886,0.00010147,-0.00002954,-0.00010140,-0.00001188,-0.0000
 1178,0.00005327,-0.00001302,0.00005563,0.00000027,-0.00000424,-0.00000
 084,0.00005699,-0.00000420,0.00002540,0.00000062,-0.00000466,-0.000096
 69,0.00012424,-0.00003162,0.00008520,-0.00001246,0.00000874,0.00011224
 ,0.00005234,-0.00005842,0.00012340,-0.00008659,-0.00002019,-0.00024112
 ,-0.00040323,0.00042459,0.01016259,0.01738747,-0.00161816,-0.04737345,
 -0.04225209,0.00647470,-0.00382260,-0.02014386,-0.00258472,-0.00548025
 ,-0.00083945,0.00257268,-0.00133317,0.00274762,0.00291088,-0.00001606,
 -0.00001194,0.00001512,0.00001348,-0.00001560,-0.00001132,0.00000175,0
 .00000125,0.00000258,0.00000082,0.00000280,0.00000028,0.00001470,-0.00
 000460,-0.00002500,-0.00002743,-0.00001773,0.00003089,0.00005276,0.000
 02765,0.00014787,0.00005382,0.00002391,0.00000015,-0.00000135,0.000010
 31,0.00000016,-0.00000222,0.00000605,0.00000350,0.04931745,0.00002758,
 0.00000407,-0.00001899,-0.00002995,-0.00000430,0.00000828,0.00000854,0
 .00000963,0.00000271,-0.00000167,-0.00001902,0.00001641,-0.00000239,-0
 .00003176,0.00000486,-0.00003088,-0.00003028,-0.00003268,0.00017348,-0
 .00013120,-0.00000035,0.00003534,-0.00000972,0.00003110,-0.00063771,-0
 .00054280,0.00009598,-0.00011846,0.00006618,0.00002332,-0.00010360,-0.
 00012175,0.00003163,-0.00051994,-0.00018444,0.00041038,0.00061726,0.00
 115113,-0.00019691,-0.00333468,-0.00303868,0.00225620,-0.00078078,0.00
 035604,0.00013373,-0.00001407,-0.00034026,-0.00002558,-0.00009447,0.00
 004989,0.00000301,0.00006158,-0.00000576,-0.00001835,-0.00000269,-0.00
 002849,0.00000058,0.00000850,0.00000691,-0.00000075,0.00001594,0.00000
 039,0.00000160,-0.00001473,0.00005965,-0.00000007,0.00005454,-0.000045
 79,0.00000761,-0.00002274,0.00001473,0.00002285,0.00005787,-0.00005161
 ,-0.00002124,-0.00007706,-0.00009395,-0.00012323,-0.00575145,-0.009453
 97,0.00153654,-0.03878256,-0.36718558,-0.01854261,-0.00008239,-0.00146
 744,-0.00001112,0.00076926,0.00147215,-0.00023478,0.00250029,-0.000575
 26,-0.00169245,-0.00003582,0.00000162,-0.00001200,-0.00000365,-0.00000
 114,-0.00000369,0.00000238,0.00000133,-0.00000151,0.,0.00000154,-0.000
 00500,-0.00000889,-0.00000097,-0.00000043,0.00001113,-0.00000517,0.000
 00709,0.00002246,-0.00001078,0.00001015,-0.00000513,-0.00027239,0.0000
 9617,-0.00000317,-0.00000091,0.00000153,0.00000319,-0.00000028,0.00000
 093,0.04628609,0.38003463,-0.00004270,0.00006781,-0.00001781,-0.000026
 03,-0.00000118,0.00000595,0.00001226,0.00001931,-0.00000419,-0.0000250
 3,-0.00002523,-0.00000965,0.00004050,0.00002204,0.00001540,-0.00003455
 ,-0.00007211,-0.00005300,0.00030626,-0.00006637,0.00017041,0.00002426,
 0.00004896,0.00007684,-0.00049184,-0.00046024,0.00078169,0.00015687,0.
 00022475,-0.00038746,0.00000241,-0.00032464,-0.00013791,-0.00135112,0.
 00150839,-0.00245378,0.00054486,-0.00180197,0.00005000,0.00030857,0.00
 113268,-0.00119288,0.00022528,0.00077028,0.00013830,-0.00036568,-0.000
 14880,-0.00000447,-0.00000753,0.00008226,-0.00002380,-0.00000600,-0.00
 004263,-0.00003231,-0.00001180,0.00001265,0.00000124,-0.00001782,-0.00
 002761,-0.00000571,-0.00003820,-0.00002420,0.00001621,0.00013468,-0.00
 010275,0.00008485,-0.00010505,0.00002450,-0.00001579,-0.00000784,-0.00
 002370,-0.00005483,-0.00012470,0.00004394,0.00004458,0.00003063,0.0003
 0629,0.00030394,-0.00365813,-0.01034173,0.00227765,0.00629069,-0.01478
 435,-0.02531166,-0.00031408,0.00873670,-0.00290202,0.00190202,0.000888
 86,-0.00071570,0.00349256,-0.00187536,0.00258664,-0.00003813,-0.000013
 12,-0.00004450,0.00000587,-0.00000970,-0.00000484,0.00000173,0.0000030
 4,0.00000323,-0.00000017,0.00000306,-0.00000184,-0.00002021,-0.0000041
 8,0.00000749,0.00002400,0.00000737,-0.00000210,0.00009400,-0.00005620,
 0.00021743,0.00011270,0.00003290,0.00009345,0.00000236,-0.00000356,0.0
 0000697,0.00000222,-0.00000392,0.00000912,-0.00801506,0.01628822,0.023
 64463,0.00020126,-0.00035289,-0.00011495,-0.00018357,-0.00000253,-0.00
 007274,0.00004788,0.00000976,0.00005784,0.00008337,0.00018873,-0.00001
 488,0.00005322,-0.00007389,0.00005100,-0.00013526,0.00015520,-0.000127
 34,-0.00010339,-0.00006472,-0.00034442,0.00046959,0.00022912,0.0000789
 5,0.00051406,-0.00046177,-0.00165110,-0.00011424,-0.00003632,-0.000048
 79,-0.00001043,0.00001985,-0.00016944,0.00026835,-0.00133808,0.0001309
 7,-0.00027332,0.00012887,0.00026880,-0.00001741,-0.00005017,-0.0002163
 6,0.00000673,0.00000137,0.00002724,-0.00001229,-0.00000257,0.00001826,
 0.00000507,0.00000649,-0.00000738,0.00000395,0.00000154,-0.00000378,-0
 .00000872,-0.00000449,0.00000101,0.00000544,-0.00000912,-0.00000094,-0
 .00000121,0.00000510,-0.00000067,-0.00002038,0.00000555,-0.00000962,-0
 .00002139,-0.00001971,-0.00000050,0.00000839,-0.00000053,-0.00000083,0
 .00000471,0.00000787,0.00000068,-0.00000168,-0.00014990,0.00000736,-0.
 00334847,0.00120517,0.00351946,-0.00124713,0.00395251,0.00104355,0.006
 24272,0.00913686,-0.00395934,-0.15307328,-0.14431358,0.05112996,-0.006
 24742,-0.02101420,0.00142114,0.00006954,-0.00022120,-0.00059652,-0.000
 07993,0.00006568,-0.00001387,-0.00001047,-0.00002262,-0.00003524,-0.00
 001665,-0.00001010,-0.00001753,-0.00000032,0.00000372,0.00001484,0.000
 00465,0.00000016,0.00013000,-0.00000237,0.00002746,0.00002311,-0.00000
 551,-0.00000786,0.00000715,-0.00000008,-0.00000062,0.00000047,0.000000
 51,0.00000017,0.00000161,0.00148388,-0.00019656,0.00098695,0.15546162,
 -0.00026125,-0.00036475,-0.00045843,0.00021080,-0.00005810,-0.00007075
 ,-0.00013880,-0.00014495,-0.00001264,-0.00001724,-0.00023438,-0.000054
 03,-0.00004661,0.00001074,-0.00003312,-0.00002170,0.00013124,0.0000394
 3,0.00062899,-0.00013945,-0.00019126,-0.00028967,-0.00045589,-0.000626
 26,0.00005511,-0.00031015,0.00037640,-0.00028941,-0.00031230,0.0000855
 9,-0.00005245,0.00030285,0.00011056,0.00034624,0.00033691,-0.00016116,
 0.00007883,-0.00022131,-0.00016456,-0.00018564,0.00001572,0.00023508,-
 0.00001300,0.00001956,-0.00001617,-0.00000913,0.00000228,-0.00001084,-
 0.00000528,-0.00000764,0.00000765,-0.00000435,-0.00000019,0.00000277,0
 .00000778,0.00000330,-0.00000145,-0.00000565,0.00000880,-0.00000073,0.
 00000057,-0.00000658,0.00000138,0.00001611,-0.00000502,0.00000704,-0.0
 0000942,0.00001016,-0.00000086,0.00002510,-0.00000645,-0.00000054,-0.0
 0003455,0.00000584,0.00000177,0.00003947,0.00003580,-0.00000826,0.0007
 8823,0.00080900,-0.00049427,0.00265217,-0.00387327,-0.00159901,-0.0115
 0062,-0.01261105,0.00468732,-0.14699529,-0.24156231,0.04891280,0.00266
 713,0.00692865,-0.00063409,0.00022064,0.00001025,-0.00037689,0.0000274
 5,0.00002607,0.00002413,0.00000008,-0.00000003,0.00001434,0.00000181,-
 0.00000166,0.00003827,0.00000613,-0.00000602,-0.00001705,-0.00003135,0
 .00001072,-0.00004221,0.00000339,-0.00000253,-0.00000431,0.00000618,0.
 00000308,-0.00000571,0.00000010,0.00000047,-0.00000004,-0.00000028,-0.
 00000025,-0.00000080,-0.00107283,0.00042378,-0.00001047,0.15320222,0.2
 5122907,0.00038300,-0.00030855,-0.00046211,-0.00041975,-0.00012264,0.0
 0009830,0.00015919,0.00021080,0.00000075,-0.00008481,-0.00021441,0.000
 19323,-0.00002017,0.00013184,-0.00013119,-0.00039025,0.00020536,-0.000
 01365,0.00042632,-0.00044303,-0.00035059,0.00066238,-0.00041683,0.0002
 8102,-0.00124085,0.00046548,-0.00242304,-0.00045235,-0.00023787,0.0000
 0808,-0.00011847,0.00035475,-0.00032087,0.00028602,0.00054238,0.000768
 26,0.00039836,-0.00021881,0.00028930,-0.00035168,-0.00023004,-0.000100
 29,0.00004238,0.00013354,0.00005808,-0.00006835,-0.00003644,0.00001295
 ,0.00000555,0.00002663,-0.00001772,0.00000473,-0.00000444,-0.00000779,
 -0.00000832,0.00000144,-0.00000132,0.00000325,-0.00001386,0.00000204,-
 0.00000925,0.00000114,-0.00000075,0.00006015,-0.00005589,-0.00001189,0
 .00000325,0.00002066,-0.00000526,-0.00002278,0.00001046,0.00000471,0.0
 0000726,0.00000515,0.00001220,-0.00002079,0.00012875,-0.00007038,0.003
 16049,-0.00064866,0.00240486,0.00147991,-0.00265364,-0.00092467,-0.006
 37121,-0.00604690,-0.00173912,0.05167201,0.04895741,-0.03885080,0.0026
 4045,0.01017482,0.00100152,-0.00100274,-0.00025697,-0.00100589,-0.0000
 7968,0.00012505,0.00006735,0.00003625,0.00005242,0.00001311,-0.0000058
 5,0.00004154,-0.00005029,-0.00001667,0.00000433,-0.00003473,0.00009918
 ,-0.00006087,0.00022725,0.00001149,-0.00002651,0.00001986,0.00001141,0
 .00000063,0.00001339,0.00000024,-0.00000055,0.00000141,0.00000059,0.00
 000008,0.00000299,0.00064416,-0.00004915,0.00284019,-0.05151410,-0.049
 54861,0.03820152\\0.00000677,0.00002329,-0.00000264,-0.00000265,-0.000
 01087,0.00000154,-0.00000263,0.00000373,-0.00001495,0.00000046,0.00000
 280,0.00001397,0.00001023,0.00000408,-0.00001125,-0.00000380,-0.000005
 29,-0.00000306,0.00000343,-0.00000908,-0.00000641,-0.00001014,-0.00001
 257,0.00001562,0.00001415,0.00000655,-0.00000309,-0.00000302,0.0000049
 2,0.00001178,0.00000443,-0.00000751,-0.00000222,-0.00000009,-0.0000051
 5,0.00000642,0.00000392,0.00000290,-0.00000590,0.00000240,-0.00000058,
 0.00000330,0.00000110,0.00000075,-0.00000290,-0.00000560,-0.00000300,-
 0.00000183,-0.00001479,-0.00000079,-0.00001114,0.00000774,-0.00000250,
 0.00000528,0.00000374,0.00000325,0.00000956,0.00000067,-0.00000741,-0.
 00001649,0.00000985,0.00000489,0.00001835,0.00001509,0.00000839,0.0000
 0918,-0.00001259,0.00000163,-0.00000212,0.00001428,-0.00000393,-0.0000
 0246,-0.00001883,-0.00000429,0.00000946,0.00000003,-0.00000584,-0.0000
 0970,-0.00001315,-0.00000740,0.00000081,0.00000831,-0.00000221,0.00000
 147,-0.00000065,0.00000480,0.00000039,-0.00000691,-0.00000855,-0.00000
 335,-0.00000129,0.00001987,-0.00000525,-0.00000054,-0.00000412,-0.0000
 0320,-0.00000059,-0.00000087,0.00000013,0.00000205,-0.00000217,-0.0000
 0269,-0.00000504,0.00000176,0.00000217,-0.00000474,0.00000086,0.000005
 82,-0.00000109,-0.00000146,-0.00000019,0.00000224,0.00000791,-0.000002
 82,0.00000224,0.00000287,-0.00000206,-0.00000066,-0.00000168,0.0000013
 0,0.00000030,0.,-0.00000171,-0.00000566,-0.00000100,0.00000089,0.00000
 101,0.00000302,0.00000002\\\@


 Just remember, when you're over the hill, you begin to pick up speed.
 -- Charles Schulz
 Job cpu time:  1 days  3 hours 52 minutes 38.4 seconds.
 File lengths (MBytes):  RWF=   2091 Int=      0 D2E=      0 Chk=     34 Scr=      1
 Normal termination of Gaussian 09 at Sun Dec 29 05:28:11 2013.
