 Entering Gaussian System, Link 0=g09
 Initial command:
 /opt/gaussian/g09/l1.exe /panfs/panfs.cluster/home/shuo/Gau-11779.inp -scrdir=/panfs/panfs.cluster/home/shuo/
 Default is to use a total of  12 processors:
                               12 via shared-memory
                                1 via Linda
 Entering Link 1 = /opt/gaussian/g09/l1.exe PID=     11780.
  
 Copyright (c) 1988,1990,1992,1993,1995,1998,2003,2009,2011,
            Gaussian, Inc.  All Rights Reserved.
  
 This is part of the Gaussian(R) 09 program.  It is based on
 the Gaussian(R) 03 system (copyright 2003, Gaussian, Inc.),
 the Gaussian(R) 98 system (copyright 1998, Gaussian, Inc.),
 the Gaussian(R) 94 system (copyright 1995, Gaussian, Inc.),
 the Gaussian 92(TM) system (copyright 1992, Gaussian, Inc.),
 the Gaussian 90(TM) system (copyright 1990, Gaussian, Inc.),
 the Gaussian 88(TM) system (copyright 1988, Gaussian, Inc.),
 the Gaussian 86(TM) system (copyright 1986, Carnegie Mellon
 University), and the Gaussian 82(TM) system (copyright 1983,
 Carnegie Mellon University). Gaussian is a federally registered
 trademark of Gaussian, Inc.
  
 This software contains proprietary and confidential information,
 including trade secrets, belonging to Gaussian, Inc.
  
 This software is provided under written license and may be
 used, copied, transmitted, or stored only in accord with that
 written license.
  
 The following legend is applicable only to US Government
 contracts under FAR:
  
                    RESTRICTED RIGHTS LEGEND
  
 Use, reproduction and disclosure by the US Government is
 subject to restrictions as set forth in subparagraphs (a)
 and (c) of the Commercial Computer Software - Restricted
 Rights clause in FAR 52.227-19.
  
 Gaussian, Inc.
 340 Quinnipiac St., Bldg. 40, Wallingford CT 06492
  
  
 ---------------------------------------------------------------
 Warning -- This program may not be used in any manner that
 competes with the business of Gaussian, Inc. or will provide
 assistance to any competitor of Gaussian, Inc.  The licensee
 of this program is prohibited from giving any competitor of
 Gaussian, Inc. access to this program.  By using this program,
 the user acknowledges that Gaussian, Inc. is engaged in the
 business of creating and licensing software in the field of
 computational chemistry and represents and warrants to the
 licensee that it is not a competitor of Gaussian, Inc. and that
 it will not use this program in any manner prohibited above.
 ---------------------------------------------------------------
  

 Cite this work as:
 Gaussian 09, Revision C.01,
 M. J. Frisch, G. W. Trucks, H. B. Schlegel, G. E. Scuseria, 
 M. A. Robb, J. R. Cheeseman, G. Scalmani, V. Barone, B. Mennucci, 
 G. A. Petersson, H. Nakatsuji, M. Caricato, X. Li, H. P. Hratchian, 
 A. F. Izmaylov, J. Bloino, G. Zheng, J. L. Sonnenberg, M. Hada, 
 M. Ehara, K. Toyota, R. Fukuda, J. Hasegawa, M. Ishida, T. Nakajima, 
 Y. Honda, O. Kitao, H. Nakai, T. Vreven, J. A. Montgomery, Jr., 
 J. E. Peralta, F. Ogliaro, M. Bearpark, J. J. Heyd, E. Brothers, 
 K. N. Kudin, V. N. Staroverov, T. Keith, R. Kobayashi, J. Normand, 
 K. Raghavachari, A. Rendell, J. C. Burant, S. S. Iyengar, J. Tomasi, 
 M. Cossi, N. Rega, J. M. Millam, M. Klene, J. E. Knox, J. B. Cross, 
 V. Bakken, C. Adamo, J. Jaramillo, R. Gomperts, R. E. Stratmann, 
 O. Yazyev, A. J. Austin, R. Cammi, C. Pomelli, J. W. Ochterski, 
 R. L. Martin, K. Morokuma, V. G. Zakrzewski, G. A. Voth, 
 P. Salvador, J. J. Dannenberg, S. Dapprich, A. D. Daniels, 
 O. Farkas, J. B. Foresman, J. V. Ortiz, J. Cioslowski, 
 and D. J. Fox, Gaussian, Inc., Wallingford CT, 2010.
 
 ******************************************
 Gaussian 09:  EM64L-G09RevC.01 23-Sep-2011
                29-Dec-2013 
 ******************************************
 %chk=5_C17H6N6OS2Se.chk
 %NProcShared=12
 Will use up to   12 processors via shared memory.
 %Mem=8000MB
 Default route:  MaxDisk=100GB
 --------------------------------------------
 #B3LYP/6-31++G(d,p) opt scf=direct freq test
 --------------------------------------------
 1/14=-1,18=20,19=15,26=3,38=1/1,3;
 2/9=110,12=2,17=6,18=5,40=1/2;
 3/5=1,6=6,7=1111,11=2,16=1,25=1,30=1,71=1,74=-5/1,2,3;
 4//1;
 5/5=2,38=5/2;
 6/7=2,8=2,9=2,10=2,28=1/1;
 7//1,2,3,16;
 1/14=-1,18=20,19=15/3(2);
 2/9=110/2;
 99//99;
 2/9=110/2;
 3/5=1,6=6,7=1111,11=2,16=1,25=1,30=1,71=1,74=-5/1,2,3;
 4/5=5,16=3/1;
 5/5=2,38=5/2;
 7//1,2,3,16;
 1/14=-1,18=20,19=15/3(-5);
 2/9=110/2;
 6/7=2,8=2,9=2,10=2,19=2,28=1/1;
 99/9=1/99;
 ----------------------------------------------------------------------
 Geom opt of No.5 candidate from the CEPDB database with SMILE code of 
 c1cc2csc(-c3cnc(-c4ccc(-c5ccccc5)c5nsnc45)c4nsnc34)c2s1, HPC, 20131227
 , Shuo Dai, Gaussian09
 ----------------------------------------------------------------------
 Charge =  0 Multiplicity = 1
 Symbolic Z-Matrix:
 C                    -2.31168  -0.3124    0.0028 
 C                    -1.66246   0.92335   0.00146 
 C                    -0.24436   0.81406   0.00095 
 C                     0.77116   1.69047   0.00114 
 S                     2.23425   0.8234   -0.00943 
 C                     1.44943  -0.71146  -0.00406 
 C                     2.16653  -1.96712  -0.00405 
 C                     1.55004  -3.21633  -0.01922 
 N                     2.13722  -4.42069  -0.01246 
 C                     3.4743   -4.54765   0.00809 
 C                     3.99438  -5.87896   0.01603 
 C                     5.36939  -6.11431   0.02344 
 C                     5.93677  -7.36449   0.05043 
 C                     5.19949  -8.55644   0.05346 
 C                     5.89608  -9.83644   0.04133 
 C                     7.28143  -9.89896  -0.21414 
 C                     7.92516  -11.10899  -0.40708 
 C                     7.21552  -12.28794  -0.24601 
 C                     5.88208  -12.25493   0.1379 
 C                     5.22731  -11.041    0.25492 
 C                     3.77026  -8.40329   0.01607 
 N                     2.8323   -9.36856  -0.03376 
 S                     1.35059  -8.65707  -0.01631 
 N                     1.80685  -7.08159   0.00863 
 C                     3.15424  -7.03416   0.01288 
 C                     4.258    -3.36705   0.01884 
 N                     5.5994   -3.25254   0.03515 
 S                     5.98646  -1.66435   0.03709 
 N                     4.47374  -1.03834   0.02427 
 C                     3.5831   -2.04761   0.01254 
 C                     0.08987  -0.54545   0.00194 
 S                    -1.30488  -1.71272   0.01187 
 H                    -3.37223  -0.51059   0.00129 
 H                    -2.2129    1.85139  -0.00066 
 H                     0.81503   2.77216   0.0048 
 H                     0.48211  -3.36586  -0.0407 
 H                     6.09853  -5.31529   0.0118 
 H                     7.02195  -7.34087   0.06275 
 H                     7.90317  -9.01266  -0.30092 
 H                     8.9722   -11.11177  -0.69012 
 H                     7.70432  -13.23836  -0.41135 
 H                     5.32453  -13.16362   0.33125 
 H                     4.17385  -11.07438   0.5069 
 

 GradGradGradGradGradGradGradGradGradGradGradGradGradGradGradGradGradGrad
 Berny optimization.
 Initialization pass.
                           ----------------------------
                           !    Initial Parameters    !
                           ! (Angstroms and Degrees)  !
 --------------------------                            --------------------------
 ! Name  Definition              Value          Derivative Info.                !
 --------------------------------------------------------------------------------
 ! R1    R(1,2)                  1.3959         estimate D2E/DX2                !
 ! R2    R(1,32)                 1.7247         estimate D2E/DX2                !
 ! R3    R(1,33)                 1.0789         estimate D2E/DX2                !
 ! R4    R(2,3)                  1.4223         estimate D2E/DX2                !
 ! R5    R(2,34)                 1.079          estimate D2E/DX2                !
 ! R6    R(3,4)                  1.3414         estimate D2E/DX2                !
 ! R7    R(3,31)                 1.4            estimate D2E/DX2                !
 ! R8    R(4,5)                  1.7008         estimate D2E/DX2                !
 ! R9    R(4,35)                 1.0826         estimate D2E/DX2                !
 ! R10   R(5,6)                  1.7239         estimate D2E/DX2                !
 ! R11   R(6,7)                  1.446          estimate D2E/DX2                !
 ! R12   R(6,31)                 1.3697         estimate D2E/DX2                !
 ! R13   R(7,8)                  1.3931         estimate D2E/DX2                !
 ! R14   R(7,30)                 1.419          estimate D2E/DX2                !
 ! R15   R(8,9)                  1.3399         estimate D2E/DX2                !
 ! R16   R(8,36)                 1.0786         estimate D2E/DX2                !
 ! R17   R(9,10)                 1.3433         estimate D2E/DX2                !
 ! R18   R(10,11)                1.4293         estimate D2E/DX2                !
 ! R19   R(10,26)                1.4171         estimate D2E/DX2                !
 ! R20   R(11,12)                1.395          estimate D2E/DX2                !
 ! R21   R(11,25)                1.4284         estimate D2E/DX2                !
 ! R22   R(12,13)                1.3732         estimate D2E/DX2                !
 ! R23   R(12,37)                1.0818         estimate D2E/DX2                !
 ! R24   R(13,14)                1.4015         estimate D2E/DX2                !
 ! R25   R(13,38)                1.0855         estimate D2E/DX2                !
 ! R26   R(14,15)                1.4573         estimate D2E/DX2                !
 ! R27   R(14,21)                1.4379         estimate D2E/DX2                !
 ! R28   R(15,16)                1.4101         estimate D2E/DX2                !
 ! R29   R(15,20)                1.3942         estimate D2E/DX2                !
 ! R30   R(16,17)                1.3841         estimate D2E/DX2                !
 ! R31   R(16,39)                1.0861         estimate D2E/DX2                !
 ! R32   R(17,18)                1.3854         estimate D2E/DX2                !
 ! R33   R(17,40)                1.0846         estimate D2E/DX2                !
 ! R34   R(18,19)                1.388          estimate D2E/DX2                !
 ! R35   R(18,41)                1.0815         estimate D2E/DX2                !
 ! R36   R(19,20)                1.3842         estimate D2E/DX2                !
 ! R37   R(19,42)                1.0835         estimate D2E/DX2                !
 ! R38   R(20,43)                1.0837         estimate D2E/DX2                !
 ! R39   R(21,22)                1.3468         estimate D2E/DX2                !
 ! R40   R(21,25)                1.5013         estimate D2E/DX2                !
 ! R41   R(22,23)                1.6438         estimate D2E/DX2                !
 ! R42   R(23,24)                1.6404         estimate D2E/DX2                !
 ! R43   R(24,25)                1.3482         estimate D2E/DX2                !
 ! R44   R(26,27)                1.3464         estimate D2E/DX2                !
 ! R45   R(26,30)                1.482          estimate D2E/DX2                !
 ! R46   R(27,28)                1.6347         estimate D2E/DX2                !
 ! R47   R(28,29)                1.6372         estimate D2E/DX2                !
 ! R48   R(29,30)                1.3461         estimate D2E/DX2                !
 ! R49   R(31,32)                1.8188         estimate D2E/DX2                !
 ! A1    A(2,1,32)             116.5687         estimate D2E/DX2                !
 ! A2    A(2,1,33)             128.3008         estimate D2E/DX2                !
 ! A3    A(32,1,33)            115.1303         estimate D2E/DX2                !
 ! A4    A(1,2,3)              113.3089         estimate D2E/DX2                !
 ! A5    A(1,2,34)             121.6111         estimate D2E/DX2                !
 ! A6    A(3,2,34)             125.0799         estimate D2E/DX2                !
 ! A7    A(2,3,4)              134.7983         estimate D2E/DX2                !
 ! A8    A(2,3,31)             108.2189         estimate D2E/DX2                !
 ! A9    A(4,3,31)             116.9827         estimate D2E/DX2                !
 ! A10   A(3,4,5)              108.5526         estimate D2E/DX2                !
 ! A11   A(3,4,35)             133.1169         estimate D2E/DX2                !
 ! A12   A(5,4,35)             118.3304         estimate D2E/DX2                !
 ! A13   A(4,5,6)               93.569          estimate D2E/DX2                !
 ! A14   A(5,6,7)              123.1874         estimate D2E/DX2                !
 ! A15   A(5,6,31)             110.1209         estimate D2E/DX2                !
 ! A16   A(7,6,31)             126.6917         estimate D2E/DX2                !
 ! A17   A(6,7,8)              124.0008         estimate D2E/DX2                !
 ! A18   A(6,7,30)             122.98           estimate D2E/DX2                !
 ! A19   A(8,7,30)             113.0193         estimate D2E/DX2                !
 ! A20   A(7,8,9)              127.735          estimate D2E/DX2                !
 ! A21   A(7,8,36)             124.2422         estimate D2E/DX2                !
 ! A22   A(9,8,36)             108.0228         estimate D2E/DX2                !
 ! A23   A(8,9,10)             121.4161         estimate D2E/DX2                !
 ! A24   A(9,10,11)            116.764          estimate D2E/DX2                !
 ! A25   A(9,10,26)            118.1557         estimate D2E/DX2                !
 ! A26   A(11,10,26)           125.0802         estimate D2E/DX2                !
 ! A27   A(10,11,12)           121.052          estimate D2E/DX2                !
 ! A28   A(10,11,25)           122.6331         estimate D2E/DX2                !
 ! A29   A(12,11,25)           116.3147         estimate D2E/DX2                !
 ! A30   A(11,12,13)           124.1223         estimate D2E/DX2                !
 ! A31   A(11,12,37)           122.6625         estimate D2E/DX2                !
 ! A32   A(13,12,37)           113.2148         estimate D2E/DX2                !
 ! A33   A(12,13,14)           123.8462         estimate D2E/DX2                !
 ! A34   A(12,13,38)           113.1711         estimate D2E/DX2                !
 ! A35   A(14,13,38)           122.9816         estimate D2E/DX2                !
 ! A36   A(13,14,15)           119.7032         estimate D2E/DX2                !
 ! A37   A(13,14,21)           115.6097         estimate D2E/DX2                !
 ! A38   A(15,14,21)           124.6419         estimate D2E/DX2                !
 ! A39   A(14,15,16)           120.6676         estimate D2E/DX2                !
 ! A40   A(14,15,20)           121.8899         estimate D2E/DX2                !
 ! A41   A(16,15,20)           117.4327         estimate D2E/DX2                !
 ! A42   A(15,16,17)           121.3951         estimate D2E/DX2                !
 ! A43   A(15,16,39)           122.7313         estimate D2E/DX2                !
 ! A44   A(17,16,39)           115.8505         estimate D2E/DX2                !
 ! A45   A(16,17,18)           119.3076         estimate D2E/DX2                !
 ! A46   A(16,17,40)           119.1819         estimate D2E/DX2                !
 ! A47   A(18,17,40)           121.5081         estimate D2E/DX2                !
 ! A48   A(17,18,19)           120.2647         estimate D2E/DX2                !
 ! A49   A(17,18,41)           119.9047         estimate D2E/DX2                !
 ! A50   A(19,18,41)           119.8283         estimate D2E/DX2                !
 ! A51   A(18,19,20)           119.9123         estimate D2E/DX2                !
 ! A52   A(18,19,42)           121.5855         estimate D2E/DX2                !
 ! A53   A(20,19,42)           118.4894         estimate D2E/DX2                !
 ! A54   A(15,20,19)           121.1872         estimate D2E/DX2                !
 ! A55   A(15,20,43)           121.906          estimate D2E/DX2                !
 ! A56   A(19,20,43)           116.9026         estimate D2E/DX2                !
 ! A57   A(14,21,22)           128.0858         estimate D2E/DX2                !
 ! A58   A(14,21,25)           120.3331         estimate D2E/DX2                !
 ! A59   A(22,21,25)           111.577          estimate D2E/DX2                !
 ! A60   A(21,22,23)           108.4905         estimate D2E/DX2                !
 ! A61   A(22,23,24)            99.5061         estimate D2E/DX2                !
 ! A62   A(23,24,25)           108.1677         estimate D2E/DX2                !
 ! A63   A(11,25,21)           119.7477         estimate D2E/DX2                !
 ! A64   A(11,25,24)           128.0434         estimate D2E/DX2                !
 ! A65   A(21,25,24)           112.2089         estimate D2E/DX2                !
 ! A66   A(10,26,27)           128.4582         estimate D2E/DX2                !
 ! A67   A(10,26,30)           119.3299         estimate D2E/DX2                !
 ! A68   A(27,26,30)           112.2119         estimate D2E/DX2                !
 ! A69   A(26,27,28)           108.5754         estimate D2E/DX2                !
 ! A70   A(27,28,29)            98.7838         estimate D2E/DX2                !
 ! A71   A(28,29,30)           108.9486         estimate D2E/DX2                !
 ! A72   A(7,30,26)            120.3427         estimate D2E/DX2                !
 ! A73   A(7,30,29)            128.1777         estimate D2E/DX2                !
 ! A74   A(26,30,29)           111.4796         estimate D2E/DX2                !
 ! A75   A(3,31,6)             110.7733         estimate D2E/DX2                !
 ! A76   A(3,31,32)            116.1139         estimate D2E/DX2                !
 ! A77   A(6,31,32)            133.1128         estimate D2E/DX2                !
 ! A78   A(1,32,31)             85.7877         estimate D2E/DX2                !
 ! D1    D(32,1,2,3)             0.3081         estimate D2E/DX2                !
 ! D2    D(32,1,2,34)         -179.789          estimate D2E/DX2                !
 ! D3    D(33,1,2,3)          -179.8557         estimate D2E/DX2                !
 ! D4    D(33,1,2,34)            0.0473         estimate D2E/DX2                !
 ! D5    D(2,1,32,31)           -0.3807         estimate D2E/DX2                !
 ! D6    D(33,1,32,31)         179.7613         estimate D2E/DX2                !
 ! D7    D(1,2,3,4)           -179.9171         estimate D2E/DX2                !
 ! D8    D(1,2,3,31)             0.0016         estimate D2E/DX2                !
 ! D9    D(34,2,3,4)             0.1838         estimate D2E/DX2                !
 ! D10   D(34,2,3,31)         -179.8974         estimate D2E/DX2                !
 ! D11   D(2,3,4,5)           -179.6587         estimate D2E/DX2                !
 ! D12   D(2,3,4,35)             0.2208         estimate D2E/DX2                !
 ! D13   D(31,3,4,5)             0.4279         estimate D2E/DX2                !
 ! D14   D(31,3,4,35)         -179.6926         estimate D2E/DX2                !
 ! D15   D(2,3,31,6)           179.7512         estimate D2E/DX2                !
 ! D16   D(2,3,31,32)           -0.2936         estimate D2E/DX2                !
 ! D17   D(4,3,31,6)            -0.3135         estimate D2E/DX2                !
 ! D18   D(4,3,31,32)          179.6417         estimate D2E/DX2                !
 ! D19   D(3,4,5,6)             -0.3291         estimate D2E/DX2                !
 ! D20   D(35,4,5,6)           179.7709         estimate D2E/DX2                !
 ! D21   D(4,5,6,7)           -179.7483         estimate D2E/DX2                !
 ! D22   D(4,5,6,31)             0.166          estimate D2E/DX2                !
 ! D23   D(5,6,7,8)           -179.0341         estimate D2E/DX2                !
 ! D24   D(5,6,7,30)             1.0113         estimate D2E/DX2                !
 ! D25   D(31,6,7,8)             1.0662         estimate D2E/DX2                !
 ! D26   D(31,6,7,30)         -178.8884         estimate D2E/DX2                !
 ! D27   D(5,6,31,3)             0.0404         estimate D2E/DX2                !
 ! D28   D(5,6,31,32)         -179.9046         estimate D2E/DX2                !
 ! D29   D(7,6,31,3)           179.951          estimate D2E/DX2                !
 ! D30   D(7,6,31,32)            0.006          estimate D2E/DX2                !
 ! D31   D(6,7,8,9)           -179.5729         estimate D2E/DX2                !
 ! D32   D(6,7,8,36)             0.5344         estimate D2E/DX2                !
 ! D33   D(30,7,8,9)             0.3856         estimate D2E/DX2                !
 ! D34   D(30,7,8,36)         -179.507          estimate D2E/DX2                !
 ! D35   D(6,7,30,26)          179.6757         estimate D2E/DX2                !
 ! D36   D(6,7,30,29)           -0.3258         estimate D2E/DX2                !
 ! D37   D(8,7,30,26)           -0.2834         estimate D2E/DX2                !
 ! D38   D(8,7,30,29)          179.7151         estimate D2E/DX2                !
 ! D39   D(7,8,9,10)            -0.1621         estimate D2E/DX2                !
 ! D40   D(36,8,9,10)          179.7446         estimate D2E/DX2                !
 ! D41   D(8,9,10,11)          179.8889         estimate D2E/DX2                !
 ! D42   D(8,9,10,26)           -0.1728         estimate D2E/DX2                !
 ! D43   D(9,10,11,12)         179.3424         estimate D2E/DX2                !
 ! D44   D(9,10,11,25)          -0.4674         estimate D2E/DX2                !
 ! D45   D(26,10,11,12)         -0.5911         estimate D2E/DX2                !
 ! D46   D(26,10,11,25)        179.5992         estimate D2E/DX2                !
 ! D47   D(9,10,26,27)        -179.7796         estimate D2E/DX2                !
 ! D48   D(9,10,26,30)           0.238          estimate D2E/DX2                !
 ! D49   D(11,10,26,27)          0.153          estimate D2E/DX2                !
 ! D50   D(11,10,26,30)       -179.8294         estimate D2E/DX2                !
 ! D51   D(10,11,12,13)        179.0341         estimate D2E/DX2                !
 ! D52   D(10,11,12,37)         -0.7392         estimate D2E/DX2                !
 ! D53   D(25,11,12,13)         -1.1447         estimate D2E/DX2                !
 ! D54   D(25,11,12,37)        179.0821         estimate D2E/DX2                !
 ! D55   D(10,11,25,21)        179.7536         estimate D2E/DX2                !
 ! D56   D(10,11,25,24)         -0.3284         estimate D2E/DX2                !
 ! D57   D(12,11,25,21)         -0.0646         estimate D2E/DX2                !
 ! D58   D(12,11,25,24)        179.8534         estimate D2E/DX2                !
 ! D59   D(11,12,13,14)          1.0018         estimate D2E/DX2                !
 ! D60   D(11,12,13,38)       -179.3791         estimate D2E/DX2                !
 ! D61   D(37,12,13,14)       -179.206          estimate D2E/DX2                !
 ! D62   D(37,12,13,38)          0.4132         estimate D2E/DX2                !
 ! D63   D(12,13,14,15)        178.1073         estimate D2E/DX2                !
 ! D64   D(12,13,14,21)          0.4388         estimate D2E/DX2                !
 ! D65   D(38,13,14,15)         -1.4753         estimate D2E/DX2                !
 ! D66   D(38,13,14,21)       -179.1438         estimate D2E/DX2                !
 ! D67   D(13,14,15,16)        -11.4559         estimate D2E/DX2                !
 ! D68   D(13,14,15,20)        169.7176         estimate D2E/DX2                !
 ! D69   D(21,14,15,16)        165.9884         estimate D2E/DX2                !
 ! D70   D(21,14,15,20)        -12.838          estimate D2E/DX2                !
 ! D71   D(13,14,21,22)        177.6219         estimate D2E/DX2                !
 ! D72   D(13,14,21,25)         -1.5828         estimate D2E/DX2                !
 ! D73   D(15,14,21,22)          0.0835         estimate D2E/DX2                !
 ! D74   D(15,14,21,25)       -179.1212         estimate D2E/DX2                !
 ! D75   D(14,15,16,17)       -171.2213         estimate D2E/DX2                !
 ! D76   D(14,15,16,39)          6.9555         estimate D2E/DX2                !
 ! D77   D(20,15,16,17)          7.656          estimate D2E/DX2                !
 ! D78   D(20,15,16,39)       -174.1671         estimate D2E/DX2                !
 ! D79   D(14,15,20,19)        174.9295         estimate D2E/DX2                !
 ! D80   D(14,15,20,43)         -4.3014         estimate D2E/DX2                !
 ! D81   D(16,15,20,19)         -3.9332         estimate D2E/DX2                !
 ! D82   D(16,15,20,43)        176.8359         estimate D2E/DX2                !
 ! D83   D(15,16,17,18)         -4.9581         estimate D2E/DX2                !
 ! D84   D(15,16,17,40)        174.4803         estimate D2E/DX2                !
 ! D85   D(39,16,17,18)        176.7461         estimate D2E/DX2                !
 ! D86   D(39,16,17,40)         -3.8156         estimate D2E/DX2                !
 ! D87   D(16,17,18,19)         -1.6214         estimate D2E/DX2                !
 ! D88   D(16,17,18,41)        178.9247         estimate D2E/DX2                !
 ! D89   D(40,17,18,19)        178.9538         estimate D2E/DX2                !
 ! D90   D(40,17,18,41)         -0.5001         estimate D2E/DX2                !
 ! D91   D(17,18,19,20)          5.2727         estimate D2E/DX2                !
 ! D92   D(17,18,19,42)       -176.0514         estimate D2E/DX2                !
 ! D93   D(41,18,19,20)       -175.2729         estimate D2E/DX2                !
 ! D94   D(41,18,19,42)          3.403          estimate D2E/DX2                !
 ! D95   D(18,19,20,15)         -2.3892         estimate D2E/DX2                !
 ! D96   D(18,19,20,43)        176.8787         estimate D2E/DX2                !
 ! D97   D(42,19,20,15)        178.8941         estimate D2E/DX2                !
 ! D98   D(42,19,20,43)         -1.838          estimate D2E/DX2                !
 ! D99   D(14,21,22,23)        178.4169         estimate D2E/DX2                !
 ! D100  D(25,21,22,23)         -2.3212         estimate D2E/DX2                !
 ! D101  D(14,21,25,11)          1.4401         estimate D2E/DX2                !
 ! D102  D(14,21,25,24)       -178.4902         estimate D2E/DX2                !
 ! D103  D(22,21,25,11)       -177.8868         estimate D2E/DX2                !
 ! D104  D(22,21,25,24)          2.1829         estimate D2E/DX2                !
 ! D105  D(21,22,23,24)          1.658          estimate D2E/DX2                !
 ! D106  D(22,23,24,25)         -0.3751         estimate D2E/DX2                !
 ! D107  D(23,24,25,11)        179.1615         estimate D2E/DX2                !
 ! D108  D(23,24,25,21)         -0.9153         estimate D2E/DX2                !
 ! D109  D(10,26,27,28)        179.8347         estimate D2E/DX2                !
 ! D110  D(30,26,27,28)         -0.1819         estimate D2E/DX2                !
 ! D111  D(10,26,30,7)           0.0018         estimate D2E/DX2                !
 ! D112  D(10,26,30,29)       -179.997          estimate D2E/DX2                !
 ! D113  D(27,26,30,7)        -179.9834         estimate D2E/DX2                !
 ! D114  D(27,26,30,29)          0.0179         estimate D2E/DX2                !
 ! D115  D(26,27,28,29)          0.2449         estimate D2E/DX2                !
 ! D116  D(27,28,29,30)         -0.2357         estimate D2E/DX2                !
 ! D117  D(28,29,30,7)        -179.8433         estimate D2E/DX2                !
 ! D118  D(28,29,30,26)          0.1553         estimate D2E/DX2                !
 ! D119  D(3,31,32,1)            0.3873         estimate D2E/DX2                !
 ! D120  D(6,31,32,1)         -179.67           estimate D2E/DX2                !
 --------------------------------------------------------------------------------
 Trust Radius=3.00D-01 FncErr=1.00D-07 GrdErr=1.00D-06
 Number of steps in this run=    257 maximum allowed number of steps=    258.
 GradGradGradGradGradGradGradGradGradGradGradGradGradGradGradGradGradGrad

                          Input orientation:                          
 ---------------------------------------------------------------------
 Center     Atomic      Atomic             Coordinates (Angstroms)
 Number     Number       Type             X           Y           Z
 ---------------------------------------------------------------------
      1          6           0       -2.311680   -0.312400    0.002800
      2          6           0       -1.662460    0.923350    0.001460
      3          6           0       -0.244360    0.814060    0.000950
      4          6           0        0.771160    1.690470    0.001140
      5         16           0        2.234250    0.823400   -0.009430
      6          6           0        1.449430   -0.711460   -0.004060
      7          6           0        2.166530   -1.967120   -0.004050
      8          6           0        1.550040   -3.216330   -0.019220
      9          7           0        2.137220   -4.420690   -0.012460
     10          6           0        3.474300   -4.547650    0.008090
     11          6           0        3.994380   -5.878960    0.016030
     12          6           0        5.369390   -6.114310    0.023440
     13          6           0        5.936770   -7.364490    0.050430
     14          6           0        5.199490   -8.556440    0.053460
     15          6           0        5.896080   -9.836440    0.041330
     16          6           0        7.281430   -9.898960   -0.214140
     17          6           0        7.925160  -11.108990   -0.407080
     18          6           0        7.215520  -12.287940   -0.246010
     19          6           0        5.882080  -12.254930    0.137900
     20          6           0        5.227310  -11.041000    0.254920
     21          6           0        3.770260   -8.403290    0.016070
     22          7           0        2.832300   -9.368560   -0.033760
     23         16           0        1.350590   -8.657070   -0.016310
     24          7           0        1.806850   -7.081590    0.008630
     25          6           0        3.154240   -7.034160    0.012880
     26          6           0        4.258000   -3.367050    0.018840
     27          7           0        5.599400   -3.252540    0.035150
     28         16           0        5.986460   -1.664350    0.037090
     29          7           0        4.473740   -1.038340    0.024270
     30          6           0        3.583100   -2.047610    0.012540
     31          6           0        0.089870   -0.545450    0.001940
     32         16           0       -1.304880   -1.712720    0.011870
     33          1           0       -3.372230   -0.510590    0.001290
     34          1           0       -2.212900    1.851390   -0.000660
     35          1           0        0.815030    2.772160    0.004800
     36          1           0        0.482110   -3.365860   -0.040700
     37          1           0        6.098530   -5.315290    0.011800
     38          1           0        7.021950   -7.340870    0.062750
     39          1           0        7.903170   -9.012660   -0.300920
     40          1           0        8.972200  -11.111770   -0.690120
     41          1           0        7.704320  -13.238360   -0.411350
     42          1           0        5.324530  -13.163620    0.331250
     43          1           0        4.173850  -11.074380    0.506900
 ---------------------------------------------------------------------
                    Distance matrix (angstroms):
                    1          2          3          4          5
     1  C    0.000000
     2  C    1.395911   0.000000
     3  C    2.354300   1.422305   0.000000
     4  C    3.676329   2.551662   1.341408   0.000000
     5  S    4.685688   3.898007   2.478649   1.700751   0.000000
     6  C    3.782227   3.515180   2.279509   2.495866   1.723881
     7  C    4.774150   4.797501   3.680676   3.914722   2.791347
     8  C    4.831788   5.239994   4.411839   4.968275   4.097274
     9  N    6.055658   6.557174   5.751062   6.261995   5.244988
    10  C    7.170421   7.504545   6.525061   6.798614   5.512369
    11  C    8.411490   8.847117   7.922352   8.227128   6.929671
    12  C    9.626080   9.948671   8.917231   9.058632   7.613278
    13  C   10.852243  11.244509  10.251707  10.424886   8.986311
    14  C   11.152777  11.702798  10.837183  11.162975   9.837581
    15  C   12.572834  13.149380  12.293892  12.614915  11.271369
    16  C   13.563810  14.041440  13.093990  13.294542  11.852634
    17  C   14.883792  15.390470  14.459138  14.668761  13.225979
    18  C   15.304999  15.919107  15.078899  15.394376  14.027696
    19  C   14.483783  15.185709  14.434352  14.853094  13.578331
    20  C   13.114984  13.808651  13.059331  13.491183  12.238965
    21  C   10.121891  10.793557  10.053703  10.529901   9.353704
    22  N   10.415176  11.230651  10.637330  11.249518  10.209520
    23  S    9.112964  10.043069   9.604502  10.363765   9.521566
    24  N    7.923652   8.724404   8.157745   8.832992   7.916556
    25  C    8.663627   9.301758   8.552496   9.044246   7.911266
    26  C    7.245125   7.311613   6.144367   6.143035   4.653626
    27  N    8.439826   8.376981   7.119546   6.909877   5.285784
    28  S    8.407620   8.074865   6.705739   6.201247   4.502238
    29  N    6.824176   6.442181   5.068767   4.599569   2.912478
    30  C    6.144874   6.028485   4.778989   4.677647   3.172157
    31  C    2.412831   2.286489   1.399992   2.337412   2.544061
    32  S    1.724710   2.660232   2.740336   3.986447   4.354056
    33  H    1.078910   2.231479   3.396803   4.691732   5.763008
    34  H    2.166046   1.079003   2.225131   2.988396   4.564426
    35  H    4.392133   3.091289   2.226315   1.082585   2.410820
    36  H    4.138934   4.795652   4.242785   5.064758   4.541021
    37  H    9.785736   9.957595   8.820505   8.801230   7.253732
    38  H   11.684162  11.988330  10.922727  10.983682   9.464808
    39  H   13.421249  13.795543  12.768625  12.865217  11.356483
    40  H   15.634337  16.075397  15.088008  15.219469  13.722667
    41  H   16.357635  16.984140  16.149985  16.465382  15.093585
    42  H   14.952372  15.727985  15.049823  15.539824  14.328385
    43  H   12.575231  13.351536  12.692973  13.220268  12.065895
                    6          7          8          9         10
     6  C    0.000000
     7  C    1.445999   0.000000
     8  C    2.506936   1.393132   0.000000
     9  N    3.772468   2.453759   1.339891   0.000000
    10  C    4.337810   2.893017   2.340072   1.343251   0.000000
    11  C    5.760228   4.317862   3.614642   2.361442   1.429312
    12  C    6.675150   5.240062   4.794533   3.649186   2.458867
    13  C    8.025086   6.584017   6.037838   4.806921   3.741676
    14  C    8.695399   7.254053   6.468427   5.146481   4.364486
    15  C   10.150863   8.708490   7.919444   6.592592   5.816994
    16  C   10.884232   9.440362   8.805928   7.517647   6.571160
    17  C   12.255861  10.811940  10.153161   8.853775   7.939377
    18  C   12.935270  11.492179  10.697813   9.366819   8.600778
    19  C   12.366092  10.939127  10.024348   8.684578   8.075668
    20  C   11.001766   9.579704   8.650025   7.310859   6.730346
    21  C    8.034358   6.632996   5.642267   4.304502   3.866991
    22  N    8.766903   7.431383   6.284452   4.996500   4.863650
    23  S    7.946234   6.739536   5.444395   4.308795   4.625805
    24  N    6.380162   5.127118   3.873882   2.681413   3.033355
    25  C    6.548527   5.162437   4.141294   2.804496   2.507029
    26  C    3.865326   2.516858   2.712418   2.368300   1.417081
    27  N    4.866300   3.665847   4.049887   3.654248   2.488793
    28  S    4.636198   3.832131   4.700387   4.734608   3.824292
    29  N    3.042056   2.487298   3.646033   4.111078   3.648890
    30  C    2.517562   1.418952   2.345261   2.778975   2.502410
    31  C    1.369671   2.516684   3.044034   4.382845   5.241375
    32  S    2.930699   3.480756   3.226822   4.379697   5.556744
    33  H    4.825845   5.727073   5.616956   6.755969   7.948136
    34  H    4.469997   5.810373   6.312040   7.632999   8.561077
    35  H    3.540925   4.928225   6.033476   7.313383   7.787897
    36  H    2.825401   2.189769   1.078562   1.962869   3.217485
    37  H    6.542907   5.164409   5.009527   4.061142   2.734203
    38  H    8.660630   7.242704   6.852762   5.691546   4.515627
    39  H   10.518974   9.090479   8.604595   7.376691   6.296562
    40  H   12.854151  11.419827  10.857096   9.588886   8.590813
    41  H   14.007596  12.564787  11.767328  10.435661   9.674577
    42  H   13.045502  11.638170  10.645101   9.312138   8.818317
    43  H   10.727239   9.339839   8.301213   6.977764   6.583038
                   11         12         13         14         15
    11  C    0.000000
    12  C    1.395026   0.000000
    13  C    2.445580   1.373171   0.000000
    14  C    2.936425   2.448217   1.401548   0.000000
    15  C    4.390757   3.759252   2.472302   1.457321   0.000000
    16  C    5.197891   4.246871   2.881258   2.491675   1.410095
    17  C    6.556163   5.627089   4.264304   3.762564   2.436723
    18  C    7.177704   6.449380   5.095433   4.251841   2.798810
    19  C    6.650658   6.163048   4.891528   3.761899   2.420458
    20  C    5.312612   4.934171   3.749917   2.492870   1.394216
    21  C    2.534260   2.792257   2.402926   1.437898   2.563916
    22  N    3.678344   4.126771   3.696095   2.504144   3.100209
    23  S    3.835175   4.755835   4.765319   3.850847   4.696351
    24  N    2.496330   3.691550   4.139809   3.699621   4.930727
    25  C    1.428402   2.398567   2.802321   2.549908   3.920621
    26  C    2.525707   2.963553   4.335758   5.274218   6.673591
    27  N    3.078074   2.871022   4.125795   5.318987   6.590584
    28  S    4.661734   4.492561   5.700372   6.936894   8.172591
    29  N    4.864304   5.154383   6.493174   7.553105   8.912346
    30  C    3.853363   4.441734   5.814672   6.706658   8.125059
    31  C    6.609972   7.673721   8.982644   9.501938  10.956100
    32  S    6.740900   7.994999   9.186157   9.441666  10.855852
    33  H    9.115183  10.383549  11.560097  11.756394  13.148181
    34  H    9.914077  10.997458  12.302527  12.777691  14.225424
    35  H    9.216847   9.985584  11.357199  12.147553  13.593940
    36  H    4.319135   5.607459   6.763924   7.014603   8.437192
    37  H    2.178345   1.081764   2.055938   3.363787   4.525777
    38  H    3.362372   2.058385   1.085507   2.190675   2.737866
    39  H    5.019878   3.863377   2.589718   2.764707   2.196397
    40  H    7.256696   6.201936   4.878971   4.616921   3.409399
    41  H    8.252701   7.509529   6.151408   5.330159   3.879138
    42  H    7.411810   7.056170   5.838117   4.617241   3.388340
    43  H    5.221643   5.124973   4.132739   2.756368   2.171480
                   16         17         18         19         20
    16  C    0.000000
    17  C    1.384119   0.000000
    18  C    2.390102   1.385444   0.000000
    19  C    2.762735   2.405069   1.387998   0.000000
    20  C    2.396598   2.778716   2.399744   1.384212   0.000000
    21  C    3.823394   4.976250   5.198943   4.394287   3.022839
    22  N    4.484263   5.394969   5.270716   4.202589   2.935382
    23  S    6.062697   7.027772   6.901694   5.788159   4.559128
    24  N    6.161025   7.336653   7.511633   6.586931   5.238047
    25  C    5.029146   6.288266   6.645542   5.891789   4.517850
    26  C    7.201476   8.577127   9.402093   9.035830   7.738527
    27  N    6.860486   8.205397   9.183101   9.007413   7.800440
    28  S    8.339596   9.651791  10.698196  10.591574   9.409852
    29  N    9.297879  10.654405  11.582051  11.305230  10.033657
    30  C    8.681747  10.056748  10.868564  10.463766   9.145668
    31  C   11.800567  13.158550  13.737629  13.064460  11.688193
    32  S   11.865510  13.177976  13.583041  12.759564  11.390583
    33  H   14.201703  15.495931  15.838800  14.952941  13.598013
    34  H   15.108230  16.459553  16.996351  16.264568  14.887437
    35  H   14.227422  15.601600  16.365689  15.858945  14.502902
    36  H    9.430919  10.746594  11.179646  10.402266   9.028405
    37  H    4.739233   6.089253   7.066256   6.944160   5.796713
    38  H    2.586082   3.903237   4.960474   5.045090   4.116871
    39  H    1.086103   2.099131   3.347139   3.845736   3.403432
    40  H    2.134518   1.084625   2.160216   3.397245   3.862941
    41  H    3.371842   2.140795   1.081462   2.142281   3.377556
    42  H    3.845115   3.395572   2.162380   1.083496   2.126216
    43  H    3.399789   3.861202   3.360262   2.109007   1.083691
                   21         22         23         24         25
    21  C    0.000000
    22  N    1.346847   0.000000
    23  S    2.433158   1.643772   0.000000
    24  N    2.366839   2.506706   1.640406   0.000000
    25  C    1.501335   2.356957   2.426488   1.348231   0.000000
    26  C    5.059803   6.168753   6.036438   4.450399   3.829624
    27  N    5.465926   6.713218   6.874880   5.389412   4.503327
    28  S    7.094032   8.325178   8.390010   6.842254   6.070990
    29  N    7.398476   8.490598   8.234122   6.605560   6.139305
    30  C    6.358436   7.359494   6.976381   5.338168   5.004958
    31  C    8.677046   9.239560   8.209027   6.757898   7.175921
    32  S    8.397666   8.702312   7.434804   6.205452   6.942728
    33  H   10.644721  10.814853   9.416500   8.366658   9.227779
    34  H   11.872529  12.302131  11.096235   9.795744  10.380721
    35  H   11.559593  12.307232  11.441790   9.903540  10.081462
    36  H    6.015883   6.446383   5.362066   3.945126   4.538675
    37  H    3.867377   5.205702   5.806136   4.640942   3.409305
    38  H    3.421170   4.655535   5.822625   5.221822   3.880173
    39  H    4.189601   5.090360   6.568390   6.402341   5.154151
    40  H    5.907178   6.416226   8.035453   8.250627   7.139312
    41  H    6.247993   6.233338   7.843096   8.535945   7.705537
    42  H    5.017553   4.554879   6.018471   7.033438   6.510130
    43  H    2.745637   2.236491   3.753390   4.668333   4.196074
                   26         27         28         29         30
    26  C    0.000000
    27  N    1.346378   0.000000
    28  S    2.426334   1.634676   0.000000
    29  N    2.338688   2.483930   1.637185   0.000000
    30  C    1.482043   2.349007   2.433851   1.346107   0.000000
    31  C    5.033390   6.138759   6.001912   4.411548   3.802532
    32  S    5.803662   7.073943   7.291544   5.817851   4.899439
    33  H    8.147397   9.381342   9.429609   7.863733   7.123143
    34  H    8.312944   9.331850   8.921399   7.284388   6.985413
    35  H    7.038760   7.693382   6.813762   5.282655   5.558098
    36  H    3.776360   5.119107   5.761862   4.621112   3.369979
    37  H    2.680157   2.122407   3.652747   4.575194   4.123727
    38  H    4.840722   4.328840   5.770249   6.798289   6.312433
    39  H    6.727735   6.212832   7.601690   8.686571   8.202023
    40  H    9.094339   8.583082   9.934648  11.055338  10.568592
    41  H   10.464461  10.215021  11.709391  12.628020  11.933022
    42  H    9.859405   9.919311  11.522061  12.158968  11.256102
    43  H    7.723226   7.964667   9.594527  10.052112   9.059578
                   31         32         33         34         35
    31  C    0.000000
    32  S    1.818776   0.000000
    33  H    3.462276   2.391477   0.000000
    34  H    3.323793   3.677980   2.631159   0.000000
    35  H    3.395939   4.960667   5.320677   3.164839   0.000000
    36  H    2.847873   2.434947   4.796902   5.872340   6.147210
    37  H    7.671732   8.233407  10.619819  10.974576   9.660345
    38  H    9.707480  10.050610  12.437664  13.030124  11.866027
    39  H   11.525321  11.754792  14.124842  14.847647  13.755623
    40  H   13.821066  13.944651  16.286437  17.135499  16.117874
    41  H   14.807452  14.635067  16.877688  18.061575  17.434800
    42  H   13.664857  13.235339  15.357138  16.803974  16.564759
    43  H   11.304523  10.858279  12.992022  14.426494  14.256944
                   36         37         38         39         40
    36  H    0.000000
    37  H    5.945352   0.000000
    38  H    7.653817   2.226718   0.000000
    39  H    9.328783   4.126144   1.924496   0.000000
    40  H   11.510973   6.507676   4.311609   2.387586   0.000000
    41  H   12.237808   8.095224   5.955736   4.231817   2.491509
    42  H   10.935423   7.892871   6.071058   4.927422   4.307990
    43  H    8.564467   6.092342   4.716783   4.337175   4.945545
                   41         42         43
    41  H    0.000000
    42  H    2.494081   0.000000
    43  H    4.241487   2.391619   0.000000
 Stoichiometry    C23H11N5S4
 Framework group  C1[X(C23H11N5S4)]
 Deg. of freedom   123
 Full point group                 C1      NOp   1
 Largest Abelian subgroup         C1      NOp   1
 Largest concise Abelian subgroup C1      NOp   1
                         Standard orientation:                         
 ---------------------------------------------------------------------
 Center     Atomic      Atomic             Coordinates (Angstroms)
 Number     Number       Type             X           Y           Z
 ---------------------------------------------------------------------
      1          6           0        6.329934   -2.927937    0.043153
      2          6           0        7.150400   -1.798602    0.040975
      3          6           0        6.424436   -0.575574    0.029533
      4          6           0        6.760521    0.723029    0.022234
      5         16           0        5.335163    1.650876    0.019326
      6          6           0        4.306585    0.267478    0.018147
      7          6           0        2.863218    0.354335    0.010270
      8          6           0        2.016106   -0.751504    0.028665
      9          7           0        0.676301   -0.758457    0.015195
     10          6           0       -0.029522    0.383963   -0.016660
     11          6           0       -1.453430    0.260623   -0.030944
     12          6           0       -2.273297    1.389138   -0.050140
     13          6           0       -3.645315    1.344004   -0.083744
     14          6           0       -4.387506    0.155103   -0.082457
     15          6           0       -5.843675    0.212875   -0.078061
     16          6           0       -6.514489    1.428981    0.165790
     17          6           0       -7.885427    1.471572    0.351535
     18          6           0       -8.627405    0.312138    0.194578
     19          6           0       -8.005390   -0.871367   -0.178186
     20          6           0       -6.626449   -0.921614   -0.287916
     21          6           0       -3.617481   -1.058223   -0.032957
     22          7           0       -4.067832   -2.326304    0.023201
     23         16           0       -2.773687   -3.339791    0.019147
     24          7           0       -1.563041   -2.233186   -0.007191
     25          6           0       -2.117154   -1.004183   -0.022567
     26          6           0        0.682007    1.609363   -0.032129
     27          7           0        0.190750    2.862621   -0.059413
     28         16           0        1.443320    3.912968   -0.062157
     29          7           0        2.674404    2.834028   -0.035814
     30          6           0        2.163840    1.588629   -0.018215
     31          6           0        5.057508   -0.877984    0.023699
     32         16           0        4.628624   -2.645469    0.023589
     33          1           0        6.621870   -3.966552    0.053177
     34          1           0        8.226213   -1.881110    0.049080
     35          1           0        7.710948    1.241366    0.019853
     36          1           0        2.354838   -1.775051    0.058793
     37          1           0       -1.879843    2.396789   -0.043346
     38          1           0       -4.104622    2.327319   -0.105047
     39          1           0       -5.995599    2.379502    0.248746
     40          1           0       -8.353004    2.411003    0.625858
     41          1           0       -9.696833    0.330605    0.354405
     42          1           0       -8.572242   -1.774976   -0.368276
     43          1           0       -6.188607   -1.882604   -0.531182
 ---------------------------------------------------------------------
 Rotational constants (GHZ):      0.2561367      0.0494621      0.0414927
 Standard basis: 6-31++G(d,p) (6D, 7F)
 There are   690 symmetry adapted basis functions of A   symmetry.
 Integral buffers will be    131072 words long.
 Raffenetti 2 integral format.
 Two-electron integral symmetry is turned on.
   690 basis functions,  1208 primitive gaussians,   690 cartesian basis functions
   124 alpha electrons      124 beta electrons
       nuclear repulsion energy      3475.5462245850 Hartrees.
 NAtoms=   43 NActive=   43 NUniq=   43 SFac= 1.00D+00 NAtFMM=   60 NAOKFM=F Big=F
 One-electron integrals computed using PRISM.
 NBasis=   690 RedAO= T  NBF=   690
 NBsUse=   676 1.00D-06 NBFU=   676
 Harris functional with IExCor=  402 diagonalized for initial guess.
 ExpMin= 3.60D-02 ExpMax= 2.19D+04 ExpMxC= 3.30D+03 IAcc=3 IRadAn=         5 AccDes= 0.00D+00
 HarFok:  IExCor=  402 AccDes= 0.00D+00 IRadAn=         5 IDoV= 1
 ScaDFX=  1.000000  1.000000  1.000000  1.000000
 FoFCou: FMM=F IPFlag=           0 FMFlag=      100000 FMFlg1=           0
         NFxFlg=           0 DoJE=T BraDBF=F KetDBF=T FulRan=T
         Omega=  0.000000  0.000000  1.000000  0.000000  0.000000 ICntrl=     500 IOpCl=  0
         NMat0=    1 NMatS0=    1 NMatT0=    0 NMatD0=    1 NMtDS0=    0 NMtDT0=    0
         I1Cent=           4 NGrid=           0.
 Petite list used in FoFCou.
 Initial guess orbital symmetries:
       Occupied  (A) (A) (A) (A) (A) (A) (A) (A) (A) (A) (A) (A)
                 (A) (A) (A) (A) (A) (A) (A) (A) (A) (A) (A) (A)
                 (A) (A) (A) (A) (A) (A) (A) (A) (A) (A) (A) (A)
                 (A) (A) (A) (A) (A) (A) (A) (A) (A) (A) (A) (A)
                 (A) (A) (A) (A) (A) (A) (A) (A) (A) (A) (A) (A)
                 (A) (A) (A) (A) (A) (A) (A) (A) (A) (A) (A) (A)
                 (A) (A) (A) (A) (A) (A) (A) (A) (A) (A) (A) (A)
                 (A) (A) (A) (A) (A) (A) (A) (A) (A) (A) (A) (A)
                 (A) (A) (A) (A) (A) (A) (A) (A) (A) (A) (A) (A)
                 (A) (A) (A) (A) (A) (A) (A) (A) (A) (A) (A) (A)
                 (A) (A) (A) (A)
       Virtual   (A) (A) (A) (A) (A) (A) (A) (A) (A) (A) (A) (A)
                 (A) (A) (A) (A) (A) (A) (A) (A) (A) (A) (A) (A)
                 (A) (A) (A) (A) (A) (A) (A) (A) (A) (A) (A) (A)
                 (A) (A) (A) (A) (A) (A) (A) (A) (A) (A) (A) (A)
                 (A) (A) (A) (A) (A) (A) (A) (A) (A) (A) (A) (A)
                 (A) (A) (A) (A) (A) (A) (A) (A) (A) (A) (A) (A)
                 (A) (A) (A) (A) (A) (A) (A) (A) (A) (A) (A) (A)
                 (A) (A) (A) (A) (A) (A) (A) (A) (A) (A) (A) (A)
                 (A) (A) (A) (A) (A) (A) (A) (A) (A) (A) (A) (A)
                 (A) (A) (A) (A) (A) (A) (A) (A) (A) (A) (A) (A)
                 (A) (A) (A) (A) (A) (A) (A) (A) (A) (A) (A) (A)
                 (A) (A) (A) (A) (A) (A) (A) (A) (A) (A) (A) (A)
                 (A) (A) (A) (A) (A) (A) (A) (A) (A) (A) (A) (A)
                 (A) (A) (A) (A) (A) (A) (A) (A) (A) (A) (A) (A)
                 (A) (A) (A) (A) (A) (A) (A) (A) (A) (A) (A) (A)
                 (A) (A) (A) (A) (A) (A) (A) (A) (A) (A) (A) (A)
                 (A) (A) (A) (A) (A) (A) (A) (A) (A) (A) (A) (A)
                 (A) (A) (A) (A) (A) (A) (A) (A) (A) (A) (A) (A)
                 (A) (A) (A) (A) (A) (A) (A) (A) (A) (A) (A) (A)
                 (A) (A) (A) (A) (A) (A) (A) (A) (A) (A) (A) (A)
                 (A) (A) (A) (A) (A) (A) (A) (A) (A) (A) (A) (A)
                 (A) (A) (A) (A) (A) (A) (A) (A) (A) (A) (A) (A)
                 (A) (A) (A) (A) (A) (A) (A) (A) (A) (A) (A) (A)
                 (A) (A) (A) (A) (A) (A) (A) (A) (A) (A) (A) (A)
                 (A) (A) (A) (A) (A) (A) (A) (A) (A) (A) (A) (A)
                 (A) (A) (A) (A) (A) (A) (A) (A) (A) (A) (A) (A)
                 (A) (A) (A) (A) (A) (A) (A) (A) (A) (A) (A) (A)
                 (A) (A) (A) (A) (A) (A) (A) (A) (A) (A) (A) (A)
                 (A) (A) (A) (A) (A) (A) (A) (A) (A) (A) (A) (A)
                 (A) (A) (A) (A) (A) (A) (A) (A) (A) (A) (A) (A)
                 (A) (A) (A) (A) (A) (A) (A) (A) (A) (A) (A) (A)
                 (A) (A) (A) (A) (A) (A) (A) (A) (A) (A) (A) (A)
                 (A) (A) (A) (A) (A) (A) (A) (A) (A) (A) (A) (A)
                 (A) (A) (A) (A) (A) (A) (A) (A) (A) (A) (A) (A)
                 (A) (A) (A) (A) (A) (A) (A) (A) (A) (A) (A) (A)
                 (A) (A) (A) (A) (A) (A) (A) (A) (A) (A) (A) (A)
                 (A) (A) (A) (A) (A) (A) (A) (A) (A) (A) (A) (A)
                 (A) (A) (A) (A) (A) (A) (A) (A) (A) (A) (A) (A)
                 (A) (A) (A) (A) (A) (A) (A) (A) (A) (A) (A) (A)
                 (A) (A) (A) (A) (A) (A) (A) (A) (A) (A) (A) (A)
                 (A) (A) (A) (A) (A) (A) (A) (A) (A) (A) (A) (A)
                 (A) (A) (A) (A) (A) (A) (A) (A) (A) (A) (A) (A)
                 (A) (A) (A) (A) (A) (A) (A) (A) (A) (A) (A) (A)
                 (A) (A) (A) (A) (A) (A) (A) (A) (A) (A) (A) (A)
                 (A) (A) (A) (A) (A) (A) (A) (A) (A) (A) (A) (A)
                 (A) (A) (A) (A) (A) (A) (A) (A) (A) (A) (A) (A)
 The electronic state of the initial guess is 1-A.
 Requested convergence on RMS density matrix=1.00D-08 within 128 cycles.
 Requested convergence on MAX density matrix=1.00D-06.
 Requested convergence on             energy=1.00D-06.
 No special actions if energy rises.
 EnCoef did     3 forward-backward iterations
 EnCoef did     2 forward-backward iterations
 EnCoef did     4 forward-backward iterations
 EnCoef did     3 forward-backward iterations
 Restarting incremental Fock formation.
 SCF Done:  E(RB3LYP) =  -2749.55795299     A.U. after   26 cycles
             Convg  =    0.8054D-08             -V/T =  2.0057

 **********************************************************************

            Population analysis using the SCF density.

 **********************************************************************

 Orbital symmetries:
       Occupied  (A) (A) (A) (A) (A) (A) (A) (A) (A) (A) (A) (A)
                 (A) (A) (A) (A) (A) (A) (A) (A) (A) (A) (A) (A)
                 (A) (A) (A) (A) (A) (A) (A) (A) (A) (A) (A) (A)
                 (A) (A) (A) (A) (A) (A) (A) (A) (A) (A) (A) (A)
                 (A) (A) (A) (A) (A) (A) (A) (A) (A) (A) (A) (A)
                 (A) (A) (A) (A) (A) (A) (A) (A) (A) (A) (A) (A)
                 (A) (A) (A) (A) (A) (A) (A) (A) (A) (A) (A) (A)
                 (A) (A) (A) (A) (A) (A) (A) (A) (A) (A) (A) (A)
                 (A) (A) (A) (A) (A) (A) (A) (A) (A) (A) (A) (A)
                 (A) (A) (A) (A) (A) (A) (A) (A) (A) (A) (A) (A)
                 (A) (A) (A) (A)
       Virtual   (A) (A) (A) (A) (A) (A) (A) (A) (A) (A) (A) (A)
                 (A) (A) (A) (A) (A) (A) (A) (A) (A) (A) (A) (A)
                 (A) (A) (A) (A) (A) (A) (A) (A) (A) (A) (A) (A)
                 (A) (A) (A) (A) (A) (A) (A) (A) (A) (A) (A) (A)
                 (A) (A) (A) (A) (A) (A) (A) (A) (A) (A) (A) (A)
                 (A) (A) (A) (A) (A) (A) (A) (A) (A) (A) (A) (A)
                 (A) (A) (A) (A) (A) (A) (A) (A) (A) (A) (A) (A)
                 (A) (A) (A) (A) (A) (A) (A) (A) (A) (A) (A) (A)
                 (A) (A) (A) (A) (A) (A) (A) (A) (A) (A) (A) (A)
                 (A) (A) (A) (A) (A) (A) (A) (A) (A) (A) (A) (A)
                 (A) (A) (A) (A) (A) (A) (A) (A) (A) (A) (A) (A)
                 (A) (A) (A) (A) (A) (A) (A) (A) (A) (A) (A) (A)
                 (A) (A) (A) (A) (A) (A) (A) (A) (A) (A) (A) (A)
                 (A) (A) (A) (A) (A) (A) (A) (A) (A) (A) (A) (A)
                 (A) (A) (A) (A) (A) (A) (A) (A) (A) (A) (A) (A)
                 (A) (A) (A) (A) (A) (A) (A) (A) (A) (A) (A) (A)
                 (A) (A) (A) (A) (A) (A) (A) (A) (A) (A) (A) (A)
                 (A) (A) (A) (A) (A) (A) (A) (A) (A) (A) (A) (A)
                 (A) (A) (A) (A) (A) (A) (A) (A) (A) (A) (A) (A)
                 (A) (A) (A) (A) (A) (A) (A) (A) (A) (A) (A) (A)
                 (A) (A) (A) (A) (A) (A) (A) (A) (A) (A) (A) (A)
                 (A) (A) (A) (A) (A) (A) (A) (A) (A) (A) (A) (A)
                 (A) (A) (A) (A) (A) (A) (A) (A) (A) (A) (A) (A)
                 (A) (A) (A) (A) (A) (A) (A) (A) (A) (A) (A) (A)
                 (A) (A) (A) (A) (A) (A) (A) (A) (A) (A) (A) (A)
                 (A) (A) (A) (A) (A) (A) (A) (A) (A) (A) (A) (A)
                 (A) (A) (A) (A) (A) (A) (A) (A) (A) (A) (A) (A)
                 (A) (A) (A) (A) (A) (A) (A) (A) (A) (A) (A) (A)
                 (A) (A) (A) (A) (A) (A) (A) (A) (A) (A) (A) (A)
                 (A) (A) (A) (A) (A) (A) (A) (A) (A) (A) (A) (A)
                 (A) (A) (A) (A) (A) (A) (A) (A) (A) (A) (A) (A)
                 (A) (A) (A) (A) (A) (A) (A) (A) (A) (A) (A) (A)
                 (A) (A) (A) (A) (A) (A) (A) (A) (A) (A) (A) (A)
                 (A) (A) (A) (A) (A) (A) (A) (A) (A) (A) (A) (A)
                 (A) (A) (A) (A) (A) (A) (A) (A) (A) (A) (A) (A)
                 (A) (A) (A) (A) (A) (A) (A) (A) (A) (A) (A) (A)
                 (A) (A) (A) (A) (A) (A) (A) (A) (A) (A) (A) (A)
                 (A) (A) (A) (A) (A) (A) (A) (A) (A) (A) (A) (A)
                 (A) (A) (A) (A) (A) (A) (A) (A) (A) (A) (A) (A)
                 (A) (A) (A) (A) (A) (A) (A) (A) (A) (A) (A) (A)
                 (A) (A) (A) (A) (A) (A) (A) (A) (A) (A) (A) (A)
                 (A) (A) (A) (A) (A) (A) (A) (A) (A) (A) (A) (A)
                 (A) (A) (A) (A) (A) (A) (A) (A) (A) (A) (A) (A)
                 (A) (A) (A) (A) (A) (A) (A) (A) (A) (A) (A) (A)
                 (A) (A) (A) (A) (A) (A) (A) (A) (A) (A) (A) (A)
                 (A) (A) (A) (A) (A) (A) (A) (A) (A) (A) (A) (A)
 The electronic state is 1-A.
 Alpha  occ. eigenvalues --  -88.99813 -88.97981 -88.92589 -88.92568 -14.39196
 Alpha  occ. eigenvalues --  -14.38849 -14.37595 -14.37223 -14.34420 -10.26657
 Alpha  occ. eigenvalues --  -10.26383 -10.25624 -10.25406 -10.25366 -10.24015
 Alpha  occ. eigenvalues --  -10.23710 -10.23539 -10.23300 -10.23210 -10.23043
 Alpha  occ. eigenvalues --  -10.22534 -10.22143 -10.21269 -10.20945 -10.20880
 Alpha  occ. eigenvalues --  -10.20822 -10.20521 -10.20191 -10.19906 -10.19844
 Alpha  occ. eigenvalues --  -10.19555 -10.19199  -8.05073  -8.03269  -7.98511
 Alpha  occ. eigenvalues --   -7.98410  -6.01642  -6.01047  -6.00833  -5.99839
 Alpha  occ. eigenvalues --   -5.99237  -5.99032  -5.94938  -5.94876  -5.94528
 Alpha  occ. eigenvalues --   -5.94522  -5.94245  -5.94022  -1.03713  -1.01654
 Alpha  occ. eigenvalues --   -0.96036  -0.92972  -0.90965  -0.89448  -0.88103
 Alpha  occ. eigenvalues --   -0.86123  -0.85774  -0.82822  -0.81055  -0.78790
 Alpha  occ. eigenvalues --   -0.77197  -0.76382  -0.75649  -0.74280  -0.73214
 Alpha  occ. eigenvalues --   -0.70759  -0.68654  -0.66350  -0.65082  -0.63458
 Alpha  occ. eigenvalues --   -0.62743  -0.61695  -0.60316  -0.59746  -0.58338
 Alpha  occ. eigenvalues --   -0.56563  -0.55031  -0.53843  -0.53343  -0.52133
 Alpha  occ. eigenvalues --   -0.51262  -0.50418  -0.49847  -0.48839  -0.47430
 Alpha  occ. eigenvalues --   -0.47140  -0.45870  -0.45508  -0.45234  -0.44825
 Alpha  occ. eigenvalues --   -0.44041  -0.42976  -0.42734  -0.42502  -0.41482
 Alpha  occ. eigenvalues --   -0.40760  -0.40525  -0.40219  -0.39250  -0.39168
 Alpha  occ. eigenvalues --   -0.38986  -0.38677  -0.37425  -0.37035  -0.36536
 Alpha  occ. eigenvalues --   -0.35547  -0.35095  -0.35031  -0.34452  -0.33630
 Alpha  occ. eigenvalues --   -0.33440  -0.32134  -0.30859  -0.30589  -0.30238
 Alpha  occ. eigenvalues --   -0.29507  -0.28371  -0.27212  -0.26584  -0.26188
 Alpha  occ. eigenvalues --   -0.25623  -0.24947  -0.22641  -0.20232
 Alpha virt. eigenvalues --   -0.12433  -0.09387  -0.05268  -0.03878  -0.02233
 Alpha virt. eigenvalues --   -0.02221  -0.01853  -0.01808  -0.01578  -0.00838
 Alpha virt. eigenvalues --   -0.00702  -0.00508   0.00138   0.00265   0.00778
 Alpha virt. eigenvalues --    0.01321   0.01458   0.01506   0.01825   0.02067
 Alpha virt. eigenvalues --    0.02585   0.02738   0.03259   0.03526   0.03622
 Alpha virt. eigenvalues --    0.04034   0.04210   0.04610   0.04730   0.05324
 Alpha virt. eigenvalues --    0.05479   0.05819   0.06115   0.06376   0.06564
 Alpha virt. eigenvalues --    0.07031   0.07123   0.07282   0.07510   0.07789
 Alpha virt. eigenvalues --    0.08079   0.09009   0.09162   0.09429   0.09827
 Alpha virt. eigenvalues --    0.10154   0.10347   0.10682   0.10796   0.11061
 Alpha virt. eigenvalues --    0.11181   0.11192   0.11410   0.11737   0.11882
 Alpha virt. eigenvalues --    0.12067   0.12241   0.12462   0.12772   0.12922
 Alpha virt. eigenvalues --    0.12950   0.13256   0.13343   0.13410   0.13593
 Alpha virt. eigenvalues --    0.13700   0.13973   0.14138   0.14382   0.14751
 Alpha virt. eigenvalues --    0.14925   0.15347   0.15422   0.15830   0.15914
 Alpha virt. eigenvalues --    0.16005   0.16219   0.16593   0.16902   0.17014
 Alpha virt. eigenvalues --    0.17517   0.17889   0.18291   0.18520   0.18564
 Alpha virt. eigenvalues --    0.18900   0.19003   0.19239   0.19446   0.19487
 Alpha virt. eigenvalues --    0.19673   0.20031   0.20238   0.20433   0.20534
 Alpha virt. eigenvalues --    0.20876   0.21038   0.21355   0.21714   0.21778
 Alpha virt. eigenvalues --    0.21943   0.22361   0.22405   0.22509   0.22814
 Alpha virt. eigenvalues --    0.22989   0.23175   0.23657   0.24008   0.24195
 Alpha virt. eigenvalues --    0.24424   0.24672   0.25112   0.25252   0.25564
 Alpha virt. eigenvalues --    0.25736   0.26196   0.26285   0.26539   0.26749
 Alpha virt. eigenvalues --    0.26862   0.27087   0.27224   0.27314   0.27581
 Alpha virt. eigenvalues --    0.27691   0.27792   0.27831   0.28164   0.28567
 Alpha virt. eigenvalues --    0.28728   0.29052   0.29422   0.29648   0.30005
 Alpha virt. eigenvalues --    0.30020   0.30375   0.31104   0.31179   0.31665
 Alpha virt. eigenvalues --    0.31987   0.32250   0.32450   0.32745   0.33111
 Alpha virt. eigenvalues --    0.33482   0.33733   0.34016   0.34351   0.34648
 Alpha virt. eigenvalues --    0.34909   0.35474   0.35678   0.35830   0.37119
 Alpha virt. eigenvalues --    0.37223   0.37444   0.37861   0.38184   0.38616
 Alpha virt. eigenvalues --    0.39224   0.39289   0.39826   0.39964   0.40885
 Alpha virt. eigenvalues --    0.41038   0.41726   0.41912   0.42543   0.43120
 Alpha virt. eigenvalues --    0.43798   0.44401   0.44745   0.45620   0.46604
 Alpha virt. eigenvalues --    0.47533   0.47735   0.48629   0.49623   0.50090
 Alpha virt. eigenvalues --    0.50400   0.50950   0.51155   0.51250   0.51838
 Alpha virt. eigenvalues --    0.52726   0.52998   0.53854   0.54571   0.56514
 Alpha virt. eigenvalues --    0.57731   0.58506   0.60253   0.62050   0.62239
 Alpha virt. eigenvalues --    0.62813   0.63734   0.64347   0.64656   0.65072
 Alpha virt. eigenvalues --    0.65187   0.65290   0.65877   0.66348   0.66586
 Alpha virt. eigenvalues --    0.66826   0.67237   0.67513   0.67699   0.68310
 Alpha virt. eigenvalues --    0.68506   0.69104   0.69601   0.69782   0.70128
 Alpha virt. eigenvalues --    0.70504   0.70725   0.71356   0.71598   0.71930
 Alpha virt. eigenvalues --    0.72415   0.72544   0.73174   0.73648   0.73877
 Alpha virt. eigenvalues --    0.74448   0.74659   0.75439   0.75630   0.76261
 Alpha virt. eigenvalues --    0.76510   0.77390   0.77696   0.78347   0.78497
 Alpha virt. eigenvalues --    0.78581   0.79560   0.79906   0.81062   0.81274
 Alpha virt. eigenvalues --    0.81767   0.81818   0.82183   0.82619   0.83351
 Alpha virt. eigenvalues --    0.83838   0.84192   0.84886   0.85094   0.85947
 Alpha virt. eigenvalues --    0.87863   0.88798   0.89895   0.89978   0.90505
 Alpha virt. eigenvalues --    0.91377   0.93513   0.94120   0.95046   0.95616
 Alpha virt. eigenvalues --    0.95706   0.96299   0.97209   0.97436   0.98331
 Alpha virt. eigenvalues --    0.98844   0.99314   0.99676   1.00000   1.00632
 Alpha virt. eigenvalues --    1.00822   1.01336   1.01444   1.02882   1.03588
 Alpha virt. eigenvalues --    1.04076   1.04647   1.05081   1.05484   1.06089
 Alpha virt. eigenvalues --    1.06762   1.07194   1.08092   1.08195   1.08456
 Alpha virt. eigenvalues --    1.09488   1.09554   1.10562   1.11232   1.11775
 Alpha virt. eigenvalues --    1.12444   1.12810   1.13411   1.13656   1.14122
 Alpha virt. eigenvalues --    1.15095   1.15344   1.16095   1.17175   1.17554
 Alpha virt. eigenvalues --    1.18785   1.19578   1.19923   1.20175   1.20686
 Alpha virt. eigenvalues --    1.21110   1.22329   1.22511   1.23689   1.24008
 Alpha virt. eigenvalues --    1.24255   1.24580   1.25245   1.25885   1.26312
 Alpha virt. eigenvalues --    1.27284   1.27486   1.28335   1.28817   1.30081
 Alpha virt. eigenvalues --    1.30375   1.30681   1.30855   1.31924   1.32959
 Alpha virt. eigenvalues --    1.33393   1.34168   1.34412   1.35155   1.35378
 Alpha virt. eigenvalues --    1.35745   1.36718   1.37152   1.37754   1.38398
 Alpha virt. eigenvalues --    1.39241   1.39547   1.40065   1.40610   1.41077
 Alpha virt. eigenvalues --    1.41643   1.42157   1.43456   1.43967   1.45136
 Alpha virt. eigenvalues --    1.45992   1.46649   1.47438   1.48884   1.50345
 Alpha virt. eigenvalues --    1.50858   1.51105   1.52093   1.55187   1.57707
 Alpha virt. eigenvalues --    1.58910   1.60106   1.60895   1.64585   1.65801
 Alpha virt. eigenvalues --    1.67402   1.67954   1.69944   1.70149   1.71291
 Alpha virt. eigenvalues --    1.72139   1.72824   1.74741   1.75186   1.76038
 Alpha virt. eigenvalues --    1.77559   1.77638   1.77986   1.78159   1.80284
 Alpha virt. eigenvalues --    1.81962   1.82794   1.83210   1.83825   1.84080
 Alpha virt. eigenvalues --    1.85324   1.86439   1.87022   1.88202   1.88447
 Alpha virt. eigenvalues --    1.88990   1.90284   1.90771   1.91203   1.92262
 Alpha virt. eigenvalues --    1.92465   1.92657   1.93815   1.96300   1.96464
 Alpha virt. eigenvalues --    1.97265   1.98658   1.98948   1.99499   2.00280
 Alpha virt. eigenvalues --    2.01867   2.02105   2.03326   2.03833   2.03927
 Alpha virt. eigenvalues --    2.05424   2.05869   2.08334   2.08529   2.09952
 Alpha virt. eigenvalues --    2.11611   2.12491   2.14161   2.14556   2.17826
 Alpha virt. eigenvalues --    2.19354   2.22431   2.23788   2.24463   2.26284
 Alpha virt. eigenvalues --    2.26453   2.26766   2.27347   2.27977   2.28814
 Alpha virt. eigenvalues --    2.30274   2.30597   2.30912   2.31813   2.32381
 Alpha virt. eigenvalues --    2.33827   2.35008   2.35849   2.36740   2.37220
 Alpha virt. eigenvalues --    2.38266   2.38814   2.40126   2.40451   2.40973
 Alpha virt. eigenvalues --    2.41186   2.41942   2.42986   2.43272   2.43665
 Alpha virt. eigenvalues --    2.43976   2.45738   2.46303   2.46834   2.47491
 Alpha virt. eigenvalues --    2.48375   2.48736   2.50437   2.51142   2.51926
 Alpha virt. eigenvalues --    2.52347   2.52865   2.54323   2.55044   2.57089
 Alpha virt. eigenvalues --    2.57901   2.58368   2.58908   2.59359   2.59440
 Alpha virt. eigenvalues --    2.60214   2.61274   2.63060   2.63534   2.64904
 Alpha virt. eigenvalues --    2.67207   2.68535   2.69221   2.69576   2.71161
 Alpha virt. eigenvalues --    2.71354   2.71812   2.72390   2.73128   2.75642
 Alpha virt. eigenvalues --    2.76536   2.77344   2.78689   2.79972   2.81696
 Alpha virt. eigenvalues --    2.84027   2.84804   2.85688   2.88090   2.89448
 Alpha virt. eigenvalues --    2.90087   2.93217   2.96654   2.98356   2.99219
 Alpha virt. eigenvalues --    3.00766   3.03702   3.06665   3.07429   3.10525
 Alpha virt. eigenvalues --    3.12847   3.14757   3.17577   3.21080   3.24535
 Alpha virt. eigenvalues --    3.28124   3.30105   3.32188   3.33257   3.38358
 Alpha virt. eigenvalues --    3.40689   3.42655   3.45515   3.49741   3.54732
 Alpha virt. eigenvalues --    3.55805   3.61410   3.66380   3.72519   3.92523
 Alpha virt. eigenvalues --    3.95814   3.97136   3.98013   4.01011   4.16854
 Alpha virt. eigenvalues --    4.17020   4.24115   4.26527   4.28134   4.31044
 Alpha virt. eigenvalues --    4.31309   4.32570   4.33160   4.33771   4.36507
 Alpha virt. eigenvalues --    4.37873   4.39273   4.40730   4.41763   4.45420
 Alpha virt. eigenvalues --    4.48291   4.51350   4.51794   4.54571   4.57485
 Alpha virt. eigenvalues --    4.59700   4.65234   4.70219   4.74554   4.78274
 Alpha virt. eigenvalues --    4.86680   4.95605
          Condensed to atoms (all electrons):
              1          2          3          4          5          6
     1  C    5.783103   0.982761   0.193531  -0.437097   0.139266  -0.305206
     2  C    0.982761   9.576334   1.459215  -0.938393   0.433600  -2.346867
     3  C    0.193531   1.459215  21.365544 -10.648994   2.514002  -3.873319
     4  C   -0.437097  -0.938393 -10.648994  15.120882  -2.232398   1.614511
     5  S    0.139266   0.433600   2.514002  -2.232398  16.730146  -0.484309
     6  C   -0.305206  -2.346867  -3.873319   1.614511  -0.484309  11.087984
     7  C    0.036417  -0.227103  -1.034039   0.895720  -0.561340   0.769082
     8  C   -0.069005  -0.339924  -2.922350   1.247878   0.017054  -2.154438
     9  N   -0.009039   0.001902   0.015637   0.006269   0.007493   0.061299
    10  C   -0.011923   0.001162   0.316731  -0.108956  -0.083049   0.896847
    11  C   -0.001715  -0.003419   0.024144  -0.016681  -0.006622   0.252617
    12  C    0.000479  -0.002129   0.000273  -0.003465  -0.007874   0.071367
    13  C   -0.000008  -0.000170  -0.002514   0.000353  -0.000482  -0.015367
    14  C   -0.000117  -0.000152  -0.001759   0.000525  -0.001072   0.001853
    15  C   -0.000006  -0.000004  -0.000112   0.000025   0.000053  -0.001949
    16  C   -0.000002   0.000001  -0.000008   0.000005  -0.000001   0.000147
    17  C   -0.000000   0.000000  -0.000000   0.000000   0.000000  -0.000027
    18  C   -0.000000  -0.000000  -0.000000   0.000000   0.000000  -0.000004
    19  C    0.000000  -0.000000  -0.000000   0.000000  -0.000000   0.000013
    20  C    0.000003  -0.000002  -0.000015  -0.000000   0.000007  -0.000553
    21  C    0.000192  -0.000190  -0.001944   0.000196   0.001777  -0.018227
    22  N    0.000002   0.000007   0.000035  -0.000003  -0.000012   0.000081
    23  S    0.000071   0.000025  -0.000052  -0.000032   0.000333  -0.000379
    24  N   -0.000180   0.000059  -0.001408   0.000589   0.001372   0.004934
    25  C    0.002129   0.001800   0.007643  -0.004435  -0.000120  -0.077897
    26  C    0.016003   0.011927   0.249555  -0.204010   0.110263  -0.095822
    27  N   -0.000018  -0.001245  -0.025934   0.015214   0.009199  -0.104805
    28  S    0.000882  -0.001669   0.011550  -0.025785   0.025632   0.004710
    29  N    0.005344  -0.013108  -0.017698   0.002117   0.070231  -0.155133
    30  C   -0.020232  -0.074656  -0.922543   0.404494  -0.214852  -0.832735
    31  C   -0.355226  -2.477712   0.753346   0.197891  -0.558106   1.698635
    32  S   -0.016366   0.000871  -0.778591   0.674973  -0.069487   0.063954
    33  H    0.326314  -0.008329   0.044586  -0.034779   0.006206  -0.020722
    34  H   -0.083431   0.180723   0.073817  -0.039109  -0.010148   0.056875
    35  H   -0.015785  -0.128748  -0.277179   0.562575  -0.086189   0.108674
    36  H    0.014094   0.005619   0.101634  -0.063967  -0.003969  -0.106547
    37  H   -0.000061   0.000087   0.001910  -0.000837  -0.002018   0.006866
    38  H    0.000005   0.000002   0.000001  -0.000008   0.000172  -0.000515
    39  H   -0.000000  -0.000000  -0.000001   0.000001  -0.000005   0.000009
    40  H    0.000000   0.000000   0.000000  -0.000000   0.000000  -0.000000
    41  H   -0.000000  -0.000000  -0.000000   0.000000   0.000000  -0.000000
    42  H   -0.000000  -0.000000   0.000000  -0.000000  -0.000000   0.000000
    43  H    0.000000  -0.000000  -0.000003   0.000000   0.000001  -0.000043
              7          8          9         10         11         12
     1  C    0.036417  -0.069005  -0.009039  -0.011923  -0.001715   0.000479
     2  C   -0.227103  -0.339924   0.001902   0.001162  -0.003419  -0.002129
     3  C   -1.034039  -2.922350   0.015637   0.316731   0.024144   0.000273
     4  C    0.895720   1.247878   0.006269  -0.108956  -0.016681  -0.003465
     5  S   -0.561340   0.017054   0.007493  -0.083049  -0.006622  -0.007874
     6  C    0.769082  -2.154438   0.061299   0.896847   0.252617   0.071367
     7  C   14.099510  -7.722357   0.129079   0.454862   1.332518   0.544146
     8  C   -7.722357  21.244044  -0.313248  -3.729998  -2.117565  -0.927945
     9  N    0.129079  -0.313248   7.131126   0.357975  -0.215864   0.101266
    10  C    0.454862  -3.729998   0.357975  13.677057   4.285639  -1.974569
    11  C    1.332518  -2.117565  -0.215864   4.285639  17.481111  -1.699483
    12  C    0.544146  -0.927945   0.101266  -1.974569  -1.699483   9.791865
    13  C    0.240162  -0.076465   0.008312  -1.172356  -2.046033   1.778009
    14  C    0.221654  -0.429741   0.019042   0.525853   1.986576  -2.202925
    15  C    0.009375  -0.034927  -0.007435   0.047806  -0.359673  -1.353227
    16  C    0.004847  -0.007306  -0.014993   0.345476   1.875829   0.878417
    17  C    0.000495   0.000354  -0.000484   0.017733  -0.210043   0.014382
    18  C    0.000056   0.000050  -0.000002   0.003207  -0.021563   0.012355
    19  C    0.000094  -0.001765   0.000575  -0.023309  -0.016754  -0.016630
    20  C    0.003304   0.000547   0.014626  -0.303913  -2.349768  -0.466057
    21  C   -0.149164   0.228971   0.032135  -1.389756  -5.965423   0.850892
    22  N   -0.001854   0.023168  -0.009456  -0.031643   0.040498  -0.037905
    23  S   -0.027753   0.004159  -0.035755  -0.002321  -0.338932   0.094585
    24  N   -0.109291   0.093780   0.049156  -0.051511   0.013731  -0.021525
    25  C   -0.060658   0.918470   0.073182  -3.579881  -4.257093   1.559733
    26  C   -2.043323   2.154363  -0.101124  -1.115164  -1.162609  -0.748520
    27  N   -0.025742   0.074156   0.018266  -0.055080   0.129754  -0.007063
    28  S   -0.123665   0.036486   0.002604  -0.069813  -0.077180   0.096904
    29  N   -0.026129   0.097190  -0.009692   0.024595   0.017989  -0.100945
    30  C   -1.185572   2.902047  -0.127291  -1.687203  -0.697974   0.250656
    31  C    0.712765  -3.113591   0.041714   0.630634   0.145467  -0.006951
    32  S   -0.120110   0.568431  -0.046782  -0.243126  -0.040241  -0.006160
    33  H   -0.000344  -0.000534  -0.000042  -0.000029  -0.000103   0.000019
    34  H   -0.005247   0.004857  -0.000019  -0.000252   0.000033  -0.000010
    35  H    0.020620   0.024341   0.000123  -0.002346  -0.000293  -0.000081
    36  H   -0.353061   0.481581  -0.146065   0.089733  -0.003328   0.001046
    37  H    0.030427  -0.073420  -0.009723  -0.117262  -0.153148   0.302052
    38  H   -0.008896   0.023784   0.003509   0.008743  -0.022034   0.262640
    39  H    0.000267  -0.001945  -0.000610   0.005641   0.039958  -0.023930
    40  H   -0.000009   0.000029   0.000008  -0.000122  -0.001851   0.000709
    41  H    0.000001   0.000000  -0.000000   0.000082  -0.000613  -0.000057
    42  H   -0.000007  -0.000026  -0.000019  -0.000021   0.001998   0.001129
    43  H    0.000298   0.000474   0.000682  -0.002231  -0.038425  -0.004551
             13         14         15         16         17         18
     1  C   -0.000008  -0.000117  -0.000006  -0.000002  -0.000000  -0.000000
     2  C   -0.000170  -0.000152  -0.000004   0.000001   0.000000  -0.000000
     3  C   -0.002514  -0.001759  -0.000112  -0.000008  -0.000000  -0.000000
     4  C    0.000353   0.000525   0.000025   0.000005   0.000000   0.000000
     5  S   -0.000482  -0.001072   0.000053  -0.000001   0.000000   0.000000
     6  C   -0.015367   0.001853  -0.001949   0.000147  -0.000027  -0.000004
     7  C    0.240162   0.221654   0.009375   0.004847   0.000495   0.000056
     8  C   -0.076465  -0.429741  -0.034927  -0.007306   0.000354   0.000050
     9  N    0.008312   0.019042  -0.007435  -0.014993  -0.000484  -0.000002
    10  C   -1.172356   0.525853   0.047806   0.345476   0.017733   0.003207
    11  C   -2.046033   1.986576  -0.359673   1.875829  -0.210043  -0.021563
    12  C    1.778009  -2.202925  -1.353227   0.878417   0.014382   0.012355
    13  C   10.739264  -0.669931  -1.600023   1.829809  -1.132478  -0.204546
    14  C   -0.669931  11.475097   2.982778   0.309471  -0.766944  -0.305096
    15  C   -1.600023   2.982778  11.560647  -0.714924  -0.801650  -0.734337
    16  C    1.829809   0.309471  -0.714924  16.072563  -2.336329  -0.753020
    17  C   -1.132478  -0.766944  -0.801650  -2.336329   8.809270   1.474173
    18  C   -0.204546  -0.305096  -0.734337  -0.753020   1.474173   5.613655
    19  C    0.408091   0.259795  -1.081070   1.430843  -1.947966   0.674533
    20  C   -2.698084  -2.386360  -0.852936  -7.913930   2.734620   0.102256
    21  C    0.199790  -3.486866  -1.625152  -4.164425   0.290488   0.026522
    22  N   -0.037736  -0.126924  -0.062665  -0.085458   0.008074  -0.004961
    23  S    0.004216  -0.110868  -0.098271  -0.052020  -0.000976   0.003910
    24  N   -0.057980  -0.130620  -0.098222  -0.038858   0.003393   0.000865
    25  C    1.160837  -1.318719  -0.067971  -0.448620  -0.012929  -0.010644
    26  C   -0.199126  -0.212087   0.024122  -0.012148   0.002484   0.000673
    27  N   -0.132362  -0.028529  -0.004566   0.008846   0.000429  -0.000025
    28  S   -0.000147  -0.012443   0.000169  -0.002552  -0.000026  -0.000007
    29  N   -0.029427  -0.004910  -0.000635   0.000634   0.000015   0.000002
    30  C    0.126671  -0.064758   0.012226  -0.014494  -0.000257  -0.000076
    31  C   -0.003007   0.000559  -0.000356   0.000108   0.000002  -0.000000
    32  S    0.001162  -0.002512  -0.000101  -0.000049   0.000000   0.000000
    33  H   -0.000001  -0.000005  -0.000000  -0.000000  -0.000000  -0.000000
    34  H    0.000002   0.000000   0.000000   0.000000   0.000000   0.000000
    35  H    0.000000   0.000005   0.000000   0.000000  -0.000000   0.000000
    36  H   -0.006023   0.003250   0.000596   0.000185  -0.000008  -0.000007
    37  H    0.001379   0.110183   0.085404  -0.048461  -0.003310  -0.001864
    38  H    0.597744  -0.335680  -0.288224   0.016084   0.013799  -0.007145
    39  H   -0.037234  -0.141763  -0.225648   0.509410   0.098898   0.095641
    40  H   -0.007223   0.014436   0.041839  -0.097502   0.367987  -0.056012
    41  H   -0.009957  -0.005713   0.009546  -0.029248   0.001624   0.332732
    42  H    0.005769   0.008931   0.015459   0.038727  -0.014955  -0.044548
    43  H   -0.032019  -0.083659  -0.178713  -0.053683   0.035221   0.038051
             19         20         21         22         23         24
     1  C    0.000000   0.000003   0.000192   0.000002   0.000071  -0.000180
     2  C   -0.000000  -0.000002  -0.000190   0.000007   0.000025   0.000059
     3  C   -0.000000  -0.000015  -0.001944   0.000035  -0.000052  -0.001408
     4  C    0.000000  -0.000000   0.000196  -0.000003  -0.000032   0.000589
     5  S   -0.000000   0.000007   0.001777  -0.000012   0.000333   0.001372
     6  C    0.000013  -0.000553  -0.018227   0.000081  -0.000379   0.004934
     7  C    0.000094   0.003304  -0.149164  -0.001854  -0.027753  -0.109291
     8  C   -0.001765   0.000547   0.228971   0.023168   0.004159   0.093780
     9  N    0.000575   0.014626   0.032135  -0.009456  -0.035755   0.049156
[...]
 76,0.00002353,-0.00026687,0.00003969,0.00006607,0.00001313,-0.00005624
 ,-0.00001882,-0.00006904,0.00003589,0.00003483,0.00001138,0.00001465,0
 .00000586,-0.00000910,0.00001426,0.00001272,0.00000203,-0.00002779,-0.
 00000593,-0.00001724,0.00002332,-0.00000346,-0.00000115,0.00000260,-0.
 00000213,0.00002181,0.00000766,0.00001268,-0.00000882,-0.00000841,-0.0
 0000563,-0.00000092,0.00000095,0.00000002,-0.00000039,0.00000124,0.000
 00027,-0.00000058,-0.00000020,-0.00000072,-0.00000400,0.00000223,-0.00
 000126,0.00002899,-0.00003596,-0.00001143,-0.00055420,-0.00091472,-0.0
 0027522,-0.04961187,-0.15130195,0.18157900,-0.00000135,-0.00000559,-0.
 00000229,0.00000117,0.00000041,-0.00000010,0.00001031,0.00001236,0.000
 00766,-0.00001527,0.00001922,-0.00000258,-0.00000361,-0.00001604,-0.00
 000449,-0.00002807,0.00002159,-0.00000990,0.00001034,-0.00004103,-0.00
 000222,0.00002647,0.00002710,0.00002466,-0.00003210,0.00001364,-0.0000
 1693,0.00003931,-0.00011800,-0.00001608,-0.00004899,0.00007829,0.00004
 345,0.00005081,-0.00006493,-0.00002171,-0.00006800,0.00008891,-0.00009
 975,-0.00016311,-0.00044974,0.00065640,0.00364887,0.00444789,0.0022072
 6,-0.00570289,0.00005969,0.01116091,-0.16480411,0.03123325,0.14524863,
 -0.00043082,0.00193186,0.00337560,0.00472388,0.00022320,0.00289903,-0.
 00026687,-0.00000014,-0.00078219,0.00000154,0.00022643,-0.00004138,-0.
 00000211,-0.00003856,-0.00001391,-0.00004937,-0.00001840,0.00002774,-0
 .00000884,0.00004723,0.00000136,-0.00006648,-0.00000517,-0.00001965,0.
 00001137,0.00003018,0.00000736,-0.00001347,-0.00000325,-0.00000288,0.0
 0001449,-0.00000675,0.00000673,-0.00001448,0.00002123,-0.00000443,-0.0
 0000944,0.00000696,-0.00000502,0.00003492,0.00001121,0.00001587,-0.000
 01286,-0.00001341,-0.00000850,-0.00000136,0.00000122,0.00000040,-0.000
 00077,0.00000152,0.00000054,-0.00000083,-0.00000059,-0.00000037,-0.000
 00562,0.00000227,0.00000007,0.00000044,0.00001467,0.00000351,0.0000398
 4,-0.00004507,0.00000340,-0.00187713,-0.00116012,-0.00222353,0.1674023
 4,-0.00000045,0.00000243,0.00000097,0.00000013,-0.00000036,0.00000003,
 -0.00000597,-0.00000772,-0.00000565,0.00000957,-0.00001093,0.00000283,
 0.00000193,0.00000808,0.00000145,0.00001487,-0.00001255,0.00000681,-0.
 00000242,0.00002109,-0.00000028,-0.00001533,-0.00001711,-0.00001060,0.
 00000674,-0.00000954,0.00000775,-0.00001549,0.00006183,0.00000526,0.00
 001629,-0.00003337,-0.00002213,-0.00001007,0.00000213,0.00002708,0.000
 03595,-0.00002107,0.00002069,0.00089772,0.00038192,-0.00084012,0.00351
 714,-0.00369399,0.00147469,0.01848350,0.00027009,-0.02204681,0.0307991
 6,-0.06179585,-0.02422942,-0.01625186,0.00766153,0.01798731,0.00100025
 ,-0.00268914,0.00423067,-0.00009235,-0.00114596,0.00029191,0.00001736,
 -0.00044076,-0.00001788,-0.00002870,0.00002198,-0.00001770,0.00000680,
 0.00001150,-0.00000566,0.00005247,-0.00006286,-0.00000431,0.00009832,0
 .00006300,0.00001034,-0.00000120,-0.00001216,-0.00000264,0.00000157,0.
 00000656,0.00000182,-0.00000642,-0.00000480,-0.00000639,0.00000594,-0.
 00001331,0.00000332,0.00000659,-0.00000510,0.00000056,-0.00001842,-0.0
 0000423,-0.00000724,0.00000646,0.00000690,0.00000355,0.00000061,-0.000
 00037,-0.00000017,0.00000037,-0.00000061,-0.00000028,0.00000055,0.0000
 0035,0.00000008,0.00000313,-0.00000117,-0.00000038,0.00000388,-0.00002
 001,-0.00000154,-0.00001228,-0.00002159,-0.00003743,-0.00148877,0.0004
 1428,-0.00073088,-0.03508533,0.06044092,-0.00000135,0.00000488,0.00000
 091,-0.00000009,-0.00000121,-0.00000049,-0.00000717,-0.00001034,-0.000
 00694,0.00001219,-0.00001406,0.00000266,0.00000204,0.00001114,0.000002
 25,0.00001894,-0.00001582,0.00000867,-0.00000570,0.00002985,0.00000006
 ,-0.00001833,-0.00002228,-0.00001439,0.00000246,-0.00000746,0.00000503
 ,-0.00000472,0.00006062,0.00000958,0.00001345,-0.00002274,-0.00000117,
 0.00001079,0.00000811,0.00001135,0.00000699,-0.00006429,-0.00007454,0.
 00013429,0.00016750,0.00012576,0.00217413,0.00110379,0.00386337,0.0009
 9284,0.00106926,0.00112588,0.14558031,-0.02392883,-0.20764692,0.013323
 94,-0.00550156,-0.01062561,0.00259204,0.00490656,0.00091114,-0.0007600
 9,0.00035391,-0.00004789,-0.00003036,-0.00009357,-0.00006889,0.0000164
 9,-0.00001171,0.00000736,-0.00004231,0.00002964,0.00001219,0.00002959,
 -0.00004992,0.00000153,0.00001823,0.00001384,-0.00001883,-0.00000475,-
 0.00001128,-0.00000486,0.00000352,0.00000584,-0.00000097,-0.00000685,-
 0.00000106,-0.00000388,0.00000827,-0.00001737,0.00000405,0.00000883,-0
 .00000646,0.00000157,-0.00002310,-0.00000547,-0.00000863,0.00000861,0.
 00000850,0.00000504,0.00000070,-0.00000045,0.,0.00000034,-0.00000110,-
 0.00000023,0.00000064,0.00000044,0.00000038,0.00000335,-0.00000066,0.0
 0000043,0.00000451,-0.00001150,0.00000452,0.00004260,-0.00001783,-0.00
 002050,-0.00209819,-0.00121733,-0.00079181,-0.16020097,0.02458214,0.21
 492117,-0.00000011,-0.00000249,-0.00000203,-0.00000018,0.00000009,0.00
 000157,0.00000416,0.00000589,0.00000135,-0.00000588,0.00000784,-0.0000
 0073,-0.00000143,-0.00000764,-0.00000148,-0.00001275,0.00000965,-0.000
 00424,0.00000781,-0.00001873,-0.00000162,0.00001280,0.00001183,0.00000
 537,-0.00000271,0.00000226,-0.00000386,0.00000333,-0.00002252,-0.00000
 649,0.00006531,0.00003709,-0.00001913,-0.00008749,0.00007682,0.0000507
 7,0.00010393,-0.00011762,-0.00010055,-0.00044342,-0.00042388,-0.000530
 25,-0.00060907,-0.00055575,0.00000729,0.00416992,0.00020524,0.00367130
 ,0.00628305,-0.00637962,-0.00032760,-0.10855988,0.12063753,0.02180453,
 -0.00545447,0.01912990,0.00012207,0.00156135,0.00099707,0.00636260,-0.
 00012986,0.00004508,0.00007862,0.00001578,0.00005087,-0.00008406,-0.00
 000177,-0.00000138,0.00000314,0.00000600,0.00006065,-0.00001421,-0.000
 03934,-0.00008740,0.00007247,0.00000392,0.00000913,0.00000232,-0.00000
 367,0.00000187,0.00000110,0.00000447,-0.00000839,0.00000003,-0.0000054
 4,0.00000941,-0.00000272,-0.00000757,0.00000112,0.00000095,0.00001510,
 0.00000411,0.00000839,-0.00000618,-0.00000580,-0.00000302,-0.00000057,
 0.00000064,0.00000004,-0.00000012,0.00000086,0.,-0.00000025,-0.0000002
 8,-0.00000034,-0.00000225,0.00000061,-0.00000037,-0.00000086,-0.000000
 84,-0.00000988,-0.00000640,-0.00001088,0.00003169,0.00024076,-0.000268
 63,0.00006674,-0.00177718,-0.00087718,-0.00215857,0.10657259,-0.000001
 20,0.00000705,0.00000097,-0.00000107,-0.00000159,-0.00000036,-0.000009
 49,-0.00001247,-0.00000636,0.00001469,-0.00001780,0.00000256,0.0000023
 7,0.00001465,0.00000364,0.00002610,-0.00001760,0.00000652,-0.00001112,
 0.00003617,0.00000445,-0.00002447,-0.00002337,-0.00002033,0.00001985,-
 0.00001414,0.00000749,-0.00001906,0.00009672,0.00001950,0.00006830,-0.
 00002804,-0.00003323,-0.00005997,0.00008376,0.00000604,0.00002986,-0.0
 0013545,-0.00005155,-0.00024741,-0.00007279,-0.00024523,-0.00068083,0.
 00034187,0.00017647,-0.00032341,-0.00084487,0.00495432,0.01210368,-0.0
 1549576,-0.00466129,0.12074431,-0.27306510,-0.01756224,0.00036720,-0.0
 0009665,0.00138567,0.00165779,0.00227558,0.00057668,-0.00004525,0.0000
 2678,0.00000358,0.00007670,-0.00000038,-0.00000251,-0.00003293,0.00002
 391,0.00001277,0.00002468,-0.00005713,-0.00001399,0.00002674,-0.000034
 94,0.00003357,-0.00001276,-0.00002210,-0.00000448,0.00001153,0.0000037
 8,-0.00000212,-0.00001156,0.00000492,-0.00000311,0.00001450,-0.0000219
 8,0.00000266,0.00000923,-0.00000799,0.00000347,-0.00002842,-0.00000881
 ,-0.00001499,0.00001152,0.00001112,0.00000770,0.00000102,-0.00000081,0
 .00000011,0.00000049,-0.00000162,-0.00000024,0.00000080,0.00000043,0.0
 0000073,0.00000467,-0.00000104,0.00000070,-0.00000152,-0.00000751,-0.0
 0000095,0.00003270,0.00003271,0.00003701,0.00062417,-0.00083330,-0.000
 22746,-0.00133680,0.00041177,-0.00078781,-0.13205687,0.28731839,-0.000
 00050,0.00000171,-0.00000081,-0.00000034,-0.00000096,0.00000054,-0.000
 00149,-0.00000231,-0.00000222,0.00000304,-0.00000354,0.00000056,0.0000
 0009,0.00000210,0.00000089,0.00000384,-0.00000213,0.00000056,0.0000002
 9,0.00000474,-0.00000074,-0.00000420,-0.00000272,-0.00000667,0.0000041
 4,-0.00000469,0.00000277,-0.00001123,0.00002319,0.00000798,0.00005254,
 0.00001950,-0.00001986,-0.00009884,0.00004121,0.00003026,0.00012879,-0
 .00011668,-0.00001915,-0.00052590,-0.00032186,-0.00028441,0.00016364,0
 .00038628,-0.00123273,0.00391658,0.00411403,-0.00007721,-0.01048787,0.
 01846779,0.00598804,0.02189130,-0.01765323,-0.05393754,0.01029906,-0.0
 2150920,0.00254458,0.00591520,0.00116829,-0.00078687,-0.00002247,0.000
 13225,0.00003405,0.00014105,-0.00002231,0.00001114,-0.00009863,0.00001
 420,0.00004470,0.00002441,-0.00005119,-0.00002942,-0.00001157,-0.00003
 609,0.00003597,-0.00000159,-0.00000363,-0.00000324,0.00000180,0.000003
 94,0.00000084,-0.00000263,-0.00000367,-0.00000133,0.00000278,-0.000003
 69,-0.00000050,-0.00000045,-0.00000370,0.00000306,-0.00000396,-0.00000
 091,-0.00000105,0.00000146,0.00000170,0.00000166,0.00000007,-0.0000000
 3,0.00000016,0.00000002,-0.00000026,0.00000003,0.00000013,0.00000006,0
 .00000021,0.00000067,0.00000008,0.00000031,-0.00000007,-0.00000763,-0.
 00000774,-0.00003838,-0.00003484,0.00002085,-0.00045286,0.00101384,0.0
 0016137,-0.00195237,-0.00133547,-0.00069300,-0.02698112,0.01739238,0.0
 4890382,-0.00000194,0.00000124,0.00000056,0.00000062,-0.00000071,-0.00
 000144,-0.00000182,-0.00000159,0.00000172,0.00000241,-0.00000180,-0.00
 000077,-0.00000095,0.00000073,0.00000003,-0.00000042,0.00000064,0.0000
 0110,-0.00000295,-0.00000327,0.00000178,-0.00000382,0.00000720,0.00000
 151,0.00000272,-0.00000479,-0.00000228,-0.00000655,0.00000795,-0.00000
 870,0.00003909,0.00000592,-0.00001274,-0.00001274,0.00008252,0.0000623
 3,-0.00017277,0.00014149,-0.00004556,0.00042114,0.00051504,-0.00042511
 ,0.00277444,0.00429599,0.00311706,-0.00101678,0.00039346,0.00005334,0.
 00105558,0.00300710,0.00567442,-0.00005438,-0.01669005,0.01336230,-0.0
 5770930,-0.03452784,0.04514907,0.00633827,0.01163966,-0.01035829,0.000
 10678,0.00002334,-0.00003995,-0.00007312,-0.00004521,0.00000164,-0.000
 06238,0.00005085,0.00000401,-0.00001011,0.00000201,0.00001045,-0.00001
 067,-0.00002037,0.00001246,-0.00000345,-0.00000073,0.00000326,0.000001
 53,0.00000593,0.00000021,-0.00000245,-0.00000509,-0.00000042,0.0000008
 0,-0.00000071,0.00000007,0.00000301,-0.00000123,-0.00000422,0.00000185
 ,0.00000085,-0.00000119,0.00000072,-0.00000022,-0.00000020,-0.00000002
 ,0.00000028,0.,-0.00000001,-0.00000011,0.,0.00000006,0.,0.00000017,-0.
 00000008,0.00000076,0.00000055,-0.00000674,0.00001845,0.00000691,-0.00
 002057,0.00001075,-0.00002126,-0.00051192,-0.00030864,-0.00049927,-0.0
 0002995,-0.00081734,0.00077517,-0.00160701,-0.00093138,-0.00230146,0.0
 5225804,0.00000051,0.00000693,0.00000113,-0.00000009,-0.00000101,-0.00
 000119,-0.00001306,-0.00001616,-0.00000905,0.00002037,-0.00002365,0.00
 000277,0.00000317,0.00001870,0.00000518,0.00003375,-0.00002519,0.00000
 979,-0.00001215,0.00004710,0.00000395,-0.00003065,-0.00003145,-0.00002
 670,0.00003385,-0.00001873,0.00000698,-0.00003151,0.00014032,0.0000305
 5,0.00005110,-0.00009464,-0.00001889,-0.00012782,0.00001700,-0.0000461
 2,0.00026454,-0.00033869,-0.00007406,-0.00074073,-0.00027297,0.0010338
 4,0.00486781,-0.00249896,-0.00044103,0.00040635,-0.00018856,-0.0008222
 6,0.00231411,0.00190591,0.00004380,0.00191091,0.00700125,-0.00445309,-
 0.03424327,-0.20686214,0.13788419,-0.00671392,-0.01577346,0.01926782,-
 0.00010235,-0.00005442,-0.00001458,-0.00003294,0.00007544,-0.00003550,
 0.00009086,0.00001392,-0.00001444,0.00001133,-0.00004458,-0.00000680,0
 .00004710,-0.00000627,-0.00001121,-0.00001670,-0.00002914,-0.00000235,
 0.00001534,0.00000895,-0.00000699,-0.00001733,0.00000043,-0.00000418,0
 .00001615,-0.00002612,0.00000404,0.00001521,-0.00000968,0.00000488,-0.
 00003984,-0.00001071,-0.00001740,0.00001470,0.00001510,0.00000956,0.00
 000101,-0.00000125,0.00000056,0.00000040,-0.00000188,0.00000029,0.0000
 0065,0.00000061,0.00000125,0.00000575,-0.00000265,0.00000153,0.0000177
 5,-0.00003746,0.00000736,-0.00001403,0.00002335,0.00002341,-0.00033485
 ,-0.00012079,-0.00012586,0.00018848,0.00023453,-0.00025568,-0.00139624
 ,0.00025261,-0.00061918,0.03466355,0.21629643,-0.00000107,-0.00000372,
 0.00000014,0.00000124,0.00000038,-0.00000088,0.00000373,0.00000559,0.0
 0000596,-0.00000632,0.00000864,-0.00000140,-0.00000245,-0.00000796,-0.
 00000282,-0.00001552,0.00001234,-0.00000351,0.00000424,-0.00002654,-0.
 00000088,0.00001072,0.00002200,0.00001296,-0.00000354,-0.00000107,-0.0
 0000713,0.00000286,-0.00003647,-0.00001253,0.00002443,0.00002261,0.000
 01127,-0.00006425,0.00002243,0.00000757,-0.00002965,-0.00002329,-0.000
 10150,0.00010452,-0.00011931,0.00023958,0.00316964,-0.00000994,0.00344
 641,-0.00005122,-0.00084490,-0.00015880,0.00596015,-0.00058197,-0.0000
 8827,0.00262160,0.01839351,-0.01037386,0.04522945,0.13783301,-0.170395
 51,0.00003387,-0.00348310,0.00539720,0.00001597,0.00004004,-0.00003461
 ,-0.00008679,0.00000058,-0.00003818,-0.00000837,0.00002094,-0.00000616
 ,-0.00001611,0.00004331,0.00001358,-0.00001671,-0.00001689,0.00000451,
 0.00000271,0.00001178,0.00000678,-0.00000571,0.00000280,0.00000020,0.0
 0000508,-0.00000829,0.00000015,-0.00000767,0.00001055,-0.00000052,-0.0
 0000189,0.00000232,-0.00000482,0.00001879,0.00000634,0.00000611,-0.000
 00639,-0.00000633,-0.00000478,-0.00000056,0.00000078,-0.00000016,-0.00
 000026,0.00000093,0.00000010,-0.00000035,-0.00000022,-0.00000042,-0.00
 000264,0.00000102,0.00000005,0.00000405,0.00000099,0.00000904,-0.00003
 036,-0.00000191,-0.00000692,-0.00051134,-0.00013380,-0.00036146,0.0002
 0508,0.00095320,-0.00057970,-0.00203946,-0.00114088,-0.00070242,-0.052
 32601,-0.15013403,0.17472515,-0.00000286,0.00000635,-0.00000103,-0.000
 00074,-0.00000300,0.00000089,-0.00000502,-0.00000888,-0.00000799,0.000
 01085,-0.00001286,0.00000226,0.00000051,0.00000847,0.00000223,0.000013
 69,-0.00000879,0.00000500,-0.00000203,0.00001895,-0.00000177,-0.000020
 63,-0.00000757,-0.00001468,0.00001060,-0.00000913,0.00000256,-0.000035
 78,0.00006966,-0.00001621,0.00012119,0.00004593,-0.00006226,-0.0001913
 7,0.00008730,0.00018374,-0.00003433,-0.00060600,0.00005976,-0.00197895
 ,-0.00014225,-0.00154391,0.00013130,0.00114329,0.00278333,0.00400700,0
 .00052810,0.00240162,-0.00016056,-0.00015902,-0.00076128,0.00355785,0.
 00402099,0.00212683,-0.00487274,0.00047907,0.01037062,-0.17353397,0.02
 902590,0.15281620,0.00054031,0.00084987,-0.00057344,-0.00226397,0.0014
 0029,-0.00039987,-0.00074630,0.00044696,0.00017988,-0.00003107,-0.0003
 1203,-0.00003053,0.00021033,-0.00012939,0.00020845,-0.00000142,-0.0000
 1359,-0.00000221,0.00000879,0.00001388,-0.00001094,-0.00001147,-0.0000
 1734,-0.00000253,0.00000920,-0.00001575,-0.00000100,-0.00000076,-0.000
 01096,0.00000721,-0.00001651,-0.00000444,-0.00000482,0.00000670,0.0000
 0666,0.00000519,0.00000058,-0.00000032,0.00000021,0.00000015,-0.000001
 10,-0.00000025,0.00000054,0.00000025,0.00000073,0.00000295,0.00000078,
 0.00000108,-0.00000201,-0.00001484,0.00000013,-0.00001783,-0.00001532,
 -0.00003360,0.00010231,0.00016660,0.00020222,-0.00058104,-0.00025774,-
 0.00042271,-0.00030444,-0.00003738,0.00044702,-0.00168417,-0.00112728,
 -0.00218348,0.17776513,0.00000141,-0.00000779,-0.00000213,0.00000076,0
 .00000177,0.00000093,0.00001040,0.00001384,0.00000808,-0.00001625,0.00
 002030,-0.00000223,-0.00000341,-0.00001735,-0.00000502,-0.00003190,0.0
 0002274,-0.00000711,0.00001629,-0.00004397,0.00000063,0.00003590,0.000
 02494,0.00001753,0.00000446,0.00001879,-0.00001798,0.00000379,-0.00006
 083,-0.00003615,0.00014728,0.00003666,-0.00002995,-0.00013580,0.000202
 51,0.00013772,-0.00002610,-0.00054664,-0.00003727,-0.00155049,0.001127
 48,-0.00069898,-0.01586826,0.00675766,0.01756346,0.00099865,-0.0027629
 7,0.00422607,-0.00012698,-0.00109364,0.00024462,0.00394626,-0.00382928
 ,0.00157930,0.01898748,0.00072890,-0.02139648,0.02939453,-0.06226438,-
 0.02416986,-0.00003948,-0.00096324,0.00060300,0.00109918,-0.00052973,-
 0.00002493,0.00037806,-0.00003775,-0.00017881,-0.00001817,0.00033373,0
 .00007180,-0.00018110,-0.00034336,0.00008614,0.00000256,0.00001962,0.0
 0000990,-0.00000332,0.00000232,-0.00000513,0.00000947,-0.00001228,0.00
 000387,-0.00001663,0.00002963,-0.00000308,-0.00001194,0.00000731,-0.00
 000036,0.00003595,0.00001100,0.00001456,-0.00001435,-0.00001374,-0.000
 00787,-0.00000134,0.00000127,-0.00000006,-0.00000058,0.00000202,0.0000
 0041,-0.00000086,-0.00000039,-0.00000103,-0.00000628,0.00000114,-0.000
 00072,0.00000595,0.00000453,-0.00000568,0.00005058,0.00005943,0.000000
 11,-0.00079341,0.00023596,0.00109283,-0.00029989,0.00000367,-0.0002782
 3,0.00093659,-0.00011896,-0.00104740,-0.00151463,0.00043196,-0.0008354
 6,-0.03540436,0.06254711,-0.00000394,0.00000765,0.00000031,-0.00000048
 ,-0.00000372,-0.00000007,-0.00000665,-0.00001062,-0.00000788,0.0000125
 4,-0.00001555,0.00000229,0.00000131,0.00001081,0.00000358,0.00002052,-
 0.00001421,0.00000209,-0.00000724,0.00002946,0.00000027,-0.00003281,-0
 .00001232,-0.00001399,-0.00001482,-0.00001615,0.00001634,-0.00001512,0
 .00004052,-0.00000360,0.00004006,0.00010033,-0.00001757,-0.00010257,-0
 .00003215,0.00016074,0.00004440,-0.00014948,0.00014678,-0.00167542,-0.
 00136234,-0.00088531,0.01375961,-0.00464219,-0.01072623,0.00247462,0.0
 0492019,0.00109632,-0.00077755,0.00012768,-0.00008618,0.00272633,0.001
 12938,0.00376847,0.00065569,0.00142393,0.00228348,0.14966524,-0.023091
 22,-0.20761085,0.00021174,0.00125366,-0.00026331,0.00113053,-0.0002953
 3,0.00045920,-0.00069951,-0.00007697,0.00050628,0.00016901,-0.00077530
 ,-0.00022156,0.00009048,0.00005579,0.00007493,0.00000075,-0.00001274,-
 0.00000498,0.00000244,0.00000742,-0.00000461,-0.00000862,-0.00000553,-
 0.00000409,0.00001161,-0.00002272,0.00000071,0.00000471,-0.00001076,0.
 00000237,-0.00002212,-0.00000596,-0.00000625,0.00000968,0.00000914,0.0
 0000507,0.00000095,-0.00000050,-0.00000001,0.00000030,-0.00000153,-0.0
 0000043,0.00000080,0.00000023,0.00000069,0.00000458,0.00000135,0.00000
 087,-0.00001235,-0.00000607,-0.00001340,-0.00005937,-0.00008509,-0.000
 07420,0.00078964,-0.00024836,-0.00054523,-0.00046440,-0.00028948,-0.00
 041567,-0.00000063,0.00014013,0.00001252,-0.00219126,-0.00120230,-0.00
 099952,-0.16573265,0.02313092,0.21336160\\-0.00000166,-0.00000399,-0.0
 0000667,0.00000271,0.00000226,0.00000459,0.00000608,0.00000162,0.00000
 094,-0.00000222,-0.00000326,-0.00000235,-0.00000411,-0.00000188,-0.000
 00380,-0.00000182,0.00000444,-0.00000002,0.00000025,-0.00000160,0.0000
 0421,-0.00000195,-0.00000150,0.00000217,-0.00000030,0.00000180,-0.0000
 0546,-0.00000405,0.00000281,0.00000677,0.00000504,-0.00000016,-0.00000
 228,0.00000034,0.00000179,0.00000027,0.00000182,-0.00000139,0.00000004
 ,0.00000427,0.00000073,-0.00000012,-0.00000244,0.00000129,-0.00000266,
 0.00000128,-0.00000083,0.00000181,-0.00000056,0.00000084,0.00000184,-0
 .00000163,0.00000168,0.00000049,0.00000040,0.00000259,0.00000047,-0.00
 000035,0.00000186,0.00000079,0.00000137,0.00000061,-0.00000139,-0.0000
 0062,-0.00000460,0.00000628,-0.00000105,-0.00000223,-0.00000463,-0.000
 00219,-0.00000663,0.00000697,0.00000121,0.00000424,-0.00000427,-0.0000
 0745,-0.00000280,-0.00000760,0.00000914,0.00000707,-0.00000985,-0.0000
 0142,0.00000248,0.00002313,0.00001514,-0.00000304,-0.00001964,-0.00001
 529,-0.00000445,0.00000806,0.00000249,0.00000200,-0.00000207,-0.000003
 17,-0.00000163,0.00000109,0.00000024,-0.00000142,-0.00000142,0.0000000
 8,-0.00000053,-0.00000011,-0.00000201,-0.00000045,0.00000004,0.0000015
 3,-0.00000158,0.00000031,-0.00000118,-0.00000136,-0.00000028,0.0000021
 1,0.00000014,0.00000086,0.00000011,0.00000235,-0.00000090,0.00000058,0
 .00000069,0.00000100,0.00000125,0.00000142,0.00000172,-0.00000033,0.00
 000024,0.00000021,-0.00000164,0.00000036,0.00000146\\\@


 JUST WHEN YOU THINK YOU'VE GOT THE WORLD ON A STRING,
 YOU FIND OUT IT'S YOUR LEASH.
 Job cpu time:  1 days  5 hours 14 minutes  8.1 seconds.
 File lengths (MBytes):  RWF=   2180 Int=      0 D2E=      0 Chk=     35 Scr=      1
 Normal termination of Gaussian 09 at Mon Dec 30 02:01:38 2013.
