 Entering Gaussian System, Link 0=g09
 Initial command:
 /opt/gaussian/g09/l1.exe /panfs/panfs.cluster/home/shuo/Gau-6613.inp -scrdir=/panfs/panfs.cluster/home/shuo/
 Default is to use a total of  12 processors:
                               12 via shared-memory
                                1 via Linda
 Entering Link 1 = /opt/gaussian/g09/l1.exe PID=      6614.
  
 Copyright (c) 1988,1990,1992,1993,1995,1998,2003,2009,2011,
            Gaussian, Inc.  All Rights Reserved.
  
 This is part of the Gaussian(R) 09 program.  It is based on
 the Gaussian(R) 03 system (copyright 2003, Gaussian, Inc.),
 the Gaussian(R) 98 system (copyright 1998, Gaussian, Inc.),
 the Gaussian(R) 94 system (copyright 1995, Gaussian, Inc.),
 the Gaussian 92(TM) system (copyright 1992, Gaussian, Inc.),
 the Gaussian 90(TM) system (copyright 1990, Gaussian, Inc.),
 the Gaussian 88(TM) system (copyright 1988, Gaussian, Inc.),
 the Gaussian 86(TM) system (copyright 1986, Carnegie Mellon
 University), and the Gaussian 82(TM) system (copyright 1983,
 Carnegie Mellon University). Gaussian is a federally registered
 trademark of Gaussian, Inc.
  
 This software contains proprietary and confidential information,
 including trade secrets, belonging to Gaussian, Inc.
  
 This software is provided under written license and may be
 used, copied, transmitted, or stored only in accord with that
 written license.
  
 The following legend is applicable only to US Government
 contracts under FAR:
  
                    RESTRICTED RIGHTS LEGEND
  
 Use, reproduction and disclosure by the US Government is
 subject to restrictions as set forth in subparagraphs (a)
 and (c) of the Commercial Computer Software - Restricted
 Rights clause in FAR 52.227-19.
  
 Gaussian, Inc.
 340 Quinnipiac St., Bldg. 40, Wallingford CT 06492
  
  
 ---------------------------------------------------------------
 Warning -- This program may not be used in any manner that
 competes with the business of Gaussian, Inc. or will provide
 assistance to any competitor of Gaussian, Inc.  The licensee
 of this program is prohibited from giving any competitor of
 Gaussian, Inc. access to this program.  By using this program,
 the user acknowledges that Gaussian, Inc. is engaged in the
 business of creating and licensing software in the field of
 computational chemistry and represents and warrants to the
 licensee that it is not a competitor of Gaussian, Inc. and that
 it will not use this program in any manner prohibited above.
 ---------------------------------------------------------------
  

 Cite this work as:
 Gaussian 09, Revision C.01,
 M. J. Frisch, G. W. Trucks, H. B. Schlegel, G. E. Scuseria, 
 M. A. Robb, J. R. Cheeseman, G. Scalmani, V. Barone, B. Mennucci, 
 G. A. Petersson, H. Nakatsuji, M. Caricato, X. Li, H. P. Hratchian, 
 A. F. Izmaylov, J. Bloino, G. Zheng, J. L. Sonnenberg, M. Hada, 
 M. Ehara, K. Toyota, R. Fukuda, J. Hasegawa, M. Ishida, T. Nakajima, 
 Y. Honda, O. Kitao, H. Nakai, T. Vreven, J. A. Montgomery, Jr., 
 J. E. Peralta, F. Ogliaro, M. Bearpark, J. J. Heyd, E. Brothers, 
 K. N. Kudin, V. N. Staroverov, T. Keith, R. Kobayashi, J. Normand, 
 K. Raghavachari, A. Rendell, J. C. Burant, S. S. Iyengar, J. Tomasi, 
 M. Cossi, N. Rega, J. M. Millam, M. Klene, J. E. Knox, J. B. Cross, 
 V. Bakken, C. Adamo, J. Jaramillo, R. Gomperts, R. E. Stratmann, 
 O. Yazyev, A. J. Austin, R. Cammi, C. Pomelli, J. W. Ochterski, 
 R. L. Martin, K. Morokuma, V. G. Zakrzewski, G. A. Voth, 
 P. Salvador, J. J. Dannenberg, S. Dapprich, A. D. Daniels, 
 O. Farkas, J. B. Foresman, J. V. Ortiz, J. Cioslowski, 
 and D. J. Fox, Gaussian, Inc., Wallingford CT, 2010.
 
 ******************************************
 Gaussian 09:  EM64L-G09RevC.01 23-Sep-2011
                29-Dec-2013 
 ******************************************
 %chk=47_C19H11N3OS2SeSi.chk
 %NProcShared=12
 Will use up to   12 processors via shared memory.
 %Mem=8000MB
 Default route:  MaxDisk=100GB
 --------------------------------------------
 #B3LYP/6-31++G(d,p) opt scf=direct freq test
 --------------------------------------------
 1/14=-1,18=20,19=15,26=3,38=1/1,3;
 2/9=110,12=2,17=6,18=5,40=1/2;
 3/5=1,6=6,7=1111,11=2,16=1,25=1,30=1,71=1,74=-5/1,2,3;
 4//1;
 5/5=2,38=5/2;
 6/7=2,8=2,9=2,10=2,28=1/1;
 7//1,2,3,16;
 1/14=-1,18=20,19=15/3(2);
 2/9=110/2;
 99//99;
 2/9=110/2;
 3/5=1,6=6,7=1111,11=2,16=1,25=1,30=1,71=1,74=-5/1,2,3;
 4/5=5,16=3/1;
 5/5=2,38=5/2;
 7//1,2,3,16;
 1/14=-1,18=20,19=15/3(-5);
 2/9=110/2;
 6/7=2,8=2,9=2,10=2,19=2,28=1/1;
 99/9=1/99;
 ----------------------------------------------------------------------
 Geom opt of No.47 candidate from the CEPDB database with SMILE code of
  [SiH2]1c(ccc1-c1ccc(-c2cncc3nsnc23)c2nsnc12)-c1ccc[Se]1, HPC, 2013122
 7, Shuo Dai, Gaussian09
 ----------------------------------------------------------------------
 Charge =  0 Multiplicity = 1
 Symbolic Z-Matrix:
 Si                   -0.783    -1.009    -0.2 
 H                    -1.09868  -1.26022  -1.56148 
 H                    -1.46936  -1.99657   0.555 
 C                    -1.198     0.413     0.251 
 C                     0.009     1.278    -0.2 
 C                     1.238     0.386     0.074 
 C                     0.734    -1.068     0.074 
 C                     1.41549  -1.84533  -0.98791 
 C                     2.13099  -1.26753  -1.97719 
 C                     2.62093  -1.99197  -3.01747 
 C                     2.42678  -3.32669  -3.1068 
 C                     2.9725   -4.06552  -4.221 
 C                     2.72812  -5.39432  -4.26265 
 N                     3.07977  -6.15139  -5.33514 
 C                     3.68006  -5.60946  -6.417 
 C                     3.9566   -4.22629  -6.43451 
 N                     4.51832  -3.38922  -7.30541 
 S                     4.51629  -2.17111  -6.7842 
 N                     3.9643   -2.18204  -5.58803 
 C                     3.59123  -3.44065  -5.30552 
 C                     1.69652  -3.98821  -2.11756 
 N                     1.32356  -5.26065  -1.9057 
 S                     0.6316   -5.30957  -0.78568 
 N                     0.53296  -4.1026   -0.24814 
 C                     1.17527  -3.23479  -1.02853 
 C                    -1.38628   0.47737   1.75792 
 C                    -0.42428  -0.50611   2.46859 
 C                    -0.31027   0.09994   3.89273 
 C                    -0.29672   1.6247    3.65583 
 Se                   -0.98087   1.86424   2.29837 
 H                    -2.13045   0.73527  -0.16322 
 H                     0.0618    2.18212   0.36981 
 H                    -0.06072   1.57563  -1.22541 
 H                     1.66584   0.62854   1.02428 
 H                     1.99454   0.5324   -0.66837 
 H                     0.93884  -1.54726   1.00848 
 H                     2.30988  -0.25175  -1.94226 
 H                     3.1548   -1.5108   -3.75807 
 H                     2.26266  -5.84543  -3.4596 
 H                     3.93398  -6.20168  -7.22312 
 H                    -2.41543   0.25118   1.94387 
 H                     0.52876  -0.53275   1.98289 
 H                    -0.77111  -1.51833   2.46375 
 H                     0.59351  -0.21804   4.36914 
 H                    -1.1095   -0.20788   4.53411 
 H                     0.71027   1.98556   3.63063 
 H                    -0.80633   2.14207   4.44166 
 

 GradGradGradGradGradGradGradGradGradGradGradGradGradGradGradGradGradGrad
 Berny optimization.
 Initialization pass.
                           ----------------------------
                           !    Initial Parameters    !
                           ! (Angstroms and Degrees)  !
 --------------------------                            --------------------------
 ! Name  Definition              Value          Derivative Info.                !
 --------------------------------------------------------------------------------
 ! R1    R(1,2)                  1.42           estimate D2E/DX2                !
 ! R2    R(1,3)                  1.42           estimate D2E/DX2                !
 ! R3    R(1,4)                  1.5485         estimate D2E/DX2                !
 ! R4    R(1,7)                  1.5427         estimate D2E/DX2                !
 ! R5    R(4,5)                  1.5519         estimate D2E/DX2                !
 ! R6    R(4,26)                 1.52           estimate D2E/DX2                !
 ! R7    R(4,31)                 1.07           estimate D2E/DX2                !
 ! R8    R(5,6)                  1.5431         estimate D2E/DX2                !
 ! R9    R(5,32)                 1.07           estimate D2E/DX2                !
 ! R10   R(5,33)                 1.07           estimate D2E/DX2                !
 ! R11   R(6,7)                  1.5389         estimate D2E/DX2                !
 ! R12   R(6,34)                 1.07           estimate D2E/DX2                !
 ! R13   R(6,35)                 1.07           estimate D2E/DX2                !
 ! R14   R(7,8)                  1.482          estimate D2E/DX2                !
 ! R15   R(7,36)                 1.07           estimate D2E/DX2                !
 ! R16   R(8,9)                  1.3507         estimate D2E/DX2                !
 ! R17   R(8,25)                 1.4107         estimate D2E/DX2                !
 ! R18   R(9,10)                 1.3591         estimate D2E/DX2                !
 ! R19   R(9,37)                 1.032          estimate D2E/DX2                !
 ! R20   R(10,11)                1.3517         estimate D2E/DX2                !
 ! R21   R(10,38)                1.032          estimate D2E/DX2                !
 ! R22   R(11,12)                1.444          estimate D2E/DX2                !
 ! R23   R(11,21)                1.3962         estimate D2E/DX2                !
 ! R24   R(12,13)                1.3517         estimate D2E/DX2                !
 ! R25   R(12,20)                1.3962         estimate D2E/DX2                !
 ! R26   R(13,14)                1.3591         estimate D2E/DX2                !
 ! R27   R(13,39)                1.032          estimate D2E/DX2                !
 ! R28   R(14,15)                1.3507         estimate D2E/DX2                !
 ! R29   R(15,16)                1.4107         estimate D2E/DX2                !
 ! R30   R(15,40)                1.032          estimate D2E/DX2                !
 ! R31   R(16,17)                1.3322         estimate D2E/DX2                !
 ! R32   R(16,18)                2.1585         estimate D2E/DX2                !
 ! R33   R(16,20)                1.4231         estimate D2E/DX2                !
 ! R34   R(17,18)                1.3249         estimate D2E/DX2                !
 ! R35   R(18,19)                1.3174         estimate D2E/DX2                !
 ! R36   R(18,20)                2.1573         estimate D2E/DX2                !
 ! R37   R(19,20)                1.3428         estimate D2E/DX2                !
 ! R38   R(21,22)                1.3428         estimate D2E/DX2                !
 ! R39   R(21,23)                2.1573         estimate D2E/DX2                !
 ! R40   R(21,25)                1.4231         estimate D2E/DX2                !
 ! R41   R(22,23)                1.3174         estimate D2E/DX2                !
 ! R42   R(23,24)                1.3249         estimate D2E/DX2                !
 ! R43   R(23,25)                2.1585         estimate D2E/DX2                !
 ! R44   R(24,25)                1.3322         estimate D2E/DX2                !
 ! R45   R(26,27)                1.5485         estimate D2E/DX2                !
 ! R46   R(26,30)                1.5427         estimate D2E/DX2                !
 ! R47   R(26,41)                1.07           estimate D2E/DX2                !
 ! R48   R(27,28)                1.5519         estimate D2E/DX2                !
 ! R49   R(27,42)                1.07           estimate D2E/DX2                !
 ! R50   R(27,43)                1.07           estimate D2E/DX2                !
 ! R51   R(28,29)                1.5431         estimate D2E/DX2                !
 ! R52   R(28,44)                1.07           estimate D2E/DX2                !
 ! R53   R(28,45)                1.07           estimate D2E/DX2                !
 ! R54   R(29,30)                1.5389         estimate D2E/DX2                !
 ! R55   R(29,46)                1.07           estimate D2E/DX2                !
 ! R56   R(29,47)                1.07           estimate D2E/DX2                !
 ! A1    A(2,1,3)              106.2175         estimate D2E/DX2                !
 ! A2    A(2,1,4)              112.4665         estimate D2E/DX2                !
 ! A3    A(2,1,7)              112.4662         estimate D2E/DX2                !
 ! A4    A(3,1,4)              110.7489         estimate D2E/DX2                !
 ! A5    A(3,1,7)              110.7489         estimate D2E/DX2                !
 ! A6    A(4,1,7)              104.2965         estimate D2E/DX2                !
 ! A7    A(1,4,5)              102.6368         estimate D2E/DX2                !
 ! A8    A(1,4,26)             111.1518         estimate D2E/DX2                !
 ! A9    A(1,4,31)             113.4154         estimate D2E/DX2                !
 ! A10   A(5,4,26)             111.1518         estimate D2E/DX2                !
 ! A11   A(5,4,31)             113.4151         estimate D2E/DX2                !
 ! A12   A(26,4,31)            105.2535         estimate D2E/DX2                !
 ! A13   A(4,5,6)              104.2195         estimate D2E/DX2                !
 ! A14   A(4,5,32)             110.7679         estimate D2E/DX2                !
 ! A15   A(4,5,33)             112.5107         estimate D2E/DX2                !
 ! A16   A(6,5,32)             110.7677         estimate D2E/DX2                !
 ! A17   A(6,5,33)             112.5103         estimate D2E/DX2                !
 ! A18   A(32,5,33)            106.1718         estimate D2E/DX2                !
 ! A19   A(5,6,7)              106.5784         estimate D2E/DX2                !
 ! A20   A(5,6,34)             110.1895         estimate D2E/DX2                !
 ! A21   A(5,6,35)             111.1517         estimate D2E/DX2                !
 ! A22   A(7,6,34)             110.1895         estimate D2E/DX2                !
 ! A23   A(7,6,35)             111.152          estimate D2E/DX2                !
 ! A24   A(34,6,35)            107.6047         estimate D2E/DX2                !
 ! A25   A(1,7,6)              106.6142         estimate D2E/DX2                !
 ! A26   A(1,7,8)              110.1809         estimate D2E/DX2                !
 ! A27   A(1,7,36)             111.131          estimate D2E/DX2                !
 ! A28   A(6,7,8)              110.1806         estimate D2E/DX2                !
 ! A29   A(6,7,36)             111.1312         estimate D2E/DX2                !
 ! A30   A(8,7,36)             107.6271         estimate D2E/DX2                !
 ! A31   A(7,8,9)              122.9571         estimate D2E/DX2                !
 ! A32   A(7,8,25)             117.3199         estimate D2E/DX2                !
 ! A33   A(9,8,25)             119.3706         estimate D2E/DX2                !
 ! A34   A(8,9,10)             121.571          estimate D2E/DX2                !
 ! A35   A(8,9,37)             119.2143         estimate D2E/DX2                !
 ! A36   A(10,9,37)            119.2147         estimate D2E/DX2                !
 ! A37   A(9,10,11)            121.6782         estimate D2E/DX2                !
 ! A38   A(9,10,38)            119.1611         estimate D2E/DX2                !
 ! A39   A(11,10,38)           119.1607         estimate D2E/DX2                !
 ! A40   A(10,11,12)           120.1279         estimate D2E/DX2                !
 ! A41   A(10,11,21)           119.7441         estimate D2E/DX2                !
 ! A42   A(12,11,21)           120.1279         estimate D2E/DX2                !
 ! A43   A(11,12,13)           117.2857         estimate D2E/DX2                !
 ! A44   A(11,12,20)           122.5361         estimate D2E/DX2                !
 ! A45   A(13,12,20)           119.7444         estimate D2E/DX2                !
 ! A46   A(12,13,14)           121.6778         estimate D2E/DX2                !
 ! A47   A(12,13,39)           119.1612         estimate D2E/DX2                !
 ! A48   A(14,13,39)           119.161          estimate D2E/DX2                !
 ! A49   A(13,14,15)           121.5709         estimate D2E/DX2                !
 ! A50   A(14,15,16)           119.371          estimate D2E/DX2                !
 ! A51   A(14,15,40)           120.3146         estimate D2E/DX2                !
 ! A52   A(16,15,40)           120.3144         estimate D2E/DX2                !
 ! A53   A(15,16,17)           134.9819         estimate D2E/DX2                !
 ! A54   A(15,16,20)           118.7581         estimate D2E/DX2                !
 ! A55   A(17,16,20)           106.26           estimate D2E/DX2                !
 ! A56   A(16,18,19)            74.7144         estimate D2E/DX2                !
 ! A57   A(17,18,19)           110.4989         estimate D2E/DX2                !
 ! A58   A(17,18,20)            74.2916         estimate D2E/DX2                !
 ! A59   A(12,20,16)           118.8753         estimate D2E/DX2                !
 ! A60   A(12,20,19)           134.912          estimate D2E/DX2                !
 ! A61   A(16,20,19)           106.2127         estimate D2E/DX2                !
 ! A62   A(11,21,22)           134.9118         estimate D2E/DX2                !
 ! A63   A(11,21,25)           118.8754         estimate D2E/DX2                !
 ! A64   A(22,21,25)           106.2127         estimate D2E/DX2                !
 ! A65   A(21,23,24)            74.2916         estimate D2E/DX2                !
 ! A66   A(22,23,24)           110.499          estimate D2E/DX2                !
 ! A67   A(22,23,25)            74.7145         estimate D2E/DX2                !
 ! A68   A(8,25,21)            118.7582         estimate D2E/DX2                !
 ! A69   A(8,25,24)            134.9814         estimate D2E/DX2                !
 ! A70   A(21,25,24)           106.2604         estimate D2E/DX2                !
 ! A71   A(4,26,27)            110.5578         estimate D2E/DX2                !
 ! A72   A(4,26,30)            110.661          estimate D2E/DX2                !
 ! A73   A(4,26,41)            106.4082         estimate D2E/DX2                !
 ! A74   A(27,26,30)           104.2962         estimate D2E/DX2                !
 ! A75   A(27,26,41)           112.5521         estimate D2E/DX2                !
 ! A76   A(30,26,41)           112.453          estimate D2E/DX2                !
 ! A77   A(26,27,28)           102.637          estimate D2E/DX2                !
 ! A78   A(26,27,42)           111.1516         estimate D2E/DX2                !
 ! A79   A(26,27,43)           113.4148         estimate D2E/DX2                !
 ! A80   A(28,27,42)           111.1517         estimate D2E/DX2                !
 ! A81   A(28,27,43)           113.4151         estimate D2E/DX2                !
 ! A82   A(42,27,43)           105.2542         estimate D2E/DX2                !
 ! A83   A(27,28,29)           104.2194         estimate D2E/DX2                !
 ! A84   A(27,28,44)           110.7678         estimate D2E/DX2                !
 ! A85   A(27,28,45)           112.5103         estimate D2E/DX2                !
 ! A86   A(29,28,44)           110.7678         estimate D2E/DX2                !
 ! A87   A(29,28,45)           112.51           estimate D2E/DX2                !
 ! A88   A(44,28,45)           106.1725         estimate D2E/DX2                !
 ! A89   A(28,29,30)           106.5784         estimate D2E/DX2                !
 ! A90   A(28,29,46)           110.1893         estimate D2E/DX2                !
 ! A91   A(28,29,47)           111.1519         estimate D2E/DX2                !
 ! A92   A(30,29,46)           110.1897         estimate D2E/DX2                !
 ! A93   A(30,29,47)           111.1516         estimate D2E/DX2                !
 ! A94   A(46,29,47)           107.605          estimate D2E/DX2                !
 ! A95   A(26,30,29)           106.6143         estimate D2E/DX2                !
 ! A96   L(15,16,18,1,-1)      189.1103         estimate D2E/DX2                !
 ! A97   L(12,20,18,15,-1)     189.6688         estimate D2E/DX2                !
 ! A98   L(11,21,23,1,-1)      188.9685         estimate D2E/DX2                !
 ! A99   L(8,25,23,3,-1)       171.7775         estimate D2E/DX2                !
 ! A100  L(15,16,18,1,-2)      182.5828         estimate D2E/DX2                !
 ! A101  L(12,20,18,15,-2)     180.0098         estimate D2E/DX2                !
 ! A102  L(11,21,23,1,-2)      176.2993         estimate D2E/DX2                !
 ! A103  L(8,25,23,3,-2)       184.7516         estimate D2E/DX2                !
 ! D1    D(2,1,4,5)            -84.2256         estimate D2E/DX2                !
 ! D2    D(2,1,4,26)           156.8761         estimate D2E/DX2                !
 ! D3    D(2,1,4,31)            38.5191         estimate D2E/DX2                !
 ! D4    D(3,1,4,5)            157.0991         estimate D2E/DX2                !
 ! D5    D(3,1,4,26)            38.2008         estimate D2E/DX2                !
 ! D6    D(3,1,4,31)           -80.1563         estimate D2E/DX2                !
 ! D7    D(7,1,4,5)             37.9232         estimate D2E/DX2                !
 ! D8    D(7,1,4,26)           -80.9751         estimate D2E/DX2                !
 ! D9    D(7,1,4,31)           160.6678         estimate D2E/DX2                !
 ! D10   D(2,1,7,6)             98.4879         estimate D2E/DX2                !
 ! D11   D(2,1,7,8)            -21.065          estimate D2E/DX2                !
 ! D12   D(2,1,7,36)          -140.2702         estimate D2E/DX2                !
 ! D13   D(3,1,7,6)           -142.8369         estimate D2E/DX2                !
 ! D14   D(3,1,7,8)             97.6101         estimate D2E/DX2                !
 ! D15   D(3,1,7,36)           -21.595          estimate D2E/DX2                !
 ! D16   D(4,1,7,6)            -23.661          estimate D2E/DX2                !
 ! D17   D(4,1,7,8)           -143.2139         estimate D2E/DX2                !
 ! D18   D(4,1,7,36)            97.5809         estimate D2E/DX2                !
 ! D19   D(1,4,5,6)            -37.9055         estimate D2E/DX2                !
 ! D20   D(1,4,5,32)          -157.0688         estimate D2E/DX2                !
 ! D21   D(1,4,5,33)            84.2718         estimate D2E/DX2                !
 ! D22   D(26,4,5,6)            80.9928         estimate D2E/DX2                !
 ! D23   D(26,4,5,32)          -38.1705         estimate D2E/DX2                !
 ! D24   D(26,4,5,33)         -156.8299         estimate D2E/DX2                !
 ! D25   D(31,4,5,6)          -160.6503         estimate D2E/DX2                !
 ! D26   D(31,4,5,32)           80.1863         estimate D2E/DX2                !
 ! D27   D(31,4,5,33)          -38.4731         estimate D2E/DX2                !
 ! D28   D(1,4,26,27)           31.7192         estimate D2E/DX2                !
 ! D29   D(1,4,26,30)          146.761          estimate D2E/DX2                !
 ! D30   D(1,4,26,41)          -90.79           estimate D2E/DX2                !
 ! D31   D(5,4,26,27)          -81.9351         estimate D2E/DX2                !
 ! D32   D(5,4,26,30)           33.1068         estimate D2E/DX2                !
 ! D33   D(5,4,26,41)          155.5557         estimate D2E/DX2                !
 ! D34   D(31,4,26,27)         154.8922         estimate D2E/DX2                !
 ! D35   D(31,4,26,30)         -90.066          estimate D2E/DX2                !
 ! D36   D(31,4,26,41)          32.383          estimate D2E/DX2                !
 ! D37   D(4,5,6,7)             23.5881         estimate D2E/DX2                !
 ! D38   D(4,5,6,34)           -95.9591         estimate D2E/DX2                !
 ! D39   D(4,5,6,35)           144.8448         estimate D2E/DX2                !
 ! D40   D(32,5,6,7)           142.7516         estimate D2E/DX2                !
 ! D41   D(32,5,6,34)           23.2044         estimate D2E/DX2                !
 ! D42   D(32,5,6,35)          -95.9917         estimate D2E/DX2                !
 ! D43   D(33,5,6,7)           -98.5895         estimate D2E/DX2                !
 ! D44   D(33,5,6,34)          141.8633         estimate D2E/DX2                !
 ! D45   D(33,5,6,35)           22.6673         estimate D2E/DX2                !
 ! D46   D(5,6,7,1)              0.005          estimate D2E/DX2                !
 ! D47   D(5,6,7,8)            119.5582         estimate D2E/DX2                !
 ! D48   D(5,6,7,36)          -121.2367         estimate D2E/DX2                !
 ! D49   D(34,6,7,1)           119.5522         estimate D2E/DX2                !
 ! D50   D(34,6,7,8)          -120.8946         estimate D2E/DX2                !
 ! D51   D(34,6,7,36)           -1.6896         estimate D2E/DX2                !
 ! D52   D(35,6,7,1)          -121.2515         estimate D2E/DX2                !
 ! D53   D(35,6,7,8)            -1.6984         estimate D2E/DX2                !
 ! D54   D(35,6,7,36)          117.5067         estimate D2E/DX2                !
 ! D55   D(1,7,8,9)            103.7188         estimate D2E/DX2                !
 ! D56   D(1,7,8,25)           -69.4127         estimate D2E/DX2                !
 ! D57   D(6,7,8,9)            -13.6452         estimate D2E/DX2                !
 ! D58   D(6,7,8,25)           173.2233         estimate D2E/DX2                !
 ! D59   D(36,7,8,9)          -134.9632         estimate D2E/DX2                !
 ! D60   D(36,7,8,25)           51.9053         estimate D2E/DX2                !
 ! D61   D(7,8,9,10)          -172.6499         estimate D2E/DX2                !
 ! D62   D(7,8,9,37)             7.3499         estimate D2E/DX2                !
 ! D63   D(25,8,9,10)            0.347          estimate D2E/DX2                !
 ! D64   D(25,8,9,37)         -179.6531         estimate D2E/DX2                !
 ! D65   D(7,8,23,22)          173.589          estimate D2E/DX2                !
 ! D66   D(9,8,23,22)           -0.1034         estimate D2E/DX2                !
 ! D67   D(7,8,25,21)          173.337          estimate D2E/DX2                !
 ! D68   D(7,8,25,24)           -6.6485         estimate D2E/DX2                !
 ! D69   D(9,8,25,21)           -0.051          estimate D2E/DX2                !
 ! D70   D(9,8,25,24)          179.9636         estimate D2E/DX2                !
 ! D71   D(8,9,10,11)           -0.6084         estimate D2E/DX2                !
 ! D72   D(8,9,10,38)          179.392          estimate D2E/DX2                !
 ! D73   D(37,9,10,11)         179.3917         estimate D2E/DX2                !
 ! D74   D(37,9,10,38)          -0.6078         estimate D2E/DX2                !
 ! D75   D(9,10,11,12)        -179.453          estimate D2E/DX2                !
 ! D76   D(9,10,11,21)           0.5473         estimate D2E/DX2                !
 ! D77   D(38,10,11,12)          0.5466         estimate D2E/DX2                !
 ! D78   D(38,10,11,21)       -179.4532         estimate D2E/DX2                !
 ! D79   D(10,11,12,13)       -179.1133         estimate D2E/DX2                !
 ! D80   D(10,11,12,20)         -6.7            estimate D2E/DX2                !
 ! D81   D(21,11,12,13)          0.8864         estimate D2E/DX2                !
 ! D82   D(21,11,12,20)        173.2998         estimate D2E/DX2                !
 ! D83   D(10,11,21,22)        179.7132         estimate D2E/DX2                !
 ! D84   D(10,11,21,25)         -0.2444         estimate D2E/DX2                !
 ! D85   D(12,11,21,22)         -0.2865         estimate D2E/DX2                !
 ! D86   D(12,11,21,25)        179.7559         estimate D2E/DX2                !
 ! D87   D(10,11,23,24)         -0.2329         estimate D2E/DX2                !
 ! D88   D(12,11,23,24)        179.7894         estimate D2E/DX2                !
 ! D89   D(11,12,13,14)        173.1815         estimate D2E/DX2                !
 ! D90   D(11,12,13,39)         -6.8184         estimate D2E/DX2                !
 ! D91   D(20,12,13,14)          0.5468         estimate D2E/DX2                !
 ! D92   D(20,12,13,39)       -179.4531         estimate D2E/DX2                !
 ! D93   D(11,12,18,17)       -172.8821         estimate D2E/DX2                !
 ! D94   D(13,12,18,17)         -0.2329         estimate D2E/DX2                !
 ! D95   D(11,12,20,16)       -172.4773         estimate D2E/DX2                !
 ! D96   D(11,12,20,19)          7.4801         estimate D2E/DX2                !
 ! D97   D(13,12,20,16)         -0.2441         estimate D2E/DX2                !
 ! D98   D(13,12,20,19)        179.7134         estimate D2E/DX2                !
 ! D99   D(12,13,14,15)         -0.6081         estimate D2E/DX2                !
 ! D100  D(39,13,14,15)        179.3917         estimate D2E/DX2                !
 ! D101  D(13,14,15,16)          0.3471         estimate D2E/DX2                !
 ! D102  D(13,14,15,40)       -179.6527         estimate D2E/DX2                !
 ! D103  D(14,15,16,17)        179.9634         estimate D2E/DX2                !
 ! D104  D(14,15,16,20)         -0.0512         estimate D2E/DX2                !
 ! D105  D(40,15,16,17)         -0.0367         estimate D2E/DX2                !
 ! D106  D(40,15,16,20)        179.9486         estimate D2E/DX2                !
 ! D107  D(14,15,18,19)         -0.1033         estimate D2E/DX2                !
 ! D108  D(40,15,18,19)        179.9078         estimate D2E/DX2                !
 ! D109  D(15,16,20,12)          0.0024         estimate D2E/DX2                !
 ! D110  D(15,16,20,19)       -179.9662         estimate D2E/DX2                !
 ! D111  D(17,16,20,12)        179.9916         estimate D2E/DX2                !
 ! D112  D(17,16,20,19)          0.023          estimate D2E/DX2                !
 ! D113  D(11,21,25,8)           0.0023         estimate D2E/DX2                !
 ! D114  D(11,21,25,24)        179.9916         estimate D2E/DX2                !
 ! D115  D(22,21,25,8)        -179.9664         estimate D2E/DX2                !
 ! D116  D(22,21,25,24)          0.0229         estimate D2E/DX2                !
 ! D117  D(4,26,27,28)         156.8994         estimate D2E/DX2                !
 ! D118  D(4,26,27,42)          38.0012         estimate D2E/DX2                !
 ! D119  D(4,26,27,43)         -80.3562         estimate D2E/DX2                !
 ! D120  D(30,26,27,28)         37.9232         estimate D2E/DX2                !
 ! D121  D(30,26,27,42)        -80.975          estimate D2E/DX2                !
 ! D122  D(30,26,27,43)        160.6676         estimate D2E/DX2                !
 ! D123  D(41,26,27,28)        -84.2574         estimate D2E/DX2                !
 ! D124  D(41,26,27,42)        156.8444         estimate D2E/DX2                !
 ! D125  D(41,26,27,43)         38.487          estimate D2E/DX2                !
 ! D126  D(4,26,30,29)        -142.5668         estimate D2E/DX2                !
 ! D127  D(27,26,30,29)        -23.6608         estimate D2E/DX2                !
 ! D128  D(41,26,30,29)         98.585          estimate D2E/DX2                !
 ! D129  D(26,27,28,29)        -37.9056         estimate D2E/DX2                !
 ! D130  D(26,27,28,44)       -157.0689         estimate D2E/DX2                !
 ! D131  D(26,27,28,45)         84.2711         estimate D2E/DX2                !
 ! D132  D(42,27,28,29)         80.9925         estimate D2E/DX2                !
 ! D133  D(42,27,28,44)        -38.1708         estimate D2E/DX2                !
 ! D134  D(42,27,28,45)       -156.8308         estimate D2E/DX2                !
 ! D135  D(43,27,28,29)       -160.6497         estimate D2E/DX2                !
 ! D136  D(43,27,28,44)         80.1869         estimate D2E/DX2                !
 ! D137  D(43,27,28,45)        -38.4731         estimate D2E/DX2                !
 ! D138  D(27,28,29,30)         23.5882         estimate D2E/DX2                !
 ! D139  D(27,28,29,46)        -95.9591         estimate D2E/DX2                !
 ! D140  D(27,28,29,47)        144.8445         estimate D2E/DX2                !
 ! D141  D(44,28,29,30)        142.7515         estimate D2E/DX2                !
 ! D142  D(44,28,29,46)         23.2043         estimate D2E/DX2                !
 ! D143  D(44,28,29,47)        -95.9922         estimate D2E/DX2                !
 ! D144  D(45,28,29,30)        -98.5887         estimate D2E/DX2                !
 ! D145  D(45,28,29,46)        141.8641         estimate D2E/DX2                !
 ! D146  D(45,28,29,47)         22.6676         estimate D2E/DX2                !
 ! D147  D(28,29,30,26)          0.005          estimate D2E/DX2                !
 ! D148  D(46,29,30,26)        119.552          estimate D2E/DX2                !
 ! D149  D(47,29,30,26)       -121.2515         estimate D2E/DX2                !
 --------------------------------------------------------------------------------
 Trust Radius=3.00D-01 FncErr=1.00D-07 GrdErr=1.00D-06
 Number of steps in this run=    282 maximum allowed number of steps=    282.
 GradGradGradGradGradGradGradGradGradGradGradGradGradGradGradGradGradGrad

                          Input orientation:                          
 ---------------------------------------------------------------------
 Center     Atomic      Atomic             Coordinates (Angstroms)
 Number     Number       Type             X           Y           Z
 ---------------------------------------------------------------------
      1         14           0       -0.783000   -1.009000   -0.200000
      2          1           0       -1.098680   -1.260220   -1.561480
      3          1           0       -1.469360   -1.996570    0.555000
      4          6           0       -1.198000    0.413000    0.251000
      5          6           0        0.009000    1.278000   -0.200000
      6          6           0        1.238000    0.386000    0.074000
      7          6           0        0.734000   -1.068000    0.074000
      8          6           0        1.415490   -1.845330   -0.987910
      9          6           0        2.130990   -1.267530   -1.977190
     10          6           0        2.620930   -1.991970   -3.017470
     11          6           0        2.426780   -3.326690   -3.106800
     12          6           0        2.972500   -4.065520   -4.221000
     13          6           0        2.728120   -5.394320   -4.262650
     14          7           0        3.079770   -6.151390   -5.335140
     15          6           0        3.680060   -5.609460   -6.417000
     16          6           0        3.956600   -4.226290   -6.434510
     17          7           0        4.518320   -3.389220   -7.305410
     18         16           0        4.516290   -2.171110   -6.784200
     19          7           0        3.964300   -2.182040   -5.588030
     20          6           0        3.591230   -3.440650   -5.305520
     21          6           0        1.696520   -3.988210   -2.117560
     22          7           0        1.323560   -5.260650   -1.905700
     23         16           0        0.631600   -5.309570   -0.785680
     24          7           0        0.532960   -4.102600   -0.248140
     25          6           0        1.175270   -3.234790   -1.028530
     26          6           0       -1.386280    0.477370    1.757920
     27          6           0       -0.424280   -0.506110    2.468590
     28          6           0       -0.310270    0.099940    3.892730
     29          6           0       -0.296720    1.624700    3.655830
     30         34           0       -0.980870    1.864240    2.298370
     31          1           0       -2.130450    0.735270   -0.163220
     32          1           0        0.061800    2.182120    0.369810
     33          1           0       -0.060720    1.575630   -1.225410
     34          1           0        1.665840    0.628540    1.024280
     35          1           0        1.994540    0.532400   -0.668370
     36          1           0        0.938840   -1.547260    1.008480
     37          1           0        2.309880   -0.251750   -1.942260
     38          1           0        3.154800   -1.510800   -3.758070
     39          1           0        2.262660   -5.845430   -3.459600
     40          1           0        3.933980   -6.201680   -7.223120
     41          1           0       -2.415430    0.251180    1.943870
     42          1           0        0.528760   -0.532750    1.982890
     43          1           0       -0.771110   -1.518330    2.463750
     44          1           0        0.593510   -0.218040    4.369140
     45          1           0       -1.109500   -0.207880    4.534110
     46          1           0        0.710270    1.985560    3.630630
     47          1           0       -0.806330    2.142070    4.441660
 ---------------------------------------------------------------------
                    Distance matrix (angstroms):
                    1          2          3          4          5
     1  Si   0.000000
     2  H    1.419998   0.000000
     3  H    1.420003   2.271366   0.000000
     4  C    1.548454   2.468727   2.443784   0.000000
     5  C    2.420255   3.085959   3.671292   1.551926   0.000000
     6  C    2.470939   3.293161   3.638379   2.442571   1.543108
     7  C    1.542675   2.463830   2.438934   2.440761   2.470712
     8  C    2.480647   2.644312   3.275027   3.669507   3.514855
     9  C    3.422949   3.256323   4.461615   4.344098   3.760448
    10  C    4.526710   4.060894   5.430749   5.572343   5.045099
    11  C    4.911605   4.368888   5.509801   6.196703   5.958046
    12  C    6.294008   5.614024   6.842576   7.579512   7.314641
    13  C    6.932829   6.247520   7.236940   8.337411   8.271553
    14  N    8.230117   7.458116   8.523548   9.622655   9.539137
    15  C    8.929402   8.082594   9.390329  10.223880   9.978220
    16  C    8.466633   7.622326   9.125017   9.632702   9.205969
    17  N    9.179123   8.311201   9.978869  10.209433   9.623085
    18  S    8.531393   7.722332   9.472187   9.424690   8.692739
    19  N    7.276245   6.534265   8.203406   8.214490   7.526430
    20  C    7.149346   6.384933   7.876588   8.286269   7.820765
    21  C    4.324436   3.945161   4.596956   5.775723   5.853010
    22  N    5.042176   4.689262   4.950724   6.572665   6.884143
    23  S    4.564977   4.471350   4.145772   6.096716   6.642795
    24  N    3.362206   3.530756   3.014910   4.861688   5.406266
    25  C    3.078218   3.058400   3.321871   4.536075   4.734123
    26  C    2.531145   3.757705   2.752144   1.520000   2.534022
    27  C    2.739152   4.155113   2.641115   2.522124   3.239159
    28  C    4.266575   5.676269   4.108441   3.761418   4.270854
    29  C    4.694706   6.015499   4.909565   3.724700   3.883438
    30  Se   3.812678   4.967351   4.264249   2.518922   2.750522
    31  H    2.204416   2.646065   2.901005   1.070000   2.207522
    32  H    3.349868   4.114158   4.454234   2.175086   1.070002
    33  H    2.872885   3.038478   4.232581   2.196566   1.070005
    34  H    3.190175   4.230383   4.115933   2.974222   2.160041
    35  H    3.210921   3.684989   4.459925   3.324426   2.172017
    36  H    2.171378   3.292199   2.491375   2.997079   3.210470
    37  H    3.629711   3.574953   4.854210   4.190168   3.266444
    38  H    5.330847   4.793734   6.342034   6.222581   5.507570
    39  H    6.579673   5.993798   6.697664   8.056840   8.151517
    40  H    9.926633   9.044328  10.362345  11.222909  10.985231
    41  H    2.974737   4.038024   2.806490   2.091442   3.395350
    42  H    2.590856   3.967409   2.859042   2.622134   2.883396
    43  H    2.712033   4.046776   2.087964   2.967917   3.940000
    44  H    4.837090   6.254750   4.686818   4.535063   4.843225
    45  H    4.812504   6.185770   4.377468   4.328782   5.086323
    46  H    5.086351   6.384778   5.483397   4.187641   3.958048
    47  H    5.610240   6.906427   5.716124   4.550244   4.791282
                    6          7          8          9         10
     6  C    0.000000
     7  C    1.538874   0.000000
     8  C    2.477497   1.482000   0.000000
     9  C    2.781901   2.489734   1.350729   0.000000
    10  C    4.138167   3.737835   2.365101   1.359057   0.000000
    11  C    5.031377   4.252608   2.776118   2.367203   1.351722
    12  C    6.424293   5.695879   4.219762   3.683961   2.423158
    13  C    7.378285   6.442057   5.004223   4.755028   3.624631
    14  N    8.682648   7.784747   6.341166   6.002341   4.783608
    15  C    9.167458   8.452054   6.983693   6.400304   5.075903
    16  C    8.427616   7.919637   6.464647   5.652859   4.295621
    17  N    8.914509   8.611901   7.205689   6.212153   4.892732
    18  S    8.020031   7.909328   6.581647   5.441825   4.220514
    19  N    6.788676   6.613207   5.269811   4.151568   2.906639
    20  C    7.008579   6.537007   5.091232   4.234682   2.876687
    21  C    4.913948   3.775845   2.438652   2.758726   2.376835
    22  N    5.984245   4.673875   3.537683   4.074563   3.688288
    23  S    5.791916   4.329024   3.557575   4.472802   4.465959
    24  N    4.555040   3.058266   2.534046   3.685232   4.059996
    25  C    3.785449   2.470885   1.410658   2.384003   2.755071
    26  C    3.119420   3.117586   4.558995   5.419125   6.705201
    27  C    3.048458   2.718712   4.138316   5.184026   6.448096
    28  C    4.130577   4.127624   5.530187   6.502744   7.792232
    29  C    4.088918   4.598100   6.044592   6.781569   8.131784
    30  Se   3.472233   4.060373   5.504824   6.145899   7.490092
    31  H    3.394808   3.393100   4.462432   5.045945   6.177394
    32  H    2.167256   3.332062   4.460519   4.657257   5.953641
    33  H    2.188689   3.051037   3.733439   3.667741   4.809417
    34  H    1.070002   2.156294   3.198690   3.580540   4.910704
    35  H    1.070000   2.168261   2.467996   2.229658   3.504722
    36  H    2.168005   1.070001   2.074033   3.227026   4.385826
    37  H    2.370856   2.686069   2.061605   1.032003   2.069105
    38  H    4.685801   4.554240   3.287993   2.068550   1.032003
    39  H    7.236503   6.135712   4.777839   4.813735   3.895252
    40  H   10.193812   9.478529   8.012392   7.424041   6.093706
    41  H    4.106354   3.893014   5.259908   6.192829   7.416976
    42  H    2.234051   1.993107   3.366721   4.334660   5.613386
    43  H    3.657034   2.859905   4.099037   5.311029   6.463284
    44  H    4.385027   4.380685   5.658773   6.613711   7.862523
    45  H    5.075040   4.902130   6.288841   7.349875   8.609614
    46  H    3.935316   4.687687   6.041851   6.636918   7.979261
    47  H    5.132204   5.635035   7.093382   7.839315   9.191029
                   11         12         13         14         15
    11  C    0.000000
    12  C    1.443995   0.000000
    13  C    2.387863   1.351727   0.000000
    14  N    3.656614   2.367207   1.359061   0.000000
    15  C    4.211790   2.776114   2.365100   1.350725   0.000000
    16  C    3.771377   2.427741   2.755074   2.384000   1.410652
    17  N    4.691138   3.515754   4.060004   3.685237   2.534052
    18  S    4.384597   3.541479   4.465966   4.472806   3.557579
    19  N    3.135394   2.529809   3.688294   4.074566   3.537682
    20  C    2.490643   1.396235   2.376839   2.758728   2.438650
    21  C    1.396239   2.461415   2.764553   4.116497   5.004804
    22  N    2.529810   3.083497   2.746975   3.954586   5.101626
    23  S    3.541480   4.339228   4.061022   5.234480   6.410523
    24  N    3.515754   4.662226   4.754320   6.046598   7.087291
    25  C    2.427742   3.756596   4.187415   5.539004   6.399112
    26  C    7.257810   8.682413   9.362280  10.686326  11.381855
    27  C    6.867983   8.304103   8.896169  10.249183  11.038274
    28  C    8.259943   9.693310  10.292178  11.650111  12.442287
    29  C    8.812881  10.252358  11.005391  12.357419  13.023431
    30  Se   8.232478   9.658849  10.463760  11.790233  12.391051
    31  H    6.777354   8.096497   8.830793  10.065845  10.636136
    32  H    6.930147   8.281348   9.272076  10.540493  10.948119
    33  H    5.810338   7.070824   8.098312   9.298354   9.621412
    34  H    5.769636   7.159226   8.084238   9.402599   9.916772
    35  H    4.585341   5.892237   6.970151   8.223717   8.579637
    36  H    4.723967   6.150192   6.766550   8.125461   8.896826
    37  H    3.290148   4.491833   5.657310   6.849096   7.113772
    38  H    2.061946   2.602716   3.939338   4.901822   4.913738
    39  H    2.548618   2.061961   1.032009   2.068558   3.287996
    40  H    5.242262   3.807932   3.297015   2.072842   1.032003
    41  H    7.858589   9.255772   9.841172  11.143344  11.891436
    42  H    6.108480   7.545898   8.214549   9.572373  10.308338
    43  H    6.672907   8.073950   8.515419   9.854806  10.743276
    44  H    8.301461   9.708409  10.288743  11.642989  12.447290
    45  H    8.978628  10.401734  10.909146  12.258768  13.116545
    46  H    8.749821  10.167662  10.992644  12.337322  12.940589
    47  H    9.866083  11.307317  12.043858  13.396607  14.075667
                   16         17         18         19         20
    16  C    0.000000
    17  N    1.332172   0.000000
    18  S    2.158541   1.324936   0.000000
    19  N    2.212588   2.171086   1.317435   0.000000
    20  C    1.423146   2.204927   2.157304   1.342793   0.000000
    21  C    4.878596   5.935919   5.747215   4.522083   3.748711
    22  N    5.339749   6.547183   6.598374   5.478221   4.473645
    23  S    6.643674   7.829509   7.805318   6.629547   5.716750
    24  N    7.071618   8.136158   7.894153   6.631521   5.947124
    25  C    6.159829   7.113301   6.739552   5.447569   4.916491
    26  C   10.852958  11.487331  10.715530   9.469116   9.487817
    27  C   10.597030  11.325754  10.620526   9.326173   9.228902
    28  C   11.982251  12.684158  11.935250  10.647262  10.600249
    29  C   12.415304  12.979707  12.106505  10.867222  11.003623
    30  Se  11.736113  12.250409  11.357636  10.149995  10.337558
    31  H   10.049793  10.593792   9.821587   8.665174   8.753238
    32  H   10.126004  10.478998   9.485407   8.352919   8.733945
    33  H    8.771309   9.087560   8.117095   7.025192   7.426109
    34  H    9.189696   9.677953   8.771286   7.543535   7.767355
    35  H    7.729371   8.111650   7.146437   5.954090   6.311712
    36  H    8.466533   9.237221   8.597279   7.284936   7.105399
    37  H    6.220045   6.594263   5.656551   4.444633   4.808582
    38  H    3.896165   4.239253   3.383360   2.110594   2.511851
    39  H    3.786969   5.090307   5.443569   4.565766   3.309907
    40  H    2.127107   2.873701   4.096002   4.339579   3.379046
    41  H   11.438870  12.119347  11.405939  10.166171  10.112528
    42  H    9.810451  10.504691   9.769672   8.475961   8.423510
    43  H   10.433759  11.265646  10.672736   9.364603   9.115201
    44  H   12.003970  12.718319  11.983308  10.694146  10.628762
    45  H   12.732777  13.489534  12.790931  11.493410  11.373917
    46  H   12.265104  12.766616  11.841975  10.627384  10.844282
    47  H   13.473403  14.033557  13.151188  11.918537  12.062869
                   21         22         23         24         25
    21  C    0.000000
    22  N    1.342791   0.000000
    23  S    2.157302   1.317439   0.000000
    24  N    2.204924   2.171090   1.324936   0.000000
    25  C    1.423141   2.212584   2.158533   1.332165   0.000000
    26  C    6.668164   7.327361   6.635542   5.355734   5.301507
    27  C    6.136415   6.692907   5.897320   4.607784   4.715305
    28  C    7.540806   8.063939   7.213698   5.959797   6.127483
    29  C    8.295167   8.997998   8.286911   6.980782   6.908301
    30  Se   7.805128   8.587704   7.973392   6.661800   6.458894
    31  H    6.385641   7.135648   6.675063   5.523219   5.238122
    32  H    6.850715   7.884466   7.601661   6.332579   5.704216
    33  H    5.902554   7.008120   6.933877   5.792220   4.970571
    34  H    5.584486   6.586691   6.293390   5.028534   4.402273
    35  H    4.756562   5.961596   5.999998   4.878118   3.872033
    36  H    4.037876   4.736003   4.179519   2.876386   2.655761
    37  H    3.790524   5.105217   5.453058   4.566895   3.319755
    38  H    3.309896   4.565752   5.443555   5.090293   3.786960
    39  H    2.360265   1.907480   3.177633   4.042622   3.729338
    40  H    5.997701   5.997898   7.289870   8.038869   7.401747
    41  H    7.167690   7.692822   6.903389   5.696781   5.820677
    42  H    5.487947   6.172996   5.522098   4.209672   4.097273
    43  H    5.760027   6.122475   5.186511   3.966535   4.350937
    44  H    7.583409   8.082976   7.245502   6.034298   6.210802
    45  H    8.149194   8.539404   7.573562   6.382510   6.732408
    46  H    8.348671   9.139728   8.528124   7.220941   7.012564
    47  H    9.320298   9.981266   9.215187   7.923624   7.922142
                   26         27         28         29         30
    26  C    0.000000
    27  C    1.548460   0.000000
    28  C    2.420261   1.551924   0.000000
    29  C    2.470945   2.442573   1.543113   0.000000
    30  Se   1.542677   2.440763   2.470717   1.538876   0.000000
    31  H    2.076314   3.373198   4.490816   4.328833   2.942029
    32  H    2.632481   3.444957   4.109121   3.352190   2.215300
    33  H    3.444349   4.255755   5.332475   4.887188   3.653354
    34  H    3.142693   2.782456   3.523128   3.430602   3.186743
    35  H    4.161713   4.095084   5.128626   5.014150   4.407767
    36  H    3.172849   2.252556   3.548583   4.312354   4.121582
    37  H    5.280582   5.195761   6.405933   6.453994   5.769696
    38  H    7.416224   7.251931   8.551955   8.758440   8.073111
    39  H    8.973019   8.418517   9.799191  10.629328  10.154492
    40  H   12.392496  12.056666  13.464256  14.053562  13.411696
    41  H    1.069995   2.193968   2.872739   3.050622   2.187600
    42  H    2.176771   1.070000   2.179852   2.852146   2.850276
    43  H    2.204416   1.070002   2.207522   3.394810   3.393100
    44  H    3.349871   2.175080   1.069998   2.167259   3.332064
    45  H    2.872874   2.196552   1.069995   2.188684   3.051026
    46  H    3.190173   2.974216   2.160037   1.069992   2.156291
    47  H    3.210923   3.324428   2.172025   1.070001   2.168259
                   31         32         33         34         35
    31  H    0.000000
    32  H    2.680197   0.000000
    33  H    2.473507   1.711014   0.000000
    34  H    3.979116   2.326991   2.989832   0.000000
    35  H    4.160754   2.744973   2.371227   1.726948   0.000000
    36  H    4.000421   3.883989   3.967597   2.294098   2.872510
    37  H    4.884232   4.040205   3.077814   3.160705   1.528766
    38  H    6.775075   6.343792   5.126401   5.446526   3.881638
    39  H    8.571531   9.162408   8.090849   7.897700   6.967034
    40  H   11.607789  11.955520  10.602674  10.946048   9.595520
    41  H    2.180685   3.513241   4.164512   4.200573   5.133295
    42  H    3.644868   3.192272   3.884063   1.886923   3.211267
    43  H    3.718533   4.332627   4.866944   3.552443   4.654513
    44  H    5.373178   4.694478   5.911367   3.613126   5.282287
    45  H    4.898651   4.942210   6.119879   4.552034   6.103186
    46  H    4.901654   3.330480   4.933923   3.089932   4.716187
    47  H    4.993726   4.163558   5.743907   4.481170   6.045520
                   36         37         38         39         40
    36  H    0.000000
    37  H    3.502137   0.000000
    38  H    5.256597   2.365642   0.000000
    39  H    6.339598   5.796016   4.435540   0.000000
    40  H    9.919361   8.119535   5.883710   4.133317   0.000000
    41  H    3.919243   6.138689   8.163587   9.394183  12.883637
    42  H    1.465220   4.319508   6.388371   7.800748  11.335030
    43  H    2.245568   5.523554   7.356893   7.938112  11.743385
    44  H    3.630443   6.540706   8.618757   9.784822  13.466372
    45  H    4.291818   7.323759   9.414994  10.346634  14.127802
    46  H    4.405534   6.214613   8.531890  10.677344  13.972369
    47  H    5.333245   7.496371   9.811706  11.646835  15.104827
                   41         42         43         44         45
    41  H    0.000000
    42  H    3.047019   0.000000
    43  H    2.470876   1.700663   0.000000
    44  H    3.893048   2.407784   2.680196   0.000000
    45  H    2.936926   3.049288   2.473495   1.711012   0.000000
    46  H    3.952624   3.014942   3.979113   2.326990   2.989819
    47  H    3.521878   3.870746   4.160757   2.744983   2.371228
                   46         47
    46  H    0.000000
    47  H    1.726945   0.000000
 Stoichiometry    C19H19N5S2SeSi
 Framework group  C1[X(C19H19N5S2SeSi)]
 Deg. of freedom   135
 Full point group                 C1      NOp   1
 Largest Abelian subgroup         C1      NOp   1
 Largest concise Abelian subgroup C1      NOp   1
                         Standard orientation:                         
 ---------------------------------------------------------------------
 Center     Atomic      Atomic             Coordinates (Angstroms)
 Number     Number       Type             X           Y           Z
 ---------------------------------------------------------------------
      1         14           0       -2.129002    0.376497    1.148982
      2          1           0       -1.104603    0.131351    2.101297
      3          1           0       -2.503923    1.736491    1.311025
      4          6           0       -3.350401   -0.555819    1.340507
      5          6           0       -2.925439   -1.834586    0.570679
      6          6           0       -2.172380   -1.300088   -0.665604
      7          6           0       -1.666231    0.105781   -0.297531
      8          6           0       -0.187247    0.154187   -0.378687
      9          6           0        0.580582   -0.953712   -0.465107
     10          6           0        1.935965   -0.887708   -0.390155
     11          6           0        2.581972    0.289834   -0.237769
     12          6           0        4.024185    0.322352   -0.173855
     13          6           0        4.609821    1.528481   -0.002246
     14          7           0        5.947311    1.649211    0.206539
     15          6           0        6.754444    0.567723    0.264648
     16          6           0        6.200427   -0.718823    0.097902
     17          7           0        6.685078   -1.959706    0.095201
     18         16           0        5.685904   -2.804482   -0.113271
     19          7           0        4.549723   -2.151182   -0.247163
     20          6           0        4.800105   -0.837467   -0.126523
     21          6           0        1.849348    1.474592   -0.142399
     22          7           0        2.160256    2.771564    0.013441
     23         16           0        1.041483    3.466864    0.036923
     24          7           0       -0.005438    2.665986   -0.097270
     25          6           0        0.429376    1.412192   -0.213906
     26          6           0       -4.605926    0.054544    0.739247
     27          6           0       -4.252055    0.922171   -0.493526
     28          6           0       -5.584859    0.942429   -1.288317
     29          6           0       -6.153592   -0.481053   -1.111007
     30         34           0       -5.530871   -1.045251    0.178194
     31          1           0       -3.589729   -0.737540    2.367444
     32          1           0       -3.782985   -2.402761    0.276236
     33          1           0       -2.323679   -2.489738    1.165298
     34          1           0       -2.832866   -1.246567   -1.505722
     35          1           0       -1.361228   -1.944948   -0.932227
     36          1           0       -2.051954    0.843020   -0.970286
     37          1           0        0.127204   -1.872199   -0.591049
     38          1           0        2.485981   -1.758795   -0.451142
     39          1           0        4.026455    2.379321   -0.030485
     40          1           0        7.766820    0.681554    0.429473
     41          1           0       -5.070470    0.620371    1.519584
     42          1           0       -3.467054    0.475685   -1.067392
     43          1           0       -3.894312    1.897764   -0.238297
     44          1           0       -5.406993    1.153892   -2.322021
     45          1           0       -6.257538    1.698533   -0.940898
     46          1           0       -5.887084   -1.092098   -1.947955
     47          1           0       -7.221676   -0.465139   -1.048996
 ---------------------------------------------------------------------
 Rotational constants (GHZ):      0.3365201      0.0551861      0.0488740
 Standard basis: 6-31++G(d,p) (6D, 7F)
 There are   673 symmetry adapted basis functions of A   symmetry.
 Integral buffers will be    131072 words long.
 Raffenetti 2 integral format.
 Two-electron integral symmetry is turned on.
   673 basis functions,  1175 primitive gaussians,   673 cartesian basis functions
   124 alpha electrons      124 beta electrons
       nuclear repulsion energy      3743.0463081614 Hartrees.
 NAtoms=   47 NActive=   47 NUniq=   47 SFac= 1.00D+00 NAtFMM=   60 NAOKFM=F Big=F
 One-electron integrals computed using PRISM.
 NBasis=   673 RedAO= T  NBF=   673
 NBsUse=   665 1.00D-06 NBFU=   665
 Harris functional with IExCor=  402 diagonalized for initial guess.
 ExpMin= 3.00D-02 ExpMax= 5.61D+05 ExpMxC= 5.42D+03 IAcc=3 IRadAn=         5 AccDes= 0.00D+00
 HarFok:  IExCor=  402 AccDes= 0.00D+00 IRadAn=         5 IDoV= 1
 ScaDFX=  1.000000  1.000000  1.000000  1.000000
 FoFCou: FMM=F IPFlag=           0 FMFlag=      100000 FMFlg1=           0
         NFxFlg=           0 DoJE=T BraDBF=F KetDBF=T FulRan=T
         Omega=  0.000000  0.000000  1.000000  0.000000  0.000000 ICntrl=     500 IOpCl=  0
         NMat0=    1 NMatS0=    1 NMatT0=    0 NMatD0=    1 NMtDS0=    0 NMtDT0=    0
         I1Cent=           4 NGrid=           0.
 Petite list used in FoFCou.
 Initial guess orbital symmetries:
       Occupied  (A) (A) (A) (A) (A) (A) (A) (A) (A) (A) (A) (A)
                 (A) (A) (A) (A) (A) (A) (A) (A) (A) (A) (A) (A)
                 (A) (A) (A) (A) (A) (A) (A) (A) (A) (A) (A) (A)
                 (A) (A) (A) (A) (A) (A) (A) (A) (A) (A) (A) (A)
                 (A) (A) (A) (A) (A) (A) (A) (A) (A) (A) (A) (A)
                 (A) (A) (A) (A) (A) (A) (A) (A) (A) (A) (A) (A)
                 (A) (A) (A) (A) (A) (A) (A) (A) (A) (A) (A) (A)
                 (A) (A) (A) (A) (A) (A) (A) (A) (A) (A) (A) (A)
                 (A) (A) (A) (A) (A) (A) (A) (A) (A) (A) (A) (A)
                 (A) (A) (A) (A) (A) (A) (A) (A) (A) (A) (A) (A)
                 (A) (A) (A) (A)
       Virtual   (A) (A) (A) (A) (A) (A) (A) (A) (A) (A) (A) (A)
                 (A) (A) (A) (A) (A) (A) (A) (A) (A) (A) (A) (A)
                 (A) (A) (A) (A) (A) (A) (A) (A) (A) (A) (A) (A)
                 (A) (A) (A) (A) (A) (A) (A) (A) (A) (A) (A) (A)
                 (A) (A) (A) (A) (A) (A) (A) (A) (A) (A) (A) (A)
                 (A) (A) (A) (A) (A) (A) (A) (A) (A) (A) (A) (A)
                 (A) (A) (A) (A) (A) (A) (A) (A) (A) (A) (A) (A)
                 (A) (A) (A) (A) (A) (A) (A) (A) (A) (A) (A) (A)
                 (A) (A) (A) (A) (A) (A) (A) (A) (A) (A) (A) (A)
                 (A) (A) (A) (A) (A) (A) (A) (A) (A) (A) (A) (A)
                 (A) (A) (A) (A) (A) (A) (A) (A) (A) (A) (A) (A)
                 (A) (A) (A) (A) (A) (A) (A) (A) (A) (A) (A) (A)
                 (A) (A) (A) (A) (A) (A) (A) (A) (A) (A) (A) (A)
                 (A) (A) (A) (A) (A) (A) (A) (A) (A) (A) (A) (A)
                 (A) (A) (A) (A) (A) (A) (A) (A) (A) (A) (A) (A)
                 (A) (A) (A) (A) (A) (A) (A) (A) (A) (A) (A) (A)
                 (A) (A) (A) (A) (A) (A) (A) (A) (A) (A) (A) (A)
                 (A) (A) (A) (A) (A) (A) (A) (A) (A) (A) (A) (A)
                 (A) (A) (A) (A) (A) (A) (A) (A) (A) (A) (A) (A)
                 (A) (A) (A) (A) (A) (A) (A) (A) (A) (A) (A) (A)
                 (A) (A) (A) (A) (A) (A) (A) (A) (A) (A) (A) (A)
                 (A) (A) (A) (A) (A) (A) (A) (A) (A) (A) (A) (A)
                 (A) (A) (A) (A) (A) (A) (A) (A) (A) (A) (A) (A)
                 (A) (A) (A) (A) (A) (A) (A) (A) (A) (A) (A) (A)
                 (A) (A) (A) (A) (A) (A) (A) (A) (A) (A) (A) (A)
                 (A) (A) (A) (A) (A) (A) (A) (A) (A) (A) (A) (A)
                 (A) (A) (A) (A) (A) (A) (A) (A) (A) (A) (A) (A)
                 (A) (A) (A) (A) (A) (A) (A) (A) (A) (A) (A) (A)
                 (A) (A) (A) (A) (A) (A) (A) (A) (A) (A) (A) (A)
                 (A) (A) (A) (A) (A) (A) (A) (A) (A) (A) (A) (A)
                 (A) (A) (A) (A) (A) (A) (A) (A) (A) (A) (A) (A)
                 (A) (A) (A) (A) (A) (A) (A) (A) (A) (A) (A) (A)
                 (A) (A) (A) (A) (A) (A) (A) (A) (A) (A) (A) (A)
                 (A) (A) (A) (A) (A) (A) (A) (A) (A) (A) (A) (A)
                 (A) (A) (A) (A) (A) (A) (A) (A) (A) (A) (A) (A)
                 (A) (A) (A) (A) (A) (A) (A) (A) (A) (A) (A) (A)
                 (A) (A) (A) (A) (A) (A) (A) (A) (A) (A) (A) (A)
                 (A) (A) (A) (A) (A) (A) (A) (A) (A) (A) (A) (A)
                 (A) (A) (A) (A) (A) (A) (A) (A) (A) (A) (A) (A)
                 (A) (A) (A) (A) (A) (A) (A) (A) (A) (A) (A) (A)
                 (A) (A) (A) (A) (A) (A) (A) (A) (A) (A) (A) (A)
                 (A) (A) (A) (A) (A) (A) (A) (A) (A) (A) (A) (A)
                 (A) (A) (A) (A) (A) (A) (A) (A) (A) (A) (A) (A)
                 (A) (A) (A) (A) (A) (A) (A) (A) (A) (A) (A) (A)
                 (A) (A) (A) (A) (A) (A) (A) (A) (A) (A) (A) (A)
                 (A)
 The electronic state of the initial guess is 1-A.
 Requested convergence on RMS density matrix=1.00D-08 within 128 cycles.
 Requested convergence on MAX density matrix=1.00D-06.
 Requested convergence on             energy=1.00D-06.
 No special actions if energy rises.
 SCF Done:  E(RB3LYP) =  -4493.63829060     A.U. after   16 cycles
             Convg  =    0.5748D-08             -V/T =  2.0028

 **********************************************************************

            Population analysis using the SCF density.

 **********************************************************************

 Orbital symmetries:
       Occupied  (A) (A) (A) (A) (A) (A) (A) (A) (A) (A) (A) (A)
                 (A) (A) (A) (A) (A) (A) (A) (A) (A) (A) (A) (A)
                 (A) (A) (A) (A) (A) (A) (A) (A) (A) (A) (A) (A)
                 (A) (A) (A) (A) (A) (A) (A) (A) (A) (A) (A) (A)
                 (A) (A) (A) (A) (A) (A) (A) (A) (A) (A) (A) (A)
                 (A) (A) (A) (A) (A) (A) (A) (A) (A) (A) (A) (A)
                 (A) (A) (A) (A) (A) (A) (A) (A) (A) (A) (A) (A)
                 (A) (A) (A) (A) (A) (A) (A) (A) (A) (A) (A) (A)
                 (A) (A) (A) (A) (A) (A) (A) (A) (A) (A) (A) (A)
                 (A) (A) (A) (A) (A) (A) (A) (A) (A) (A) (A) (A)
                 (A) (A) (A) (A)
       Virtual   (A) (A) (A) (A) (A) (A) (A) (A) (A) (A) (A) (A)
                 (A) (A) (A) (A) (A) (A) (A) (A) (A) (A) (A) (A)
                 (A) (A) (A) (A) (A) (A) (A) (A) (A) (A) (A) (A)
                 (A) (A) (A) (A) (A) (A) (A) (A) (A) (A) (A) (A)
                 (A) (A) (A) (A) (A) (A) (A) (A) (A) (A) (A) (A)
                 (A) (A) (A) (A) (A) (A) (A) (A) (A) (A) (A) (A)
                 (A) (A) (A) (A) (A) (A) (A) (A) (A) (A) (A) (A)
                 (A) (A) (A) (A) (A) (A) (A) (A) (A) (A) (A) (A)
                 (A) (A) (A) (A) (A) (A) (A) (A) (A) (A) (A) (A)
                 (A) (A) (A) (A) (A) (A) (A) (A) (A) (A) (A) (A)
                 (A) (A) (A) (A) (A) (A) (A) (A) (A) (A) (A) (A)
                 (A) (A) (A) (A) (A) (A) (A) (A) (A) (A) (A) (A)
                 (A) (A) (A) (A) (A) (A) (A) (A) (A) (A) (A) (A)
                 (A) (A) (A) (A) (A) (A) (A) (A) (A) (A) (A) (A)
                 (A) (A) (A) (A) (A) (A) (A) (A) (A) (A) (A) (A)
                 (A) (A) (A) (A) (A) (A) (A) (A) (A) (A) (A) (A)
                 (A) (A) (A) (A) (A) (A) (A) (A) (A) (A) (A) (A)
                 (A) (A) (A) (A) (A) (A) (A) (A) (A) (A) (A) (A)
                 (A) (A) (A) (A) (A) (A) (A) (A) (A) (A) (A) (A)
                 (A) (A) (A) (A) (A) (A) (A) (A) (A) (A) (A) (A)
                 (A) (A) (A) (A) (A) (A) (A) (A) (A) (A) (A) (A)
                 (A) (A) (A) (A) (A) (A) (A) (A) (A) (A) (A) (A)
                 (A) (A) (A) (A) (A) (A) (A) (A) (A) (A) (A) (A)
                 (A) (A) (A) (A) (A) (A) (A) (A) (A) (A) (A) (A)
                 (A) (A) (A) (A) (A) (A) (A) (A) (A) (A) (A) (A)
                 (A) (A) (A) (A) (A) (A) (A) (A) (A) (A) (A) (A)
                 (A) (A) (A) (A) (A) (A) (A) (A) (A) (A) (A) (A)
                 (A) (A) (A) (A) (A) (A) (A) (A) (A) (A) (A) (A)
                 (A) (A) (A) (A) (A) (A) (A) (A) (A) (A) (A) (A)
                 (A) (A) (A) (A) (A) (A) (A) (A) (A) (A) (A) (A)
                 (A) (A) (A) (A) (A) (A) (A) (A) (A) (A) (A) (A)
                 (A) (A) (A) (A) (A) (A) (A) (A) (A) (A) (A) (A)
                 (A) (A) (A) (A) (A) (A) (A) (A) (A) (A) (A) (A)
                 (A) (A) (A) (A) (A) (A) (A) (A) (A) (A) (A) (A)
                 (A) (A) (A) (A) (A) (A) (A) (A) (A) (A) (A) (A)
                 (A) (A) (A) (A) (A) (A) (A) (A) (A) (A) (A) (A)
                 (A) (A) (A) (A) (A) (A) (A) (A) (A) (A) (A) (A)
                 (A) (A) (A) (A) (A) (A) (A) (A) (A) (A) (A) (A)
                 (A) (A) (A) (A) (A) (A) (A) (A) (A) (A) (A) (A)
                 (A) (A) (A) (A) (A) (A) (A) (A) (A) (A) (A) (A)
                 (A) (A) (A) (A) (A) (A) (A) (A) (A) (A) (A) (A)
                 (A) (A) (A) (A) (A) (A) (A) (A) (A) (A) (A) (A)
                 (A) (A) (A) (A) (A) (A) (A) (A) (A) (A) (A) (A)
                 (A) (A) (A) (A) (A) (A) (A) (A) (A) (A) (A) (A)
                 (A) (A) (A) (A) (A) (A) (A) (A) (A) (A) (A) (A)
                 (A)
 The electronic state is 1-A.
 Alpha  occ. eigenvalues -- -453.84477 -88.97341 -88.96743 -66.04754 -57.45057
 Alpha  occ. eigenvalues --  -52.11976 -52.11766 -52.11571 -14.35329 -14.35191
 Alpha  occ. eigenvalues --  -14.34831 -14.34753 -14.34577 -10.25347 -10.24903
 Alpha  occ. eigenvalues --  -10.24462 -10.24256 -10.23822 -10.21928 -10.21487
 Alpha  occ. eigenvalues --  -10.21402 -10.21055 -10.20445 -10.20074 -10.19460
 Alpha  occ. eigenvalues --  -10.19249 -10.19167 -10.19050 -10.18973 -10.18361
 Alpha  occ. eigenvalues --  -10.15892 -10.15326  -8.04744  -8.04135  -7.70236
 Alpha  occ. eigenvalues --   -6.01167  -6.00566  -6.00532  -6.00341  -5.99912
 Alpha  occ. eigenvalues --   -5.99738  -5.74622  -5.73878  -5.73178  -5.22652
 Alpha  occ. eigenvalues --   -3.58382  -3.58345  -3.58246  -2.10618  -2.10327
 Alpha  occ. eigenvalues --   -2.09545  -2.08979  -2.08948  -1.17240  -1.16719
 Alpha  occ. eigenvalues --   -0.97378  -0.97019  -0.94868  -0.94206  -0.90374
 Alpha  occ. eigenvalues --   -0.86608  -0.84065  -0.82028  -0.80329  -0.79317
 Alpha  occ. eigenvalues --   -0.76496  -0.75915  -0.72031  -0.70059  -0.68960
 Alpha  occ. eigenvalues --   -0.68491  -0.66534  -0.65818  -0.63217  -0.61755
 Alpha  occ. eigenvalues --   -0.60679  -0.57180  -0.57131  -0.56021  -0.55283
 Alpha  occ. eigenvalues --   -0.54497  -0.54009  -0.53855  -0.53192  -0.52006
 Alpha  occ. eigenvalues --   -0.51823  -0.50608  -0.48844  -0.48413  -0.47992
 Alpha  occ. eigenvalues --   -0.47023  -0.46030  -0.44380  -0.44316  -0.43406
 Alpha  occ. eigenvalues --   -0.42116  -0.41630  -0.41028  -0.40260  -0.39610
 Alpha  occ. eigenvalues --   -0.38878  -0.38798  -0.38014  -0.37503  -0.36831
 Alpha  occ. eigenvalues --   -0.36443  -0.35635  -0.35522  -0.33934  -0.33642
 Alpha  occ. eigenvalues --   -0.33467  -0.33288  -0.32910  -0.32622  -0.31617
 Alpha  occ. eigenvalues --   -0.30912  -0.30209  -0.29706  -0.28495  -0.27631
 Alpha  occ. eigenvalues --   -0.27181  -0.25993  -0.22866  -0.18391
 Alpha virt. eigenvalues --   -0.08048  -0.04696  -0.02606  -0.02015  -0.01104
 Alpha virt. eigenvalues --   -0.00882  -0.00695  -0.00083   0.00124   0.00515
 Alpha virt. eigenvalues --    0.01258   0.01636   0.02141   0.02307   0.02516
 Alpha virt. eigenvalues --    0.02680   0.03114   0.03354   0.03634   0.03711
 Alpha virt. eigenvalues --    0.04022   0.04341   0.04475   0.05004   0.05121
 Alpha virt. eigenvalues --    0.05503   0.05857   0.06294   0.06356   0.06645
 Alpha virt. eigenvalues --    0.06939   0.07371   0.07692   0.07966   0.08085
 Alpha virt. eigenvalues --    0.08322   0.08480   0.09038   0.09345   0.09442
 Alpha virt. eigenvalues --    0.09819   0.10051   0.10280   0.10599   0.10930
 Alpha virt. eigenvalues --    0.11177   0.11502   0.11599   0.11993   0.12020
 Alpha virt. eigenvalues --    0.12161   0.12576   0.12677   0.12788   0.12831
 Alpha virt. eigenvalues --    0.13006   0.13196   0.13469   0.13598   0.13722
 Alpha virt. eigenvalues --    0.13981   0.14110   0.14310   0.14436   0.14569
 Alpha virt. eigenvalues --    0.14867   0.15155   0.15284   0.15346   0.15594
 Alpha virt. eigenvalues --    0.16054   0.16142   0.16590   0.16644   0.16727
 Alpha virt. eigenvalues --    0.16920   0.17191   0.17514   0.17736   0.17972
 Alpha virt. eigenvalues --    0.18305   0.18351   0.18535   0.18795   0.19023
 Alpha virt. eigenvalues --    0.19173   0.19452   0.19571   0.19662   0.19928
 Alpha virt. eigenvalues --    0.20371   0.20651   0.20916   0.21101   0.21325
 Alpha virt. eigenvalues --    0.21500   0.21599   0.22074   0.22230   0.22374
 Alpha virt. eigenvalues --    0.22660   0.23012   0.23255   0.23399   0.23617
 Alpha virt. eigenvalues --    0.23833   0.23888   0.24249   0.24441   0.24803
 Alpha virt. eigenvalues --    0.25171   0.25291   0.25492   0.25682   0.25892
 Alpha virt. eigenvalues --    0.26269   0.26516   0.26810   0.27117   0.27275
 Alpha virt. eigenvalues --    0.27509   0.27699   0.28111   0.28748   0.28891
 Alpha virt. eigenvalues --    0.29047   0.29270   0.29439   0.30136   0.30201
 Alpha virt. eigenvalues --    0.30527   0.30813   0.31001   0.31369   0.31572
 Alpha virt. eigenvalues --    0.31748   0.31902   0.32391   0.32701   0.33064
 Alpha virt. eigenvalues --    0.33370   0.33912   0.33961   0.34142   0.34411
 Alpha virt. eigenvalues --    0.34998   0.35217   0.35526   0.35838   0.36049
 Alpha virt. eigenvalues --    0.37082   0.37353   0.37818   0.38083   0.38553
 Alpha virt. eigenvalues --    0.38733   0.39174   0.39723   0.39817   0.40309
 Alpha virt. eigenvalues --    0.40408   0.40797   0.41126   0.41296   0.41962
 Alpha virt. eigenvalues --    0.42646   0.43011   0.43768   0.43974   0.44353
 Alpha virt. eigenvalues --    0.44622   0.44807   0.46663   0.47108   0.47267
 Alpha virt. eigenvalues --    0.47730   0.48821   0.50828   0.51615   0.51840
 Alpha virt. eigenvalues --    0.52455   0.53272   0.54808   0.55078   0.55256
 Alpha virt. eigenvalues --    0.56093   0.58794   0.59439   0.60349   0.61120
 Alpha virt. eigenvalues --    0.62250   0.63951   0.64492   0.65273   0.65666
 Alpha virt. eigenvalues --    0.66815   0.67247   0.67671   0.68096   0.68987
 Alpha virt. eigenvalues --    0.69802   0.70487   0.70605   0.70919   0.71258
 Alpha virt. eigenvalues --    0.71450   0.72319   0.72416   0.73082   0.73274
 Alpha virt. eigenvalues --    0.73532   0.74033   0.74818   0.74998   0.75589
 Alpha virt. eigenvalues --    0.76004   0.76072   0.76334   0.76866   0.77164
 Alpha virt. eigenvalues --    0.77732   0.77940   0.78722   0.78922   0.79870
 Alpha virt. eigenvalues --    0.80956   0.81331   0.81728   0.82025   0.82595
 Alpha virt. eigenvalues --    0.82908   0.83438   0.83993   0.84331   0.84828
 Alpha virt. eigenvalues --    0.86171   0.86711   0.87014   0.87463   0.88161
 Alpha virt. eigenvalues --    0.89400   0.89636   0.90286   0.91470   0.92723
 Alpha virt. eigenvalues --    0.93102   0.93584   0.94257   0.95687   0.96060
 Alpha virt. eigenvalues --    0.97021   0.97639   0.97986   0.98524   0.98711
 Alpha virt. eigenvalues --    0.99228   1.00037   1.00401   1.00507   1.01927
 Alpha virt. eigenvalues --    1.02261   1.02951   1.03816   1.04066   1.05061
 Alpha virt. eigenvalues --    1.05934   1.06188   1.06327   1.07212   1.07500
 Alpha virt. eigenvalues --    1.08459   1.09818   1.10528   1.11212   1.11891
 Alpha virt. eigenvalues --    1.11916   1.13186   1.13337   1.14083   1.14874
 Alpha virt. eigenvalues --    1.15248   1.15680   1.16250   1.17015   1.17795
 Alpha virt. eigenvalues --    1.18707   1.19137   1.19686   1.20155   1.20976
 Alpha virt. eigenvalues --    1.22269   1.22280   1.22868   1.23149   1.24098
 Alpha virt. eigenvalues --    1.24927   1.25489   1.26083   1.27919   1.28244
 Alpha virt. eigenvalues --    1.28644   1.29723   1.30336   1.30736   1.31615
 Alpha virt. eigenvalues --    1.33314   1.33491   1.34123   1.34686   1.35496
 Alpha virt. eigenvalues --    1.35902   1.36902   1.37264   1.37984   1.38516
 Alpha virt. eigenvalues --    1.39143   1.39803   1.41314   1.41521   1.42272
 Alpha virt. eigenvalues --    1.43120   1.45010   1.45425   1.46880   1.48547
 Alpha virt. eigenvalues --    1.49341   1.49974   1.51071   1.52284   1.53237
 Alpha virt. eigenvalues --    1.54260   1.54881   1.57949   1.60567   1.61217
 Alpha virt. eigenvalues --    1.62040   1.63116   1.63663   1.65175   1.65434
 Alpha virt. eigenvalues --    1.66737   1.67978   1.68935   1.71351   1.71554
 Alpha virt. eigenvalues --    1.72874   1.74027   1.75437   1.76524   1.77231
 Alpha virt. eigenvalues --    1.77902   1.78185   1.80023   1.80898   1.83552
 Alpha virt. eigenvalues --    1.84198   1.84639   1.85857   1.86210   1.87557
 Alpha virt. eigenvalues --    1.87887   1.88815   1.89040   1.91314   1.91934
 Alpha virt. eigenvalues --    1.92872   1.93203   1.93756   1.94656   1.94817
 Alpha virt. eigenvalues --    1.95703   1.95878   1.96643   1.99551   2.00850
 Alpha virt. eigenvalues --    2.01654   2.03315   2.03483   2.04877   2.05662
 Alpha virt. eigenvalues --    2.06256   2.07147   2.07606   2.08475   2.08802
 Alpha virt. eigenvalues --    2.08974   2.09600   2.10326   2.10940   2.12723
 Alpha virt. eigenvalues --    2.14896   2.15043   2.17259   2.17709   2.18619
 Alpha virt. eigenvalues --    2.20708   2.21624   2.22907   2.24275   2.24691
 Alpha virt. eigenvalues --    2.26508   2.27683   2.28083   2.29040   2.30373
 Alpha virt. eigenvalues --    2.31265   2.31705   2.32399   2.32591   2.33176
 Alpha virt. eigenvalues --    2.34845   2.35244   2.36098   2.37788   2.38481
 Alpha virt. eigenvalues --    2.38778   2.39963   2.41120   2.41674   2.42910
 Alpha virt. eigenvalues --    2.43467   2.44734   2.46419   2.46856   2.47344
 Alpha virt. eigenvalues --    2.48077   2.49123   2.49880   2.51236   2.52607
 Alpha virt. eigenvalues --    2.52703   2.53034   2.54035   2.55250   2.56327
 Alpha virt. eigenvalues --    2.57659   2.59179   2.60037   2.61071   2.61555
 Alpha virt. eigenvalues --    2.62056   2.62390   2.62656   2.64456   2.65239
 Alpha virt. eigenvalues --    2.65996   2.67065   2.68323   2.68600   2.68722
 Alpha virt. eigenvalues --    2.70553   2.71240   2.71886   2.72960   2.74451
 Alpha virt. eigenvalues --    2.74517   2.74993   2.75570   2.76602   2.77202
 Alpha virt. eigenvalues --    2.77961   2.78998   2.79714   2.80050   2.81086
 Alpha virt. eigenvalues --    2.81156   2.81338   2.82171   2.83016   2.83661
 Alpha virt. eigenvalues --    2.85041   2.86461   2.86737   2.89584   2.90679
 Alpha virt. eigenvalues --    2.91204   2.92682   2.93360   2.94812   2.96530
 Alpha virt. eigenvalues --    2.98444   2.99829   3.02106   3.03108   3.05288
 Alpha virt. eigenvalues --    3.06555   3.08679   3.12360   3.15432   3.19916
 Alpha virt. eigenvalues --    3.22055   3.25426   3.32826   3.34196   3.34917
 Alpha virt. eigenvalues --    3.39663   3.40718   3.41618   3.43996   3.44836
 Alpha virt. eigenvalues --    3.49713   3.49857   3.50902   3.51944   3.52764
 Alpha virt. eigenvalues --    3.55819   3.56905   3.58385   3.59763   3.62997
 Alpha virt. eigenvalues --    3.68605   3.78075   3.90589   3.98983   4.01813
 Alpha virt. eigenvalues --    4.23952   4.24869   4.28549   4.33176   4.37671
 Alpha virt. eigenvalues --    4.40183   4.41352   4.43351   4.43414   4.44835
 Alpha virt. eigenvalues --    4.46505   4.47909   4.52349   4.56740   4.59149
 Alpha virt. eigenvalues --    4.60578   4.61714   4.63659   4.71448   4.76812
 Alpha virt. eigenvalues --    4.81566   4.86791   4.90560   5.01686   8.67693
 Alpha virt. eigenvalues --   86.65603
          Condensed to atoms (all electrons):
              1          2          3          4          5          6
     1  Si  18.587705  -0.026598  -0.572507  -0.574744  -0.381377  -1.614445
     2  H   -0.026598   1.304518  -0.178229  -0.574615   0.190194  -0.754507
     3  H   -0.572507  -0.178229   1.158408   0.790028  -0.105416   0.514767
     4  C   -0.574744  -0.574615   0.790028  26.248071  -3.802783   2.059757
     5  C   -0.381377   0.190194  -0.105416  -3.802783   8.487323  -1.263241
     6  C   -1.614445  -0.754507   0.514767   2.059757  -1.263241  24.601760
     7  C    1.573435   0.274940  -0.341463  -4.709047   0.871262 -11.015602
     8  C    0.300918  -0.065016   0.014249   1.083229  -0.222244  -2.247175
     9  C   -1.069573   0.351343   0.005067  -0.921420   0.116189  -2.752698
    10  C   -0.452109   0.119336   0.009134  -0.170015  -0.036780  -0.000856
    11  C    0.447775  -0.242792   0.025548   0.294999  -0.063115   0.440334
    12  C    0.062011  -0.042799   0.004886  -0.020677   0.002727   0.364471
    13  C   -0.032015   0.021570   0.003127   0.001479  -0.001690  -0.016021
    14  N   -0.000359   0.000118  -0.000018  -0.000041   0.000040  -0.000145
    15  C    0.002181  -0.001182  -0.000034   0.000007   0.000053  -0.003153
    16  C    0.000607  -0.003270  -0.000319  -0.000558   0.002231   0.035025
    17  N    0.000370  -0.000156   0.000002   0.000047  -0.000044  -0.000560
    18  S   -0.001276   0.000649   0.000034  -0.000104   0.000030  -0.001022
    19  N   -0.000275   0.000504  -0.000086   0.000307  -0.000433   0.001143
    20  C    0.017207  -0.015447  -0.000237   0.012126   0.005422   0.075560
    21  C   -0.297640   0.065692   0.028142  -0.027517   0.000689  -0.151687
    22  N   -0.042244   0.033470  -0.001336  -0.005585   0.000112  -0.124412
    23  S   -0.025499   0.071680  -0.033663  -0.070644   0.000437  -0.099670
    24  N    0.011186  -0.046690   0.018230  -0.044961   0.003240   0.042953
    25  C   -0.610303   0.438259  -0.017560  -0.851663   0.138089  -3.992108
    26  C   -0.524564   0.783565  -0.636096 -19.577028   2.247399  -4.089315
    27  C    0.225949  -0.509805   0.157154   7.441879  -0.531871   4.016850
    28  C   -0.990080  -0.048798   0.176452   0.324138  -0.274759   0.197798
    29  C    0.260447   0.002692  -0.038473   0.232454   0.112387  -0.444847
    30  Se  -0.580983  -0.105209   0.175847   0.322203  -0.084677   1.305605
    31  H   -0.147028   0.013545   0.006178   0.701912  -0.216550   0.035100
    32  H    0.137709   0.023042  -0.024527  -0.351429   0.663605   0.004550
    33  H    0.023672   0.025063  -0.016010  -0.428319   0.431618  -0.097581
    34  H    0.005868   0.028251  -0.011899  -0.483325  -0.178117   0.307402
    35  H   -0.174115  -0.093517   0.061998   0.257118  -0.049874   2.210297
    36  H   -0.224722  -0.048260   0.049249   0.263162  -0.103035   0.402567
    37  H   -0.088036   0.078241  -0.018875  -0.160248   0.215972  -0.980562
    38  H    0.019378  -0.007517  -0.001036   0.000795  -0.018759   0.037434
    39  H    0.001019  -0.002839   0.000150  -0.000069   0.000798   0.008483
    40  H    0.000011   0.000020  -0.000004  -0.000001   0.000002   0.000019
[...]
 000433,-0.00000536,-0.00000069,0.00000071,-0.00000054,0.00000169,0.000
 00039,0.00000039,0.00000032,-0.00000040,0.00010790,0.00026222,0.000290
 28,0.00090118,-0.00047673,-0.00036509,0.00018429,-0.00027798,-0.000667
 07,0.11172972,-0.00008095,0.00015442,0.00000485,-0.00000362,-0.0000018
 3,-0.00001810,0.00001923,-0.00000263,0.00000936,-0.00063736,0.00078674
 ,-0.00079063,-0.00011900,0.00006536,-0.00007153,-0.00005175,0.00003641
 ,-0.00003090,0.00007867,-0.00004096,0.00001880,-0.00001136,0.00000751,
 -0.00000940,-0.00001689,0.00003694,-0.00002726,0.00000599,-0.00002113,
 0.00001996,-0.00000059,-0.00000564,-0.00000301,0.00000882,0.00000024,0
 .00000168,-0.00000073,0.00000082,-0.00000140,0.00000033,0.,-0.00000052
 ,-0.00000379,-0.00000418,-0.00000247,0.00000968,0.00000542,0.00000081,
 -0.00000448,-0.00000154,0.00000240,-0.00000117,-0.00000188,-0.00000547
 ,-0.00000027,0.00000485,0.00000869,-0.00000097,0.00000399,-0.00000241,
 -0.00000663,0.00000381,-0.00001216,0.00000702,-0.00000280,0.00000738,0
 .00000193,-0.00000533,-0.00000272,0.00000591,-0.00000359,0.00000040,0.
 00000959,0.00000160,-0.00001789,0.00228406,-0.00452558,-0.00251047,-0.
 00965910,0.00290948,-0.01750415,0.01325166,-0.04905814,0.02677173,0.01
 316657,-0.00528932,0.02639173,0.00038956,-0.00263494,0.00329112,0.0001
 7145,-0.00024092,-0.00054289,0.00008951,-0.00002388,0.00008103,0.00006
 631,-0.00000527,-0.00000025,-0.00004318,0.00003884,0.00000281,0.000009
 35,-0.00001839,0.00001499,0.00001493,-0.00000321,-0.00000585,-0.000003
 58,0.00000211,0.00000191,-0.00000100,-0.00000071,0.00000001,-0.0000019
 2,-0.00000038,-0.00000114,0.00000011,0.00000026,0.00000029,0.00008912,
 0.00043565,0.00019786,0.00000170,0.00058815,0.00105026,-0.00070624,0.0
 0011072,0.00018364,-0.01468057,0.05442730,-0.00015566,0.00059539,-0.00
 003523,0.00002197,-0.00012260,-0.00001684,0.00001885,-0.00009624,0.000
 02312,-0.00103610,0.00032473,-0.00090858,-0.00007791,0.00002882,0.0000
 7238,-0.00001462,0.00002324,-0.00010860,0.00009142,-0.00010041,-0.0000
 1627,-0.00002215,0.00003376,0.00010043,0.00001878,0.00002108,-0.000032
 57,-0.00000819,-0.00000260,0.00002275,-0.00000741,-0.00001040,-0.00001
 555,-0.00000633,0.00000538,0.00002229,0.00000406,-0.00000615,-0.000003
 76,0.00000163,-0.00000311,0.00000130,0.00000055,0.00000560,-0.00000692
 ,-0.00000036,-0.00000955,-0.00000228,0.00000721,-0.00000599,-0.0000115
 9,-0.00000727,0.00000629,0.00001385,0.00000339,0.00000021,-0.00000738,
 0.00000172,0.00000172,-0.00000370,0.00000865,-0.00001352,-0.00000149,0
 .00001474,-0.00000674,-0.00002365,-0.00001181,0.00000340,0.00000442,0.
 00002744,-0.00000964,0.00000342,-0.00001390,-0.00001609,-0.00000142,0.
 00283538,-0.00211231,-0.00225864,-0.01090306,0.00345578,-0.01771555,-0
 .10548847,0.02485452,-0.24354830,-0.00327290,0.00164891,-0.00710550,0.
 00024795,0.00028076,-0.00022319,0.00025638,-0.00028933,-0.00040868,-0.
 00001037,-0.00000181,0.00003447,0.00005171,-0.00001297,-0.00001237,-0.
 00001333,0.00000991,0.00003274,0.00003911,-0.00003057,0.00000124,0.000
 02161,-0.00002720,-0.00001391,-0.00001920,-0.00000535,0.00000521,-0.00
 000065,0.00000393,-0.00000129,-0.00000428,0.00000298,-0.00000009,0.000
 00048,0.00000078,-0.00000118,-0.00011391,-0.00001525,0.00008213,0.0002
 2808,0.00065631,0.00083902,-0.00010993,-0.00042237,0.00040334,0.115311
 93,-0.02819696,0.26582838,-0.00018665,-0.00013720,-0.00000263,0.000028
 38,0.00002760,0.00001207,0.00006949,0.00001670,-0.00001246,0.00028820,
 0.00029780,0.00009282,0.00002137,-0.00001498,-0.00013376,-0.00003214,0
 .00000460,-0.00015918,-0.00003634,0.00000498,0.00005124,0.00005546,0.0
 0001114,-0.00004710,-0.00000536,-0.00001903,0.00002305,0.00000685,0.00
 000744,-0.00002097,0.00001802,0.00000990,0.00001737,-0.00000278,-0.000
 00332,-0.00002605,-0.00000062,0.00000435,0.00000267,0.00000140,0.00000
 163,0.00000105,0.00000112,-0.00000064,0.00000429,-0.00000690,0.0000037
 2,0.00000509,-0.00000228,0.00000566,0.00000646,0.00000423,-0.00000526,
 -0.00000667,0.00000393,-0.00000204,0.00000416,-0.00000164,-0.00000141,
 0.00000520,-0.00001705,0.00001686,-0.00000185,-0.00000899,0.00000537,0
 .00002358,0.00000151,0.00000794,-0.00000184,-0.00000070,0.00000197,-0.
 00000298,-0.00001067,0.00000242,0.00000777,0.00056063,-0.00055841,-0.0
 0116341,-0.01494643,-0.00263311,0.00222390,-0.28424328,-0.06561578,0.0
 2809908,0.00000056,0.00002385,-0.00082294,0.00022494,0.00008039,0.0005
 0159,0.00000079,0.00000586,0.00003935,0.00001631,0.00005599,-0.0000768
 8,0.00006807,-0.00000241,0.00003250,0.00007104,-0.00007066,0.00013902,
 -0.00000847,0.00001180,0.00007508,0.00000225,0.00000468,-0.00000262,0.
 00001065,0.00000935,-0.00000858,-0.00000668,0.00000081,-0.00000043,0.0
 0000227,-0.00000238,0.00000025,-0.00000081,-0.00000088,0.00000075,0.00
 056991,0.00004691,0.00076381,0.00031626,0.00233623,0.00211465,0.000498
 22,0.00037937,-0.00022405,-0.01386449,-0.00356038,0.00162256,0.3078798
 2,0.00022561,-0.00010428,0.00000090,-0.00003264,0.00003237,-0.00001196
 ,-0.00009645,0.00007000,0.00002409,-0.00000348,-0.00003612,0.00007586,
 0.00012507,0.00005060,-0.00019311,0.00000253,0.00000411,0.00008219,0.0
 0001078,0.00003316,-0.00002890,-0.00003981,-0.00003406,0.00000187,0.00
 000112,0.00000675,-0.00000595,-0.00000329,-0.00000807,0.00001165,-0.00
 002648,-0.00000384,-0.00000884,0.00000998,-0.00000218,0.00001413,-0.00
 000317,-0.00000132,-0.00000091,-0.00000009,-0.00000023,-0.00000084,-0.
 00000171,-0.00000284,-0.00000198,0.00000852,0.00000059,-0.00000187,0.0
 0000019,-0.00000279,-0.00000048,-0.00000513,0.00000137,-0.00000175,-0.
 00000133,0.00000325,0.00000061,-0.00000320,0.00000680,-0.00000684,0.00
 003080,-0.00001140,0.00001266,0.00000021,0.00000221,-0.00000473,-0.000
 00145,-0.00000669,-0.00000526,0.00000018,0.00000013,0.00000251,0.00000
 486,0.00000597,-0.00001120,0.00076625,0.00017391,0.00127543,0.02096655
 ,0.00478847,-0.00326336,-0.06399171,-0.06389740,0.00942299,-0.03096077
 ,-0.01210101,0.00209615,-0.00028827,0.00030648,-0.00052041,-0.00007062
 ,-0.00003433,0.00000989,-0.00004541,-0.00011755,0.00004456,-0.00003590
 ,-0.00003216,-0.00006840,-0.00010222,0.00009376,-0.00009831,0.00000702
 ,0.00000462,-0.00007028,-0.00000535,-0.00000341,0.00000411,-0.00001169
 ,-0.00001066,0.00000171,0.00001015,-0.00000317,-0.00000051,-0.00000125
 ,-0.00000017,-0.00000051,0.00000011,0.00000031,-0.00000021,-0.00061288
 ,0.00035637,-0.00034449,0.00181358,-0.00184762,-0.00362004,-0.00010896
 ,0.00081434,0.00081969,0.00338722,0.00096091,-0.00088194,0.06937506,0.
 07469730,0.00018622,-0.00010392,0.00005628,-0.00002680,0.00003091,-0.0
 0002110,-0.00005036,0.00004017,-0.00001087,-0.00020866,0.00001133,0.00
 014803,-0.00002251,0.00003185,0.00015800,0.00003690,0.00005695,0.00011
 211,0.00004577,0.00005680,-0.00006469,-0.00000040,-0.00003600,0.000013
 33,-0.00001371,0.00001112,-0.00001485,-0.00000355,0.00000306,-0.000001
 03,0.00003478,-0.00000856,0.00001287,-0.00000937,0.00000221,-0.0000059
 5,0.00000017,-0.00000136,-0.00000013,0.00000018,0.00000092,-0.00000107
 ,0.00000061,0.00000039,-0.00000044,0.00000331,0.00000129,0.00000652,-0
 .00000068,-0.00000054,-0.00000414,0.00000270,0.,0.00000085,-0.00000184
 ,-0.00000461,0.00000227,-0.00000486,-0.00000377,0.00000387,-0.00002749
 ,-0.00000204,-0.00000910,-0.00000862,0.00000050,-0.00000711,0.00000605
 ,-0.00000292,0.00000405,-0.00002503,0.00000867,-0.00001361,-0.00001630
 ,0.00002101,-0.00001535,0.00123141,0.00013387,0.00152543,0.02349187,0.
 00559905,-0.00401003,0.02665266,0.00873938,-0.05421146,0.00847419,0.00
 183171,-0.00096037,0.00027123,0.00002842,0.00035782,-0.00000651,0.0000
 0863,-0.00000848,-0.00002017,-0.00008786,-0.00003469,-0.00005796,-0.00
 005105,-0.00003553,-0.00009659,0.00005056,-0.00011147,-0.00000330,-0.0
 0000116,-0.00005403,-0.00001285,-0.00000420,0.00000172,0.00000376,-0.0
 0000981,0.00000691,-0.00000766,0.00000038,-0.00000125,0.00000032,0.000
 00017,0.00000014,0.00000013,-0.00000010,0.00000003,-0.00054717,-0.0001
 6659,-0.00078164,0.00204064,-0.00246523,-0.00305645,-0.00084699,0.0003
 8816,0.00085296,-0.02713019,-0.00744503,0.00435436,-0.03329245,-0.0074
 1137,0.05523684,-0.00002501,0.00008736,0.00000829,-0.00000194,-0.00001
 037,-0.00002052,-0.00000658,0.00000253,-0.00000745,0.00001649,-0.00009
 700,0.00007168,0.00006072,-0.00000040,-0.00002322,-0.00002345,-0.00003
 415,-0.00003656,0.00003161,-0.00004022,-0.00001495,-0.00001105,0.00000
 663,0.00004507,-0.00000408,0.00001302,-0.00002301,0.00000473,-0.000006
 49,0.00002082,-0.00002309,-0.00000442,-0.00001705,0.00000230,0.0000037
 3,0.00002350,0.00000099,-0.00000397,-0.00000147,0.00000072,-0.00000006
 ,-0.00000153,-0.00000009,0.00000029,-0.00000375,0.00000168,-0.00000512
 ,-0.00000619,0.00000463,-0.00000498,-0.00000579,-0.00000681,0.00000427
 ,0.00000538,-0.00000135,0.00000219,-0.00000215,0.00000481,0.00000422,-
 0.00000540,0.00001387,-0.00000972,0.00000503,0.00001133,-0.00000941,-0
 .00001464,-0.00000657,0.00000504,0.00000742,0.00000813,-0.00000574,-0.
 00000586,-0.00000310,-0.00000865,-0.00000865,0.00075477,0.00050208,0.0
 0043318,0.00042416,-0.00035015,-0.00026529,-0.00030029,0.00099435,0.00
 073146,-0.27440537,-0.09375762,-0.03758986,0.00185374,0.00042427,-0.00
 119293,0.00000214,0.00001919,-0.00000637,-0.00006000,-0.00004053,-0.00
 000648,0.00000193,-0.00000730,-0.00001905,-0.00000430,0.00000934,-0.00
 000171,0.00001311,-0.00000273,-0.00000967,0.00000566,-0.00000972,-0.00
 000722,-0.00001001,-0.00000634,0.00000464,0.00000436,0.00000166,-0.000
 00146,-0.00000351,0.00000182,-0.00000012,0.00000026,0.00000042,-0.0000
 0077,-0.00009488,0.00017758,0.00011302,-0.00003668,-0.00020218,-0.0003
 7353,0.00001940,-0.00015229,-0.00001432,0.00083308,-0.00033935,0.00040
 613,0.00149649,-0.00015593,0.00032929,0.28889571,-0.00008394,-0.000004
 88,-0.00000352,0.00000795,0.00000276,-0.00001674,0.00005240,-0.0000020
 4,-0.00000196,0.00000740,-0.00001216,-0.00002288,-0.00010138,-0.000083
 09,0.00002214,0.00001393,0.00003356,0.00000297,0.00004734,-0.00001464,
 0.00002361,0.00001514,0.00001027,-0.00000224,0.00001911,-0.00000984,0.
 00001249,-0.00000907,0.00000698,-0.00000784,0.00002365,-0.00000295,0.0
 0000762,0.00000031,0.00000213,-0.00000570,0.00000105,0.00000111,-0.000
 00021,0.00000028,-0.00000004,0.00000092,-0.00000136,0.00000013,0.00000
 043,-0.00000008,0.00000202,0.00000191,-0.00000076,0.00000209,0.0000022
 2,0.00000120,-0.00000168,-0.00000184,-0.00000017,-0.00000010,0.0000017
 5,-0.00000301,-0.00000402,0.00000069,-0.00002391,0.00000917,-0.0000117
 2,0.00000106,0.00000105,0.00000459,0.00000669,0.00000016,0.00000395,-0
 .00000518,0.00000274,-0.00000726,-0.00001062,0.00000654,-0.00001541,0.
 00017192,-0.00057538,-0.00006417,-0.00096546,0.00067580,0.00037290,-0.
 02898296,-0.01076929,-0.00383138,-0.09261614,-0.09127119,-0.01852526,0
 .00093577,0.00160274,0.00113837,0.00003186,-0.00001426,-0.00003582,0.0
 0005005,0.00002200,-0.00002176,0.00002518,0.00002847,0.00003423,-0.000
 02655,-0.00005035,0.00000432,0.00001018,-0.00000126,-0.00001017,-0.000
 01450,-0.00000288,0.00000402,0.00000352,0.00000619,-0.00000492,-0.0000
 0337,-0.00000152,-0.00000036,0.00000003,-0.00000042,-0.00000017,-0.000
 00016,-0.00000014,0.00000021,0.00008451,0.00012071,0.00004204,0.000779
 05,-0.00020692,-0.00056059,0.00036127,0.00002954,0.00007971,0.00023924
 ,0.00148054,0.00004524,0.00015388,-0.00564738,0.00129486,0.10253648,0.
 09615301,-0.00007110,0.00035623,-0.00001728,0.00004654,-0.00011443,0.0
 0000594,0.00002561,-0.00008870,0.00002742,-0.00018915,-0.00035824,0.00
 011089,-0.00006875,-0.00005159,0.00007797,0.00000349,0.00005193,-0.000
 08205,0.00008076,-0.00006124,-0.00001360,-0.00003507,0.00003660,0.0000
 6177,0.00003749,0.00000880,-0.00001540,-0.00004277,0.00001933,-0.00000
 343,0.00004500,-0.00001062,0.00001656,-0.00001384,0.00000387,-0.000000
 51,0.00000157,-0.00000432,-0.00000084,0.00000209,-0.00000122,0.0000004
 7,-0.00000110,0.00000371,-0.00000396,0.00000606,-0.00000197,0.00000692
 ,0.00000306,-0.00000385,-0.00000911,-0.00000201,0.00000326,0.00001036,
 0.00001117,-0.00000005,-0.00000209,-0.00001228,-0.00000532,0.00000307,
 -0.00001428,0.00000158,-0.00001450,0.00000861,0.00000300,-0.00001035,-
 0.00000736,0.00000827,0.00000346,0.00001291,0.00000012,0.00000449,-0.0
 0000457,-0.00002229,0.00001195,-0.00110449,0.00069586,-0.00116784,-0.0
 0014064,-0.00010583,-0.00075090,0.01141071,0.00525660,0.00111441,-0.04
 706981,-0.02221274,-0.04290862,-0.01722069,-0.00810617,-0.01644422,-0.
 00004035,0.00007881,0.00016237,-0.00002409,0.00002272,-0.00000215,0.00
 003251,0.00001896,0.00000011,-0.00000211,-0.00001633,0.00004690,0.0000
 3324,-0.00004054,0.00000629,0.00000388,-0.00000962,-0.00000182,-0.0000
 0585,0.00000757,0.00000158,-0.00000862,-0.00000204,0.00000149,-0.00000
 159,0.00000109,0.00000016,0.00000011,0.00000034,-0.00000070,0.00022824
 ,-0.00056570,-0.00002170,0.00011596,-0.00012437,0.00030778,0.00024214,
 0.00004823,0.00027252,0.00031972,-0.00030455,0.00087074,0.00026639,0.0
 0326078,0.00014024,0.04122069,0.01671279,0.05406077,0.00004744,0.00008
 712,-0.00013377,0.00000114,-0.00005485,-0.00000809,-0.00000808,0.00000
 429,0.00001168,0.00007059,-0.00068070,-0.00004299,-0.00006119,-0.00008
 139,-0.00004219,-0.00002813,-0.00001883,-0.00002083,0.00006419,-0.0000
 8858,0.00002935,0.00000156,0.00000216,0.00000763,-0.00001039,-0.000003
 66,0.00000168,0.00000714,-0.00000045,0.00000675,-0.00000225,0.00000084
 ,-0.00001020,-0.00000121,-0.00000299,0.00000297,0.00000131,-0.00000043
 ,-0.00000047,-0.00000027,0.00000042,0.00000144,0.00000115,-0.00000015,
 0.00000044,-0.00000554,-0.00000071,-0.00000402,-0.00000049,0.00000134,
 0.00000362,-0.00000098,-0.00000010,-0.00000304,-0.00000501,0.00000057,
 0.00000243,0.00001007,0.00000335,-0.00000381,0.00000445,-0.00000273,0.
 00000729,0.00000087,-0.00000268,-0.00000059,0.00000291,-0.00000416,-0.
 00000165,0.00000417,0.00000407,-0.00000426,-0.00001665,0.00000251,-0.0
 0001176,0.00065924,-0.00016824,-0.00129369,0.00038964,-0.00097455,-0.0
 0058678,0.00232166,-0.00395003,-0.00186341,-0.18886421,0.11263600,0.08
 108693,0.00406160,-0.00377729,-0.00296590,0.00002949,0.00001230,0.0000
 5651,-0.00001326,0.00004384,-0.00000347,0.00000085,0.00000508,0.000007
 94,0.00001447,-0.00001771,0.00000531,0.00000605,-0.00000962,-0.0000020
 5,0.00001940,-0.00000627,-0.00000600,-0.00000187,-0.00000434,-0.000001
 16,0.00000471,0.00000175,-0.00000180,-0.00000045,-0.00000062,-0.000000
 37,-0.00000004,-0.00000007,0.00000008,-0.00003490,-0.00021371,-0.00000
 688,0.00025134,-0.00024495,-0.00027581,0.00013105,-0.00011500,0.000077
 02,-0.00015304,0.00025339,0.00005609,0.00116415,-0.00013661,-0.0003701
 9,-0.01943866,0.01726814,0.01192254,0.19937595,-0.00010452,0.00010188,
 0.00021820,0.00003132,-0.00001214,-0.00005265,0.00001456,-0.00000865,-
 0.00009135,-0.00015445,0.00023819,-0.00010078,-0.00003431,0.00001775,-
 0.00000781,-0.00000486,0.00005172,0.00010364,0.00007531,0.00000280,-0.
 00003929,-0.00001635,0.00001871,0.00004600,0.00001344,0.00000447,-0.00
 001991,-0.00001538,0.00000567,0.00001222,0.00000986,-0.00001047,-0.000
 00532,-0.00000608,0.00000613,0.00001542,0.00000231,-0.00000430,-0.0000
 0097,0.00000004,0.00000068,-0.00000188,-0.00000077,-0.00000011,-0.0000
 0384,0.00000588,-0.00000054,-0.00000153,0.00000153,-0.00000512,-0.0000
 0662,-0.00000182,0.00000381,0.00000516,-0.00000076,0.00000199,-0.00000
 077,-0.00000125,-0.00000412,-0.00000161,-0.00000213,-0.00000799,-0.000
 00261,0.00000876,-0.00000421,-0.00001898,-0.00000121,0.00000608,0.0000
 1101,0.00000460,-0.00000396,-0.00000798,-0.00000985,-0.00000421,-0.000
 01549,-0.00003789,-0.00066557,0.00092535,-0.00104888,-0.00541205,0.003
 06949,0.01966378,-0.01556773,-0.01426576,0.11081020,-0.13655579,-0.064
 67473,-0.00050005,0.00121018,0.00177957,0.00003206,-0.00000267,-0.0001
 1014,0.00003786,-0.00004055,0.00003821,0.00000207,-0.00001110,-0.00002
 857,-0.00004874,0.00000547,-0.00004732,0.00001066,-0.00002230,-0.00003
 791,-0.00002207,0.00001192,0.00000107,-0.00000359,-0.00000192,0.000007
 45,0.00000147,-0.00000036,0.00000012,-0.00000259,0.00000199,-0.0000000
 7,0.00000048,0.00000055,-0.00000061,0.00003831,-0.00016750,-0.00004625
 ,0.00001292,0.00027375,0.00011871,0.00064343,-0.00097653,-0.00145564,0
 .00018052,-0.00016982,0.00039038,-0.00028640,0.00149491,-0.00054628,-0
 .00953164,0.00847673,0.00561128,-0.11976574,0.14772435,0.00009049,0.00
 041783,-0.00033107,-0.00001031,-0.00018020,-0.00001787,0.00000031,-0.0
 0007129,0.00009154,0.00021265,-0.00188386,-0.00012071,-0.00016569,-0.0
 0015534,0.00000337,-0.00008190,-0.00001494,-0.00011872,0.00013989,-0.0
 0020969,0.00004342,-0.00004332,0.00004834,0.00011197,0.00005924,-0.000
 00939,-0.00000620,-0.00001873,0.00000783,0.00001584,-0.00001728,-0.000
 01102,-0.00002716,-0.00000616,0.00001038,0.00003441,0.00000499,-0.0000
 0803,-0.00000305,-0.00000078,0.,-0.00000138,0.00000297,0.00000315,-0.0
 0000560,-0.00000696,-0.00001075,-0.00001057,0.00001151,-0.00000724,-0.
 00001200,-0.00000696,0.00000791,0.00001317,-0.00000360,0.00000246,-0.0
 0001252,0.00000583,-0.00000415,-0.00000235,0.00001780,-0.00001657,0.00
 001085,0.00001102,-0.00000705,-0.00003259,-0.00000994,0.00000550,0.000
 01265,0.00001684,-0.00000354,-0.00001049,-0.00001914,-0.00002484,-0.00
 000610,0.00090926,0.00104318,-0.00313775,0.00009155,0.00152010,-0.0013
 6012,-0.00843354,0.00755784,0.00673140,0.08730845,-0.06866014,-0.08624
 948,0.00938288,-0.01117562,-0.01376748,0.00007525,0.00002844,0.0003443
 3,-0.00012045,0.00011134,-0.00002840,0.00001055,0.00002944,0.00001338,
 0.00003714,-0.00003273,0.00004660,0.00003255,-0.00001488,0.00001757,0.
 00004211,-0.00003866,-0.00001884,-0.00001750,-0.00000318,0.00000174,0.
 00000960,0.00000260,-0.00000071,-0.00000374,0.00000423,0.00000037,0.00
 000078,0.00000103,-0.00000126,-0.00005211,0.00002376,0.00001373,0.0000
 7442,-0.00005529,-0.00010040,-0.00003195,0.00034763,0.00056539,-0.0000
 0802,-0.00055456,-0.00023108,-0.00012889,-0.00059734,0.00044020,-0.003
 73863,0.00333793,0.00414439,-0.08562248,0.06923941,0.09295758\\0.00002
 113,0.00003057,0.00000724,-0.00000284,0.00000404,0.00000101,0.00000790
 ,-0.00000487,0.00000305,-0.00002870,-0.00004179,0.00001642,0.00000890,
 -0.00000314,0.00000797,-0.00000164,0.00000581,-0.00000472,-0.00002643,
 0.00000652,-0.00000538,0.00001702,-0.00000186,-0.00001207,-0.00000192,
 -0.00000154,0.00001178,0.00000158,-0.00000763,-0.00001145,-0.00000085,
 0.00001266,0.00001830,0.00000824,-0.00000790,-0.00001602,0.00000308,0.
 00000884,0.00000825,0.00000550,-0.00000051,-0.00000012,0.00000004,-0.0
 0000053,0.00000323,0.00000516,0.00000063,-0.00000681,-0.00000452,-0.00
 000753,0.00000257,0.00000358,0.00001131,-0.00003693,-0.00000941,-0.000
 01665,0.00003831,-0.00000946,0.00000320,0.00000536,-0.00000766,-0.0000
 0210,-0.00000803,0.00000847,0.00000097,0.00001206,0.00001277,0.0000084
 0,0.00000126,0.00000761,-0.00000928,-0.00000583,-0.00000358,-0.0000016
 9,0.00000952,0.00000784,-0.00000394,-0.00002616,-0.00000753,-0.0000045
 9,0.00001093,0.00000361,0.00001032,-0.00000965,-0.00000056,-0.00000741
 ,0.00003115,-0.00000841,0.00000661,-0.00002904,-0.00000214,-0.00000791
 ,-0.00000510,-0.00000893,0.00000363,-0.00000221,-0.00000223,0.00000173
 ,-0.00000125,0.00000450,0.00000014,-0.00000148,-0.00000082,0.00000693,
 -0.00000341,0.00000908,0.00000705,0.00000478,-0.00000237,0.00000227,-0
 .00000109,-0.00000149,0.00000203,-0.00000199,0.00000620,-0.00000005,0.
 00000415,0.00000233,-0.00000049,0.00000183,-0.00000341,-0.00000321,0.0
 0000208,0.00000162,0.00000285,-0.00000090,0.00000392,0.00000175,0.0000
 0104,-0.00000307,0.00000128,0.00000051,-0.00000150,-0.00000473,-0.0000
 0285,-0.00000534,0.00000313,-0.00000762,-0.00000528,-0.00000332,-0.000
 00268\\\@


 IT IS DOUBTED WHETHER A MAN EVER BRINGS HIS FACULTIES TO BEAR WITH THEIR FULL FORCE
 ON A SUBJECT UNTIL HE WRITES UPON IT.

                          -- CICERO
 Job cpu time:  1 days  0 hours 51 minutes 38.8 seconds.
 File lengths (MBytes):  RWF=   2287 Int=      0 D2E=      0 Chk=     35 Scr=      1
 Normal termination of Gaussian 09 at Sun Dec 29 20:31:46 2013.
