 Entering Gaussian System, Link 0=g09
 Initial command:
 /opt/gaussian/g09/l1.exe /panfs/panfs.cluster/home/shuo/Gau-2479.inp -scrdir=/panfs/panfs.cluster/home/shuo/
 Default is to use a total of  12 processors:
                               12 via shared-memory
                                1 via Linda
 Entering Link 1 = /opt/gaussian/g09/l1.exe PID=      2480.
  
 Copyright (c) 1988,1990,1992,1993,1995,1998,2003,2009,2011,
            Gaussian, Inc.  All Rights Reserved.
  
 This is part of the Gaussian(R) 09 program.  It is based on
 the Gaussian(R) 03 system (copyright 2003, Gaussian, Inc.),
 the Gaussian(R) 98 system (copyright 1998, Gaussian, Inc.),
 the Gaussian(R) 94 system (copyright 1995, Gaussian, Inc.),
 the Gaussian 92(TM) system (copyright 1992, Gaussian, Inc.),
 the Gaussian 90(TM) system (copyright 1990, Gaussian, Inc.),
 the Gaussian 88(TM) system (copyright 1988, Gaussian, Inc.),
 the Gaussian 86(TM) system (copyright 1986, Carnegie Mellon
 University), and the Gaussian 82(TM) system (copyright 1983,
 Carnegie Mellon University). Gaussian is a federally registered
 trademark of Gaussian, Inc.
  
 This software contains proprietary and confidential information,
 including trade secrets, belonging to Gaussian, Inc.
  
 This software is provided under written license and may be
 used, copied, transmitted, or stored only in accord with that
 written license.
  
 The following legend is applicable only to US Government
 contracts under FAR:
  
                    RESTRICTED RIGHTS LEGEND
  
 Use, reproduction and disclosure by the US Government is
 subject to restrictions as set forth in subparagraphs (a)
 and (c) of the Commercial Computer Software - Restricted
 Rights clause in FAR 52.227-19.
  
 Gaussian, Inc.
 340 Quinnipiac St., Bldg. 40, Wallingford CT 06492
  
  
 ---------------------------------------------------------------
 Warning -- This program may not be used in any manner that
 competes with the business of Gaussian, Inc. or will provide
 assistance to any competitor of Gaussian, Inc.  The licensee
 of this program is prohibited from giving any competitor of
 Gaussian, Inc. access to this program.  By using this program,
 the user acknowledges that Gaussian, Inc. is engaged in the
 business of creating and licensing software in the field of
 computational chemistry and represents and warrants to the
 licensee that it is not a competitor of Gaussian, Inc. and that
 it will not use this program in any manner prohibited above.
 ---------------------------------------------------------------
  

 Cite this work as:
 Gaussian 09, Revision C.01,
 M. J. Frisch, G. W. Trucks, H. B. Schlegel, G. E. Scuseria, 
 M. A. Robb, J. R. Cheeseman, G. Scalmani, V. Barone, B. Mennucci, 
 G. A. Petersson, H. Nakatsuji, M. Caricato, X. Li, H. P. Hratchian, 
 A. F. Izmaylov, J. Bloino, G. Zheng, J. L. Sonnenberg, M. Hada, 
 M. Ehara, K. Toyota, R. Fukuda, J. Hasegawa, M. Ishida, T. Nakajima, 
 Y. Honda, O. Kitao, H. Nakai, T. Vreven, J. A. Montgomery, Jr., 
 J. E. Peralta, F. Ogliaro, M. Bearpark, J. J. Heyd, E. Brothers, 
 K. N. Kudin, V. N. Staroverov, T. Keith, R. Kobayashi, J. Normand, 
 K. Raghavachari, A. Rendell, J. C. Burant, S. S. Iyengar, J. Tomasi, 
 M. Cossi, N. Rega, J. M. Millam, M. Klene, J. E. Knox, J. B. Cross, 
 V. Bakken, C. Adamo, J. Jaramillo, R. Gomperts, R. E. Stratmann, 
 O. Yazyev, A. J. Austin, R. Cammi, C. Pomelli, J. W. Ochterski, 
 R. L. Martin, K. Morokuma, V. G. Zakrzewski, G. A. Voth, 
 P. Salvador, J. J. Dannenberg, S. Dapprich, A. D. Daniels, 
 O. Farkas, J. B. Foresman, J. V. Ortiz, J. Cioslowski, 
 and D. J. Fox, Gaussian, Inc., Wallingford CT, 2010.
 
 ******************************************
 Gaussian 09:  EM64L-G09RevC.01 23-Sep-2011
                29-Dec-2013 
 ******************************************
 %chk=59_C19H10N6S3.chk
 %NProcShared=12
 Will use up to   12 processors via shared memory.
 %Mem=8000MB
 Default route:  MaxDisk=100GB
 --------------------------------------------
 #B3LYP/6-31++G(d,p) opt scf=direct freq test
 --------------------------------------------
 1/14=-1,18=20,19=15,26=3,38=1/1,3;
 2/9=110,12=2,17=6,18=5,40=1/2;
 3/5=1,6=6,7=1111,11=2,16=1,25=1,30=1,71=1,74=-5/1,2,3;
 4//1;
 5/5=2,38=5/2;
 6/7=2,8=2,9=2,10=2,28=1/1;
 7//1,2,3,16;
 1/14=-1,18=20,19=15/3(2);
 2/9=110/2;
 99//99;
 2/9=110/2;
 3/5=1,6=6,7=1111,11=2,16=1,25=1,30=1,71=1,74=-5/1,2,3;
 4/5=5,16=3/1;
 5/5=2,38=5/2;
 7//1,2,3,16;
 1/14=-1,18=20,19=15/3(-5);
 2/9=110/2;
 6/7=2,8=2,9=2,10=2,19=2,28=1/1;
 99/9=1/99;
 ----------------------------------------------------------------------
 Geom opt of No.59 candidate from the CEPDB database with SMILE code of
  c1cc2c(sc(-c3cnc(s3)-c3ncncn3)c2[Se]1)-c1scc2nccnc12, HPC, 20131227, 
 Shuo Dai, Gaussian09
 ----------------------------------------------------------------------
 Charge =  0 Multiplicity = 1
 Symbolic Z-Matrix:
 C                    -2.094    -0.044     0.002 
 C                    -1.292    -1.075     0. 
 C                    -0.015    -0.662     0. 
 C                     1.242    -1.078    -0.001 
 S                     2.041    -0.071     0. 
 C                     1.349     1.058     0.001 
 C                     1.88961   2.39699   0.00103 
 C                     1.17774   3.55004  -0.0166 
 N                     2.09046   4.55164   0.00149 
 C                     3.27324   4.00048   0.02186 
 S                     3.15395   2.72003   0.0174 
 C                     4.52548   4.71913   0.04578 
 N                     4.53868   6.09959   0.04668 
 C                     5.68271   6.76524   0.06864 
 N                     6.84779   6.14006   0.09648 
 C                     6.90958   4.75995   0.0972 
 N                     5.72983   4.03064   0.06843 
 C                     0.021     0.714     0.002 
 Se                   -1.249     1.158    -0.004 
 C                     1.65524  -2.46161  -0.00293 
 S                     2.8821   -2.89421  -0.00637 
 C                     2.90074  -4.29221  -0.00805 
 C                     1.60151  -4.75728  -0.00582 
 N                     1.03748  -6.02791  -0.00589 
 C                    -0.33166  -6.17278   0.00267 
 C                    -1.16268  -5.05224   0.00037 
 N                    -0.62026  -3.78251   0.0015 
 C                     0.76888  -3.62432  -0.00211 
 H                    -3.12569  -0.06895   0.00687 
 H                    -1.59544  -2.06138  -0.00138 
 H                     0.15044   3.64581  -0.03918 
 H                     5.665     7.79708   0.06392 
 H                     7.8217    4.27768   0.11885 
 H                     3.74847  -4.88075  -0.01055 
 H                    -0.74644  -7.11772   0.01085 
 H                    -2.1876   -5.17291  -0.00219 
 

 GradGradGradGradGradGradGradGradGradGradGradGradGradGradGradGradGradGrad
 Berny optimization.
 Initialization pass.
                           ----------------------------
                           !    Initial Parameters    !
                           ! (Angstroms and Degrees)  !
 --------------------------                            --------------------------
 ! Name  Definition              Value          Derivative Info.                !
 --------------------------------------------------------------------------------
 ! R1    R(1,2)                  1.3062         estimate D2E/DX2                !
 ! R2    R(1,19)                 1.4693         estimate D2E/DX2                !
 ! R3    R(1,29)                 1.032          estimate D2E/DX2                !
 ! R4    R(2,3)                  1.3421         estimate D2E/DX2                !
 ! R5    R(2,19)                 2.2334         estimate D2E/DX2                !
 ! R6    R(2,30)                 1.032          estimate D2E/DX2                !
 ! R7    R(3,4)                  1.324          estimate D2E/DX2                !
 ! R8    R(3,5)                  2.1393         estimate D2E/DX2                !
 ! R9    R(3,18)                 1.3765         estimate D2E/DX2                !
 ! R10   R(3,19)                 2.1989         estimate D2E/DX2                !
 ! R11   R(4,5)                  1.2855         estimate D2E/DX2                !
 ! R12   R(4,20)                 1.444          estimate D2E/DX2                !
 ! R13   R(5,6)                  1.3242         estimate D2E/DX2                !
 ! R14   R(5,18)                 2.1672         estimate D2E/DX2                !
 ! R15   R(6,7)                  1.444          estimate D2E/DX2                !
 ! R16   R(6,18)                 1.3718         estimate D2E/DX2                !
 ! R17   R(7,8)                  1.3552         estimate D2E/DX2                !
 ! R18   R(7,11)                 1.3051         estimate D2E/DX2                !
 ! R19   R(8,9)                  1.3552         estimate D2E/DX2                !
 ! R20   R(8,11)                 2.1437         estimate D2E/DX2                !
 ! R21   R(8,31)                 1.032          estimate D2E/DX2                !
 ! R22   R(9,10)                 1.3051         estimate D2E/DX2                !
 ! R23   R(10,11)                1.286          estimate D2E/DX2                !
 ! R24   R(10,12)                1.444          estimate D2E/DX2                !
 ! R25   R(12,13)                1.3805         estimate D2E/DX2                !
 ! R26   R(12,17)                1.3874         estimate D2E/DX2                !
 ! R27   R(13,14)                1.3238         estimate D2E/DX2                !
 ! R28   R(14,15)                1.3225         estimate D2E/DX2                !
 ! R29   R(14,32)                1.032          estimate D2E/DX2                !
 ! R30   R(15,16)                1.3815         estimate D2E/DX2                !
 ! R31   R(16,17)                1.3873         estimate D2E/DX2                !
 ! R32   R(16,33)                1.032          estimate D2E/DX2                !
 ! R33   R(18,19)                1.3454         estimate D2E/DX2                !
 ! R34   R(20,21)                1.3009         estimate D2E/DX2                !
 ! R35   R(20,28)                1.462          estimate D2E/DX2                !
 ! R36   R(21,22)                1.3981         estimate D2E/DX2                !
 ! R37   R(22,23)                1.38           estimate D2E/DX2                !
 ! R38   R(22,34)                1.032          estimate D2E/DX2                !
 ! R39   R(23,24)                1.3902         estimate D2E/DX2                !
 ! R40   R(23,28)                1.406          estimate D2E/DX2                !
 ! R41   R(24,25)                1.3768         estimate D2E/DX2                !
 ! R42   R(25,26)                1.3951         estimate D2E/DX2                !
 ! R43   R(25,35)                1.032          estimate D2E/DX2                !
 ! R44   R(26,27)                1.3807         estimate D2E/DX2                !
 ! R45   R(26,36)                1.032          estimate D2E/DX2                !
 ! R46   R(27,28)                1.3981         estimate D2E/DX2                !
 ! A1    A(2,1,29)             126.4935         estimate D2E/DX2                !
 ! A2    A(19,1,29)            126.4929         estimate D2E/DX2                !
 ! A3    A(1,2,3)              109.9569         estimate D2E/DX2                !
 ! A4    A(1,2,30)             125.0218         estimate D2E/DX2                !
 ! A5    A(3,2,30)             125.0214         estimate D2E/DX2                !
 ! A6    A(19,2,30)            164.0027         estimate D2E/DX2                !
 ! A7    A(2,3,4)              143.7662         estimate D2E/DX2                !
 ! A8    A(2,3,18)             109.4206         estimate D2E/DX2                !
 ! A9    A(4,3,18)             106.8132         estimate D2E/DX2                !
 ! A10   A(4,3,19)             142.4497         estimate D2E/DX2                !
 ! A11   A(5,3,19)             108.1007         estimate D2E/DX2                !
 ! A12   A(3,4,20)             124.941          estimate D2E/DX2                !
 ! A13   A(5,4,20)             124.9407         estimate D2E/DX2                !
 ! A14   A(3,5,6)               74.5319         estimate D2E/DX2                !
 ! A15   A(4,5,6)              110.0645         estimate D2E/DX2                !
 ! A16   A(4,5,18)              72.8068         estimate D2E/DX2                !
 ! A17   A(5,6,7)              126.5084         estimate D2E/DX2                !
 ! A18   A(7,6,18)             126.5086         estimate D2E/DX2                !
 ! A19   A(6,7,8)              126.3199         estimate D2E/DX2                !
 ! A20   A(6,7,11)             126.3153         estimate D2E/DX2                !
 ! A21   A(7,8,9)              105.9547         estimate D2E/DX2                !
 ! A22   A(7,8,31)             127.0228         estimate D2E/DX2                !
 ! A23   A(9,8,11)              70.4322         estimate D2E/DX2                !
 ! A24   A(9,8,31)             127.0225         estimate D2E/DX2                !
 ! A25   A(11,8,31)            162.5433         estimate D2E/DX2                !
 ! A26   A(8,9,10)             107.3655         estimate D2E/DX2                !
 ! A27   A(9,10,11)            109.6565         estimate D2E/DX2                !
 ! A28   A(9,10,12)            125.1716         estimate D2E/DX2                !
 ! A29   A(11,10,12)           125.1719         estimate D2E/DX2                !
 ! A30   A(7,11,10)            109.6559         estimate D2E/DX2                !
 ! A31   A(8,11,10)             72.5457         estimate D2E/DX2                !
 ! A32   A(10,12,13)           120.3951         estimate D2E/DX2                !
 ! A33   A(10,12,17)           120.4024         estimate D2E/DX2                !
 ! A34   A(13,12,17)           119.2025         estimate D2E/DX2                !
 ! A35   A(12,13,14)           120.7367         estimate D2E/DX2                !
 ! A36   A(13,14,15)           121.6001         estimate D2E/DX2                !
 ! A37   A(13,14,32)           119.1998         estimate D2E/DX2                !
 ! A38   A(15,14,32)           119.2001         estimate D2E/DX2                !
 ! A39   A(14,15,16)           120.7746         estimate D2E/DX2                !
 ! A40   A(15,16,17)           119.1528         estimate D2E/DX2                !
 ! A41   A(15,16,33)           120.4238         estimate D2E/DX2                !
 ! A42   A(17,16,33)           120.4233         estimate D2E/DX2                !
 ! A43   A(12,17,16)           118.532          estimate D2E/DX2                !
 ! A44   A(3,18,6)             106.0211         estimate D2E/DX2                !
 ! A45   A(6,18,19)            146.2064         estimate D2E/DX2                !
 ! A46   A(1,19,3)              69.2449         estimate D2E/DX2                !
 ! A47   A(1,19,18)            105.8357         estimate D2E/DX2                !
 ! A48   A(2,19,18)             71.833          estimate D2E/DX2                !
 ! A49   A(4,20,21)            126.0523         estimate D2E/DX2                !
 ! A50   A(4,20,28)            126.0516         estimate D2E/DX2                !
 ! A51   A(21,20,28)           107.8961         estimate D2E/DX2                !
 ! A52   A(20,21,22)           110.187          estimate D2E/DX2                !
 ! A53   A(21,22,23)           108.9312         estimate D2E/DX2                !
 ! A54   A(21,22,34)           125.5344         estimate D2E/DX2                !
 ! A55   A(23,22,34)           125.5344         estimate D2E/DX2                !
 ! A56   A(22,23,24)           133.6315         estimate D2E/DX2                !
 ! A57   A(22,23,28)           106.6177         estimate D2E/DX2                !
 ! A58   A(24,23,28)           119.7508         estimate D2E/DX2                !
 ! A59   A(23,24,25)           119.9757         estimate D2E/DX2                !
 ! A60   A(24,25,26)           120.5201         estimate D2E/DX2                !
 ! A61   A(24,25,35)           119.7406         estimate D2E/DX2                !
 ! A62   A(26,25,35)           119.7392         estimate D2E/DX2                !
 ! A63   A(25,26,27)           120.3065         estimate D2E/DX2                !
 ! A64   A(25,26,36)           119.8468         estimate D2E/DX2                !
 ! A65   A(27,26,36)           119.8467         estimate D2E/DX2                !
 ! A66   A(26,27,28)           119.6282         estimate D2E/DX2                !
 ! A67   A(20,28,23)           106.368          estimate D2E/DX2                !
 ! A68   A(20,28,27)           133.8157         estimate D2E/DX2                !
 ! A69   A(23,28,27)           119.8163         estimate D2E/DX2                !
 ! A70   L(2,3,5,18,-1)        181.8846         estimate D2E/DX2                !
 ! A71   L(5,18,19,2,-1)       178.033          estimate D2E/DX2                !
 ! A72   L(2,3,5,18,-2)        179.997          estimate D2E/DX2                !
 ! A73   L(5,18,19,2,-2)       180.32           estimate D2E/DX2                !
 ! D1    D(29,1,2,3)          -179.6967         estimate D2E/DX2                !
 ! D2    D(29,1,2,30)            0.3035         estimate D2E/DX2                !
 ! D3    D(29,1,19,3)          179.814          estimate D2E/DX2                !
 ! D4    D(29,1,19,18)         179.5048         estimate D2E/DX2                !
 ! D5    D(1,2,3,4)            179.9799         estimate D2E/DX2                !
 ! D6    D(1,2,3,18)            -0.0051         estimate D2E/DX2                !
 ! D7    D(30,2,3,4)            -0.0203         estimate D2E/DX2                !
 ! D8    D(30,2,3,18)          179.9947         estimate D2E/DX2                !
 ! D9    D(1,2,5,6)             -0.0493         estimate D2E/DX2                !
 ! D10   D(30,2,5,6)           179.9525         estimate D2E/DX2                !
 ! D11   D(30,2,19,18)        -179.5993         estimate D2E/DX2                !
 ! D12   D(2,3,4,20)             0.0041         estimate D2E/DX2                !
 ! D13   D(18,3,4,20)          179.9893         estimate D2E/DX2                !
 ! D14   D(19,3,4,20)         -179.7095         estimate D2E/DX2                !
 ! D15   D(19,3,5,6)             0.1545         estimate D2E/DX2                !
 ! D16   D(2,3,18,6)          -179.962          estimate D2E/DX2                !
 ! D17   D(4,3,18,6)             0.0473         estimate D2E/DX2                !
 ! D18   D(4,3,19,1)          -179.9959         estimate D2E/DX2                !
 ! D19   D(5,3,19,1)          -179.8234         estimate D2E/DX2                !
 ! D20   D(20,4,5,6)           179.9675         estimate D2E/DX2                !
 ! D21   D(20,4,5,18)         -179.9931         estimate D2E/DX2                !
 ! D22   D(3,4,20,21)          179.8676         estimate D2E/DX2                !
 ! D23   D(3,4,20,28)           -0.0962         estimate D2E/DX2                !
 ! D24   D(5,4,20,21)           -0.1325         estimate D2E/DX2                !
 ! D25   D(5,4,20,28)          179.9036         estimate D2E/DX2                !
 ! D26   D(3,5,6,7)           -179.9575         estimate D2E/DX2                !
 ! D27   D(4,5,6,7)           -179.9378         estimate D2E/DX2                !
 ! D28   D(4,5,19,1)             0.2845         estimate D2E/DX2                !
 ! D29   D(4,5,19,2)             0.1115         estimate D2E/DX2                !
 ! D30   D(5,6,7,8)            179.021          estimate D2E/DX2                !
 ! D31   D(5,6,7,11)            -0.944          estimate D2E/DX2                !
 ! D32   D(18,6,7,8)            -0.9788         estimate D2E/DX2                !
 ! D33   D(18,6,7,11)          179.0561         estimate D2E/DX2                !
 ! D34   D(7,6,18,3)           179.9338         estimate D2E/DX2                !
 ! D35   D(7,6,18,19)            0.5542         estimate D2E/DX2                !
 ! D36   D(6,7,8,9)            179.5408         estimate D2E/DX2                !
 ! D37   D(6,7,8,31)            -0.4587         estimate D2E/DX2                !
 ! D38   D(6,7,11,10)         -179.5189         estimate D2E/DX2                !
 ! D39   D(7,8,9,10)             0.2961         estimate D2E/DX2                !
 ! D40   D(11,8,9,10)           -0.0053         estimate D2E/DX2                !
 ! D41   D(31,8,9,10)         -179.7044         estimate D2E/DX2                !
 ! D42   D(9,8,11,10)            0.0053         estimate D2E/DX2                !
 ! D43   D(31,8,11,10)         179.2046         estimate D2E/DX2                !
 ! D44   D(8,9,10,11)            0.0088         estimate D2E/DX2                !
 ! D45   D(8,9,10,12)         -179.9908         estimate D2E/DX2                !
 ! D46   D(9,10,11,7)           -0.3285         estimate D2E/DX2                !
 ! D47   D(9,10,11,8)           -0.0056         estimate D2E/DX2                !
 ! D48   D(12,10,11,7)         179.6711         estimate D2E/DX2                !
 ! D49   D(12,10,11,8)         179.994          estimate D2E/DX2                !
 ! D50   D(9,10,12,13)          -0.0882         estimate D2E/DX2                !
 ! D51   D(9,10,12,17)         179.8976         estimate D2E/DX2                !
 ! D52   D(11,10,12,13)        179.9123         estimate D2E/DX2                !
 ! D53   D(11,10,12,17)         -0.1019         estimate D2E/DX2                !
 ! D54   D(10,12,13,14)        179.9948         estimate D2E/DX2                !
 ! D55   D(17,12,13,14)          0.0088         estimate D2E/DX2                !
 ! D56   D(10,12,17,16)       -179.7076         estimate D2E/DX2                !
 ! D57   D(13,12,17,16)          0.2784         estimate D2E/DX2                !
 ! D58   D(12,13,14,15)         -0.3097         estimate D2E/DX2                !
 ! D59   D(12,13,14,32)        179.6903         estimate D2E/DX2                !
 ! D60   D(13,14,15,16)          0.3097         estimate D2E/DX2                !
 ! D61   D(32,14,15,16)       -179.6903         estimate D2E/DX2                !
 ! D62   D(14,15,16,17)         -0.0088         estimate D2E/DX2                !
 ! D63   D(14,15,16,33)        179.9904         estimate D2E/DX2                !
 ! D64   D(15,16,17,12)         -0.2784         estimate D2E/DX2                !
 ! D65   D(33,16,17,12)        179.7224         estimate D2E/DX2                !
 ! D66   D(6,18,19,1)          179.8588         estimate D2E/DX2                !
 ! D67   D(6,18,19,2)          179.5673         estimate D2E/DX2                !
 ! D68   D(4,20,21,22)        -179.9668         estimate D2E/DX2                !
 ! D69   D(28,20,21,22)          0.0025         estimate D2E/DX2                !
 ! D70   D(4,20,28,23)         179.9511         estimate D2E/DX2                !
 ! D71   D(4,20,28,27)          -0.0561         estimate D2E/DX2                !
 ! D72   D(21,20,28,23)         -0.0182         estimate D2E/DX2                !
 ! D73   D(21,20,28,27)        179.9746         estimate D2E/DX2                !
 ! D74   D(20,21,22,23)          0.0146         estimate D2E/DX2                !
 ! D75   D(20,21,22,34)       -179.9853         estimate D2E/DX2                !
 ! D76   D(21,22,23,24)       -179.9877         estimate D2E/DX2                !
 ! D77   D(21,22,23,28)         -0.0256         estimate D2E/DX2                !
 ! D78   D(34,22,23,24)          0.0122         estimate D2E/DX2                !
 ! D79   D(34,22,23,28)        179.9743         estimate D2E/DX2                !
 ! D80   D(22,23,24,25)        179.7178         estimate D2E/DX2                !
 ! D81   D(28,23,24,25)         -0.2404         estimate D2E/DX2                !
 ! D82   D(22,23,28,20)          0.0264         estimate D2E/DX2                !
 ! D83   D(22,23,28,27)       -179.9676         estimate D2E/DX2                !
 ! D84   D(24,23,28,20)        179.9948         estimate D2E/DX2                !
 ! D85   D(24,23,28,27)          0.0008         estimate D2E/DX2                !
 ! D86   D(23,24,25,26)          0.5285         estimate D2E/DX2                !
 ! D87   D(23,24,25,35)       -179.4717         estimate D2E/DX2                !
 ! D88   D(24,25,26,27)         -0.5787         estimate D2E/DX2                !
 ! D89   D(24,25,26,36)        179.4211         estimate D2E/DX2                !
 ! D90   D(35,25,26,27)        179.4214         estimate D2E/DX2                !
 ! D91   D(35,25,26,36)         -0.5787         estimate D2E/DX2                !
 ! D92   D(25,26,27,28)          0.3337         estimate D2E/DX2                !
 ! D93   D(36,26,27,28)       -179.6662         estimate D2E/DX2                !
 ! D94   D(26,27,28,20)        179.9593         estimate D2E/DX2                !
 ! D95   D(26,27,28,23)         -0.0486         estimate D2E/DX2                !
 --------------------------------------------------------------------------------
 Trust Radius=3.00D-01 FncErr=1.00D-07 GrdErr=1.00D-06
 Number of steps in this run=    216 maximum allowed number of steps=    216.
 GradGradGradGradGradGradGradGradGradGradGradGradGradGradGradGradGradGrad

                          Input orientation:                          
 ---------------------------------------------------------------------
 Center     Atomic      Atomic             Coordinates (Angstroms)
 Number     Number       Type             X           Y           Z
 ---------------------------------------------------------------------
      1          6           0       -2.094000   -0.044000    0.002000
      2          6           0       -1.292000   -1.075000    0.000000
      3          6           0       -0.015000   -0.662000    0.000000
      4          6           0        1.242000   -1.078000   -0.001000
      5         16           0        2.041000   -0.071000    0.000000
      6          6           0        1.349000    1.058000    0.001000
      7          6           0        1.889610    2.396990    0.001030
      8          6           0        1.177740    3.550040   -0.016600
      9          7           0        2.090460    4.551640    0.001490
     10          6           0        3.273240    4.000480    0.021860
     11         16           0        3.153950    2.720030    0.017400
     12          6           0        4.525480    4.719130    0.045780
     13          7           0        4.538680    6.099590    0.046680
     14          6           0        5.682710    6.765240    0.068640
     15          7           0        6.847790    6.140060    0.096480
     16          6           0        6.909580    4.759950    0.097200
     17          7           0        5.729830    4.030640    0.068430
     18          6           0        0.021000    0.714000    0.002000
     19         34           0       -1.249000    1.158000   -0.004000
     20          6           0        1.655240   -2.461610   -0.002930
     21         16           0        2.882100   -2.894210   -0.006370
     22          6           0        2.900740   -4.292210   -0.008050
     23          6           0        1.601510   -4.757280   -0.005820
     24          7           0        1.037480   -6.027910   -0.005890
     25          6           0       -0.331660   -6.172780    0.002670
     26          6           0       -1.162680   -5.052240    0.000370
     27          7           0       -0.620260   -3.782510    0.001500
     28          6           0        0.768880   -3.624320   -0.002110
     29          1           0       -3.125690   -0.068950    0.006870
     30          1           0       -1.595440   -2.061380   -0.001380
     31          1           0        0.150440    3.645810   -0.039180
     32          1           0        5.665000    7.797080    0.063920
     33          1           0        7.821700    4.277680    0.118850
     34          1           0        3.748470   -4.880750   -0.010550
     35          1           0       -0.746440   -7.117720    0.010850
     36          1           0       -2.187600   -5.172910   -0.002190
 ---------------------------------------------------------------------
                    Distance matrix (angstroms):
                    1          2          3          4          5
     1  C    0.000000
     2  C    1.306204   0.000000
     3  C    2.168910   1.342124   0.000000
     4  C    3.492572   2.534002   1.324049   0.000000
     5  S    4.135089   3.480935   2.139256   1.285477   0.000000
     6  C    3.615059   3.394786   2.195199   2.138679   1.324200
     7  C    4.672000   4.709284   3.603465   3.534821   2.472629
     8  C    4.860221   5.243175   4.377692   4.628512   3.722556
     9  N    6.215273   6.565068   5.622722   5.693219   4.622905
    10  C    6.720527   6.826594   5.705411   5.469682   4.253921
    11  S    5.931364   5.845428   4.634725   4.252167   3.004798
    12  C    8.155173   8.210792   7.040924   6.662593   5.396303
    13  N    9.040915   9.245201   8.152133   7.898618   6.657084
    14  C   10.336702  10.493839   9.361223   9.013388   7.746027
    15  N   10.872310  10.877618   9.663085   9.139736   7.854413
    16  C   10.205462  10.065883   8.795271   8.137123   6.859344
    17  N    8.821532   8.682070   7.418128   6.800268   5.516847
    18  C    2.246729   2.219120   1.376472   2.168436   2.167171
    19  Se   1.469308   2.233418   2.198902   3.347355   3.512059
    20  C    4.461128   3.257134   2.455261   1.444004   2.421536
    21  S    5.734574   4.553315   3.657320   2.447157   2.945845
    22  C    6.557043   5.284844   4.656182   3.616990   4.307880
    23  C    5.989312   4.683121   4.402778   3.696806   4.706847
    24  N    6.753770   5.473375   5.468157   4.954136   6.040850
    25  C    6.377130   5.187448   5.519871   5.332279   6.546850
    26  C    5.094097   3.979342   4.537772   4.645113   5.922526
    27  N    4.018503   2.789596   3.178667   3.283655   4.567014
    28  C    4.584189   3.278149   3.064280   2.589901   3.774172
    29  H    1.032003   2.091555   3.166725   4.482740   5.166695
    30  H    2.078075   1.032000   2.110937   3.003016   4.145517
    31  H    4.319017   4.936417   4.311164   4.848437   4.170183
    32  H   11.031249  11.274650  10.189334   9.916360   8.662802
    33  H   10.817194  10.569997   9.264363   8.484699   7.234752
    34  H    7.584772   6.315867   5.653465   4.554491   5.103848
    35  H    7.200938   6.067307   6.497033   6.358636   7.578008
    36  H    5.129766   4.194636   5.006846   5.341390   6.626503
                    6          7          8          9         10
     6  C    0.000000
     7  C    1.444006   0.000000
     8  C    2.497980   1.355210   0.000000
     9  N    3.571454   2.163991   1.355208   0.000000
    10  C    3.515867   2.118029   2.143711   1.305052   0.000000
    11  S    2.453662   1.305059   2.143707   2.118032   1.286002
    12  C    4.847257   3.513139   3.546551   2.441175   1.444000
    13  N    5.966052   4.552900   4.219020   2.896890   2.451167
    14  C    7.166464   5.785654   5.535299   4.220047   3.667647
    15  N    7.488200   6.213150   6.234618   5.016402   4.166627
    16  C    6.680849   5.549138   5.859251   4.824570   3.715567
    17  N    5.294602   4.173805   4.578180   3.677083   2.457216
    18  C    1.371831   2.514788   3.062926   4.360063   4.623679
    19  Se   2.599929   3.374314   3.407504   4.761178   5.341443
    20  C    3.532910   4.864251   6.030599   7.026743   6.661617
    21  S    4.239152   5.383483   6.665831   7.487819   6.905834
    22  C    5.570702   6.765195   8.029302   8.880897   8.301106
    23  C    5.820764   7.160072   8.318129   9.321755   8.915930
    24  N    7.092758   8.467887   9.578983  10.631825  10.274629
    25  C    7.423530   8.852966   9.839303  10.994537  10.793095
    26  C    6.606328   8.050311   8.914992  10.139893  10.081150
    27  N    5.225756   6.669758   7.549796   8.763907   8.702568
    28  C    4.718121   6.124722   7.186015   8.282084   8.025582
    29  H    4.614423   5.588750   5.622913   6.968364   7.583323
    30  H    4.289553   5.658855   6.259297   7.570859   7.775007
    31  H    2.852178   2.141467   1.032001   2.141462   3.143469
    32  H    8.002938   6.589271   6.178943   4.828469   4.487366
    33  H    7.230219   6.224192   6.685059   5.738984   4.557931
    34  H    6.405181   7.511391   8.814018   9.577010   8.893995
    35  H    8.439986   9.873123  10.839941  12.009249  11.822534
    36  H    7.164621   8.598083   9.349630  10.623967  10.675787
                   11         12         13         14         15
    11  S    0.000000
    12  C    2.424521   0.000000
    13  N    3.652364   1.380523   0.000000
    14  C    4.770847   2.350802   1.323774   0.000000
    15  N    5.034611   2.723001   2.310001   1.322511   0.000000
    16  C    4.274623   2.385004   2.723666   2.351003   1.381493
    17  N    2.890581   1.387440   2.387439   2.735006   2.387525
    18  C    3.720184   6.027713   7.029652   8.287153   8.721016
    19  Se   4.671869   6.784449   7.610461   8.915998   9.507314
    20  C    5.394065   7.733284   9.033871  10.067790  10.047944
    21  S    5.620868   7.788861   9.145245  10.057535   9.866879
    22  C    7.016856   9.156797  10.520235  11.402300  11.154478
    23  C    7.636804   9.917389  11.247282  12.224165  12.094872
    24  N    9.000358  11.299012  12.622893  13.610599  13.484423
    25  C    9.551532  11.925912  13.203530  14.267773  14.253397
    26  C    8.890544  11.306498  12.524814  13.657118  13.763882
    27  N    7.518507   9.937730  11.147762  12.287675  12.419267
    28  C    6.777884   9.150273  10.429199  11.493202  11.502434
    29  H    6.871128   9.025942   9.838447  11.148896  11.748623
    30  H    6.739358   9.134725  10.209367  11.440524  11.771208
    31  H    3.143460   4.505575   5.028425   6.352045   7.148020
    32  H    5.664272   3.282166   2.037245   1.032003   2.036116
    33  H    4.921835   3.326452   3.755367   3.281121   2.101776
    34  H    7.624047   9.631439  11.008886  11.805788  11.448821
    35  H   10.582741  12.957831  14.234854  15.299473  15.279018
    36  H    9.530532  11.954924  13.126861  14.299169  14.478650
                   16         17         18         19         20
    16  C    0.000000
    17  N    1.387275   0.000000
    18  C    7.989450   6.602670   0.000000
    19  Se   8.918896   7.547276   1.345389   0.000000
    20  C    8.931352   7.665291   3.571451   4.640710   0.000000
    21  S    8.649710   7.487904   4.604904   5.786743   1.300900
    22  C    9.900681   8.790872   5.775391   6.850193   2.214135
    23  C   10.897885   9.709587   5.694996   6.566274   2.296301
    24  N   12.282919  11.099464   6.818111   7.540908   3.619410
    25  C   13.113698  11.868267   6.895804   7.387956   4.209583
    26  C   12.706291  11.402194   5.886478   6.210841   3.827799
    27  N   11.387769  10.068438   4.542006   4.980360   2.631102
    28  C   10.392980   9.122193   4.402313   5.190610   1.462029
    29  H   11.137014   9.758620   3.242637   2.242206   5.346233
    30  H   10.903010   9.527705   3.211794   3.237968   3.275226
    31  H    6.851706   5.593681   2.934955   2.854622   6.290176
    32  H    3.282415   3.767001   9.056964   9.585687  11.014689
    33  H    1.031996   2.107010   8.576969   9.592971   9.135540
    34  H   10.146296   9.129343   6.722754   7.838447   3.199048
    35  H   14.131565  12.893073   7.869236   8.290979   5.239047
    36  H   13.469605  12.140676   6.287578   6.400109   4.703038
                   21         22         23         24         25
    21  S    0.000000
    22  C    1.398125   0.000000
    23  C    2.260739   1.379961   0.000000
    24  N    3.636303   2.546448   1.390191   0.000000
    25  C    4.591008   3.739662   2.396009   1.376810   0.000000
    26  C    4.584472   4.133896   2.779890   2.406798   1.395066
    27  N    3.613262   3.557714   2.426209   2.791053   2.407630
    28  C    2.235795   2.234041   1.406017   2.418554   2.775943
    29  H    6.638962   7.358941   6.657854   7.269206   6.712925
    30  H    4.554338   5.019191   4.181912   4.760845   4.301252
    31  H    7.087659   8.401029   8.527522   9.714361   9.830508
    32  H   11.047767  12.401502  13.195786  14.579066  15.202653
    33  H    8.709267   9.883065  10.969814  12.338816  13.255297
    34  H    2.167246   1.032004   2.150513   2.943716   4.279834
    35  H    5.568181   4.613652   3.329388   2.090535   1.031999
    36  H    5.558269   5.163998   3.811839   3.336492   2.108145
                   26         27         28         29         30
    26  C    0.000000
    27  N    1.380737   0.000000
    28  C    2.402059   1.398123   0.000000
    29  H    5.355990   4.479703   5.273368   0.000000
    30  H    3.022007   1.978199   2.834218   2.512272   0.000000
    31  H    8.796700   7.468304   7.296481   4.953240   5.968379
    32  H   14.550817  13.175557  12.426775  11.796352  12.243671
    33  H   12.953012  11.672494  10.592380  11.779265  11.352562
    34  H    4.914155   4.504673   3.233673   8.390935   6.042045
    35  H    2.107029   3.337609   3.807914   7.439490   5.127136
    36  H    1.032002   2.095180   3.337500   5.189461   3.167376
                   31         32         33         34         35
    31  H    0.000000
    32  H    6.903191   0.000000
    33  H    7.698861   4.128020   0.000000
    34  H    9.254667  12.822091  10.024210   0.000000
    35  H   10.800948  16.234551  14.257624   5.020827   0.000000
    36  H    9.123465  15.162069  13.766423   5.943261   2.420619
                   36
    36  H    0.000000
 Stoichiometry    C18H8N6S3Se
 Framework group  C1[X(C18H8N6S3Se)]
 Deg. of freedom   102
 Full point group                 C1      NOp   1
 Largest Abelian subgroup         C1      NOp   1
 Largest concise Abelian subgroup C1      NOp   1
                         Standard orientation:                         
 ---------------------------------------------------------------------
 Center     Atomic      Atomic             Coordinates (Angstroms)
 Number     Number       Type             X           Y           Z
 ---------------------------------------------------------------------
      1          6           0       -2.123229    3.151118    0.019098
      2          6           0       -2.679444    1.969270    0.013766
      3          6           0       -1.733083    1.017646    0.003260
      4          6           0       -1.534950   -0.291462   -0.005999
      5         16           0       -0.275346   -0.547966   -0.013467
      6          6           0        0.418042    0.580178   -0.010198
      7          6           0        1.856678    0.704371   -0.017562
      8          6           0        2.562410    1.861221   -0.032836
      9          7           0        3.868777    1.500783   -0.024043
     10          6           0        3.912916    0.196543   -0.011041
     11         16           0        2.717188   -0.276783   -0.011377
     12          6           0        5.120732   -0.594755    0.001782
     13          7           0        6.357584    0.018461   -0.000910
     14          6           0        7.469144   -0.700338    0.010890
     15          7           0        7.439312   -2.022349    0.031680
     16          6           0        6.236730   -2.702279    0.035435
     17          7           0        5.052200   -1.980415    0.017251
     18          6           0       -0.489879    1.608508    0.001511
     19         34           0       -0.668971    2.941922    0.003796
     20          6           0       -2.581562   -1.286323   -0.007489
     21         16           0       -2.411888   -2.576060   -0.018923
     22          6           0       -3.649970   -3.225602   -0.017203
     23          6           0       -4.652810   -2.277744   -0.004170
     24          7           0       -6.041097   -2.350106    0.003154
     25          6           0       -6.790048   -1.194981    0.022224
     26          6           0       -6.167158    0.053304    0.023244
     27          7           0       -4.789451    0.144521    0.017142
     28          6           0       -4.019541   -1.022433    0.002841
     29          1           0       -2.612508    4.059677    0.031675
     30          1           0       -3.696318    1.793258    0.017131
     31          1           0        2.182604    2.820671   -0.048047
     32          1           0        8.381128   -0.217366    0.003689
     33          1           0        6.219770   -3.734010    0.051547
     34          1           0       -3.790971   -4.247902   -0.024493
     35          1           0       -7.820324   -1.253010    0.035868
     36          1           0       -6.738761    0.912531    0.028583
 ---------------------------------------------------------------------
 Rotational constants (GHZ):      0.2816952      0.0709284      0.0566631
 Standard basis: 6-31++G(d,p) (6D, 7F)
 There are   607 symmetry adapted basis functions of A   symmetry.
 Integral buffers will be    131072 words long.
 Raffenetti 2 integral format.
 Two-electron integral symmetry is turned on.
   607 basis functions,  1087 primitive gaussians,   607 cartesian basis functions
   120 alpha electrons      120 beta electrons
       nuclear repulsion energy      3638.0287462617 Hartrees.
 NAtoms=   36 NActive=   36 NUniq=   36 SFac= 1.00D+00 NAtFMM=   60 NAOKFM=F Big=F
 One-electron integrals computed using PRISM.
 NBasis=   607 RedAO= T  NBF=   607
 NBsUse=   599 1.00D-06 NBFU=   599
 Harris functional with IExCor=  402 diagonalized for initial guess.
 ExpMin= 3.00D-02 ExpMax= 5.61D+05 ExpMxC= 5.42D+03 IAcc=3 IRadAn=         5 AccDes= 0.00D+00
 HarFok:  IExCor=  402 AccDes= 0.00D+00 IRadAn=         5 IDoV= 1
 ScaDFX=  1.000000  1.000000  1.000000  1.000000
 FoFCou: FMM=F IPFlag=           0 FMFlag=      100000 FMFlg1=           0
         NFxFlg=           0 DoJE=T BraDBF=F KetDBF=T FulRan=T
         Omega=  0.000000  0.000000  1.000000  0.000000  0.000000 ICntrl=     500 IOpCl=  0
         NMat0=    1 NMatS0=    1 NMatT0=    0 NMatD0=    1 NMtDS0=    0 NMtDT0=    0
         I1Cent=           4 NGrid=           0.
 Petite list used in FoFCou.
 Initial guess orbital symmetries:
       Occupied  (A) (A) (A) (A) (A) (A) (A) (A) (A) (A) (A) (A)
                 (A) (A) (A) (A) (A) (A) (A) (A) (A) (A) (A) (A)
                 (A) (A) (A) (A) (A) (A) (A) (A) (A) (A) (A) (A)
                 (A) (A) (A) (A) (A) (A) (A) (A) (A) (A) (A) (A)
                 (A) (A) (A) (A) (A) (A) (A) (A) (A) (A) (A) (A)
                 (A) (A) (A) (A) (A) (A) (A) (A) (A) (A) (A) (A)
                 (A) (A) (A) (A) (A) (A) (A) (A) (A) (A) (A) (A)
                 (A) (A) (A) (A) (A) (A) (A) (A) (A) (A) (A) (A)
                 (A) (A) (A) (A) (A) (A) (A) (A) (A) (A) (A) (A)
                 (A) (A) (A) (A) (A) (A) (A) (A) (A) (A) (A) (A)
       Virtual   (A) (A) (A) (A) (A) (A) (A) (A) (A) (A) (A) (A)
                 (A) (A) (A) (A) (A) (A) (A) (A) (A) (A) (A) (A)
                 (A) (A) (A) (A) (A) (A) (A) (A) (A) (A) (A) (A)
                 (A) (A) (A) (A) (A) (A) (A) (A) (A) (A) (A) (A)
                 (A) (A) (A) (A) (A) (A) (A) (A) (A) (A) (A) (A)
                 (A) (A) (A) (A) (A) (A) (A) (A) (A) (A) (A) (A)
                 (A) (A) (A) (A) (A) (A) (A) (A) (A) (A) (A) (A)
                 (A) (A) (A) (A) (A) (A) (A) (A) (A) (A) (A) (A)
                 (A) (A) (A) (A) (A) (A) (A) (A) (A) (A) (A) (A)
                 (A) (A) (A) (A) (A) (A) (A) (A) (A) (A) (A) (A)
                 (A) (A) (A) (A) (A) (A) (A) (A) (A) (A) (A) (A)
                 (A) (A) (A) (A) (A) (A) (A) (A) (A) (A) (A) (A)
                 (A) (A) (A) (A) (A) (A) (A) (A) (A) (A) (A) (A)
                 (A) (A) (A) (A) (A) (A) (A) (A) (A) (A) (A) (A)
                 (A) (A) (A) (A) (A) (A) (A) (A) (A) (A) (A) (A)
                 (A) (A) (A) (A) (A) (A) (A) (A) (A) (A) (A) (A)
                 (A) (A) (A) (A) (A) (A) (A) (A) (A) (A) (A) (A)
                 (A) (A) (A) (A) (A) (A) (A) (A) (A) (A) (A) (A)
                 (A) (A) (A) (A) (A) (A) (A) (A) (A) (A) (A) (A)
                 (A) (A) (A) (A) (A) (A) (A) (A) (A) (A) (A) (A)
                 (A) (A) (A) (A) (A) (A) (A) (A) (A) (A) (A) (A)
                 (A) (A) (A) (A) (A) (A) (A) (A) (A) (A) (A) (A)
                 (A) (A) (A) (A) (A) (A) (A) (A) (A) (A) (A) (A)
                 (A) (A) (A) (A) (A) (A) (A) (A) (A) (A) (A) (A)
                 (A) (A) (A) (A) (A) (A) (A) (A) (A) (A) (A) (A)
                 (A) (A) (A) (A) (A) (A) (A) (A) (A) (A) (A) (A)
                 (A) (A) (A) (A) (A) (A) (A) (A) (A) (A) (A) (A)
                 (A) (A) (A) (A) (A) (A) (A) (A) (A) (A) (A) (A)
                 (A) (A) (A) (A) (A) (A) (A) (A) (A) (A) (A) (A)
                 (A) (A) (A) (A) (A) (A) (A) (A) (A) (A) (A) (A)
                 (A) (A) (A) (A) (A) (A) (A) (A) (A) (A) (A) (A)
                 (A) (A) (A) (A) (A) (A) (A) (A) (A) (A) (A) (A)
                 (A) (A) (A) (A) (A) (A) (A) (A) (A) (A) (A) (A)
                 (A) (A) (A) (A) (A) (A) (A) (A) (A) (A) (A) (A)
                 (A) (A) (A) (A) (A) (A) (A) (A) (A) (A) (A) (A)
                 (A) (A) (A) (A) (A) (A) (A) (A) (A) (A) (A) (A)
                 (A) (A) (A) (A) (A) (A) (A) (A) (A) (A) (A) (A)
                 (A) (A) (A) (A) (A) (A) (A) (A) (A) (A) (A) (A)
                 (A) (A) (A) (A) (A) (A) (A) (A) (A) (A) (A) (A)
                 (A) (A) (A) (A) (A) (A) (A) (A) (A) (A) (A)
 The electronic state of the initial guess is 1-A.
 Requested convergence on RMS density matrix=1.00D-08 within 128 cycles.
 Requested convergence on MAX density matrix=1.00D-06.
 Requested convergence on             energy=1.00D-06.
 No special actions if energy rises.
 SCF Done:  E(RB3LYP) =  -4611.62203527     A.U. after   17 cycles
             Convg  =    0.1631D-08             -V/T =  2.0020

 **********************************************************************

            Population analysis using the SCF density.

 **********************************************************************

 Orbital symmetries:
       Occupied  (A) (A) (A) (A) (A) (A) (A) (A) (A) (A) (A) (A)
                 (A) (A) (A) (A) (A) (A) (A) (A) (A) (A) (A) (A)
                 (A) (A) (A) (A) (A) (A) (A) (A) (A) (A) (A) (A)
                 (A) (A) (A) (A) (A) (A) (A) (A) (A) (A) (A) (A)
                 (A) (A) (A) (A) (A) (A) (A) (A) (A) (A) (A) (A)
                 (A) (A) (A) (A) (A) (A) (A) (A) (A) (A) (A) (A)
                 (A) (A) (A) (A) (A) (A) (A) (A) (A) (A) (A) (A)
                 (A) (A) (A) (A) (A) (A) (A) (A) (A) (A) (A) (A)
                 (A) (A) (A) (A) (A) (A) (A) (A) (A) (A) (A) (A)
                 (A) (A) (A) (A) (A) (A) (A) (A) (A) (A) (A) (A)
       Virtual   (A) (A) (A) (A) (A) (A) (A) (A) (A) (A) (A) (A)
                 (A) (A) (A) (A) (A) (A) (A) (A) (A) (A) (A) (A)
                 (A) (A) (A) (A) (A) (A) (A) (A) (A) (A) (A) (A)
                 (A) (A) (A) (A) (A) (A) (A) (A) (A) (A) (A) (A)
                 (A) (A) (A) (A) (A) (A) (A) (A) (A) (A) (A) (A)
                 (A) (A) (A) (A) (A) (A) (A) (A) (A) (A) (A) (A)
                 (A) (A) (A) (A) (A) (A) (A) (A) (A) (A) (A) (A)
                 (A) (A) (A) (A) (A) (A) (A) (A) (A) (A) (A) (A)
                 (A) (A) (A) (A) (A) (A) (A) (A) (A) (A) (A) (A)
                 (A) (A) (A) (A) (A) (A) (A) (A) (A) (A) (A) (A)
                 (A) (A) (A) (A) (A) (A) (A) (A) (A) (A) (A) (A)
                 (A) (A) (A) (A) (A) (A) (A) (A) (A) (A) (A) (A)
                 (A) (A) (A) (A) (A) (A) (A) (A) (A) (A) (A) (A)
                 (A) (A) (A) (A) (A) (A) (A) (A) (A) (A) (A) (A)
                 (A) (A) (A) (A) (A) (A) (A) (A) (A) (A) (A) (A)
                 (A) (A) (A) (A) (A) (A) (A) (A) (A) (A) (A) (A)
                 (A) (A) (A) (A) (A) (A) (A) (A) (A) (A) (A) (A)
                 (A) (A) (A) (A) (A) (A) (A) (A) (A) (A) (A) (A)
                 (A) (A) (A) (A) (A) (A) (A) (A) (A) (A) (A) (A)
                 (A) (A) (A) (A) (A) (A) (A) (A) (A) (A) (A) (A)
                 (A) (A) (A) (A) (A) (A) (A) (A) (A) (A) (A) (A)
                 (A) (A) (A) (A) (A) (A) (A) (A) (A) (A) (A) (A)
                 (A) (A) (A) (A) (A) (A) (A) (A) (A) (A) (A) (A)
                 (A) (A) (A) (A) (A) (A) (A) (A) (A) (A) (A) (A)
                 (A) (A) (A) (A) (A) (A) (A) (A) (A) (A) (A) (A)
                 (A) (A) (A) (A) (A) (A) (A) (A) (A) (A) (A) (A)
                 (A) (A) (A) (A) (A) (A) (A) (A) (A) (A) (A) (A)
                 (A) (A) (A) (A) (A) (A) (A) (A) (A) (A) (A) (A)
                 (A) (A) (A) (A) (A) (A) (A) (A) (A) (A) (A) (A)
                 (A) (A) (A) (A) (A) (A) (A) (A) (A) (A) (A) (A)
                 (A) (A) (A) (A) (A) (A) (A) (A) (A) (A) (A) (A)
                 (A) (A) (A) (A) (A) (A) (A) (A) (A) (A) (A) (A)
                 (A) (A) (A) (A) (A) (A) (A) (A) (A) (A) (A) (A)
                 (A) (A) (A) (A) (A) (A) (A) (A) (A) (A) (A) (A)
                 (A) (A) (A) (A) (A) (A) (A) (A) (A) (A) (A) (A)
                 (A) (A) (A) (A) (A) (A) (A) (A) (A) (A) (A) (A)
                 (A) (A) (A) (A) (A) (A) (A) (A) (A) (A) (A) (A)
                 (A) (A) (A) (A) (A) (A) (A) (A) (A) (A) (A) (A)
                 (A) (A) (A) (A) (A) (A) (A) (A) (A) (A) (A) (A)
                 (A) (A) (A) (A) (A) (A) (A) (A) (A) (A) (A)
 The electronic state is 1-A.
 Alpha  occ. eigenvalues -- -453.89415 -88.91920 -88.89439 -88.88926 -57.50067
 Alpha  occ. eigenvalues --  -52.17208 -52.17035 -52.16856 -14.37258 -14.37135
 Alpha  occ. eigenvalues --  -14.36857 -14.35857 -14.35662 -14.34454 -10.30817
 Alpha  occ. eigenvalues --  -10.29435 -10.27701 -10.25743 -10.24991 -10.24888
 Alpha  occ. eigenvalues --  -10.24812 -10.23190 -10.22596 -10.22215 -10.21173
 Alpha  occ. eigenvalues --  -10.20541 -10.19863 -10.19706 -10.19513 -10.18799
 Alpha  occ. eigenvalues --  -10.17723 -10.16214  -8.01004  -7.99438  -7.99371
 Alpha  occ. eigenvalues --   -7.76265  -5.97233  -5.96625  -5.96591  -5.95657
 Alpha  occ. eigenvalues --   -5.95584  -5.94993  -5.94870  -5.94859  -5.94741
 Alpha  occ. eigenvalues --   -5.80606  -5.79844  -5.79508  -2.17095  -2.16304
 Alpha  occ. eigenvalues --   -2.15737  -2.15326  -2.15150  -1.10701  -1.07946
 Alpha  occ. eigenvalues --   -1.04582  -1.01937  -1.00328  -0.96422  -0.91029
 Alpha  occ. eigenvalues --   -0.90279  -0.89787  -0.89095  -0.85571  -0.82969
 Alpha  occ. eigenvalues --   -0.80378  -0.78886  -0.78239  -0.75548  -0.70814
 Alpha  occ. eigenvalues --   -0.70326  -0.70017  -0.66498  -0.65867  -0.64361
 Alpha  occ. eigenvalues --   -0.63899  -0.60344  -0.59701  -0.56208  -0.56050
 Alpha  occ. eigenvalues --   -0.55607  -0.54757  -0.54684  -0.54036  -0.52754
 Alpha  occ. eigenvalues --   -0.52590  -0.51526  -0.49858  -0.49588  -0.47586
 Alpha  occ. eigenvalues --   -0.47096  -0.46680  -0.46536  -0.45855  -0.45405
 Alpha  occ. eigenvalues --   -0.45063  -0.44025  -0.43354  -0.41052  -0.39944
 Alpha  occ. eigenvalues --   -0.38162  -0.37613  -0.36180  -0.34836  -0.34740
 Alpha  occ. eigenvalues --   -0.33478  -0.32831  -0.32771  -0.30864  -0.30796
 Alpha  occ. eigenvalues --   -0.29150  -0.29136  -0.28425  -0.28158  -0.27079
 Alpha  occ. eigenvalues --   -0.26675  -0.25969  -0.25760  -0.25575  -0.20796
 Alpha virt. eigenvalues --   -0.09218  -0.08006  -0.06902  -0.03195  -0.01924
 Alpha virt. eigenvalues --   -0.01774  -0.00617  -0.00076   0.00204   0.00810
 Alpha virt. eigenvalues --    0.00846   0.01172   0.01406   0.01944   0.02298
 Alpha virt. eigenvalues --    0.02369   0.02947   0.03199   0.03462   0.03582
 Alpha virt. eigenvalues --    0.03593   0.04236   0.04976   0.05240   0.05598
 Alpha virt. eigenvalues --    0.05679   0.06252   0.06542   0.06599   0.06863
 Alpha virt. eigenvalues --    0.07483   0.07661   0.08109   0.08235   0.08323
 Alpha virt. eigenvalues --    0.08339   0.08777   0.09023   0.09202   0.09946
 Alpha virt. eigenvalues --    0.09966   0.10693   0.10716   0.10802   0.11256
 Alpha virt. eigenvalues --    0.11469   0.11503   0.11669   0.11756   0.12080
 Alpha virt. eigenvalues --    0.12131   0.12296   0.12591   0.12679   0.12873
 Alpha virt. eigenvalues --    0.13134   0.13219   0.13439   0.13598   0.13989
 Alpha virt. eigenvalues --    0.14165   0.14255   0.14518   0.14988   0.15357
 Alpha virt. eigenvalues --    0.15531   0.15808   0.16162   0.16493   0.16657
 Alpha virt. eigenvalues --    0.16697   0.16789   0.17289   0.17423   0.17845
 Alpha virt. eigenvalues --    0.18150   0.18668   0.18913   0.19020   0.19246
 Alpha virt. eigenvalues --    0.19279   0.19714   0.20039   0.20280   0.20738
 Alpha virt. eigenvalues --    0.20924   0.21129   0.21307   0.21784   0.22115
 Alpha virt. eigenvalues --    0.22474   0.22736   0.23327   0.23371   0.23886
 Alpha virt. eigenvalues --    0.23917   0.24557   0.24807   0.24986   0.25325
 Alpha virt. eigenvalues --    0.25475   0.25857   0.25904   0.26371   0.26943
 Alpha virt. eigenvalues --    0.27103   0.27374   0.27586   0.27742   0.27856
 Alpha virt. eigenvalues --    0.28296   0.28497   0.28708   0.28992   0.29173
 Alpha virt. eigenvalues --    0.29673   0.29776   0.29943   0.30227   0.30527
 Alpha virt. eigenvalues --    0.30811   0.31166   0.31354   0.31872   0.31953
 Alpha virt. eigenvalues --    0.32902   0.32959   0.33361   0.33596   0.33981
 Alpha virt. eigenvalues --    0.34505   0.35094   0.35734   0.35894   0.36607
 Alpha virt. eigenvalues --    0.36818   0.37218   0.37687   0.38045   0.38435
 Alpha virt. eigenvalues --    0.38626   0.38852   0.39570   0.40458   0.40599
 Alpha virt. eigenvalues --    0.41021   0.41393   0.42187   0.42366   0.42610
 Alpha virt. eigenvalues --    0.43069   0.44014   0.44662   0.45993   0.46515
 Alpha virt. eigenvalues --    0.46696   0.47172   0.47652   0.48896   0.49664
 Alpha virt. eigenvalues --    0.50146   0.50304   0.50702   0.53121   0.53382
 Alpha virt. eigenvalues --    0.54502   0.55589   0.56225   0.57786   0.58633
 Alpha virt. eigenvalues --    0.60325   0.61861   0.62668   0.64249   0.65376
 Alpha virt. eigenvalues --    0.65761   0.66391   0.66542   0.67144   0.67862
 Alpha virt. eigenvalues --    0.68128   0.68752   0.69146   0.69682   0.70312
 Alpha virt. eigenvalues --    0.70424   0.70763   0.71109   0.71953   0.72240
 Alpha virt. eigenvalues --    0.72522   0.73414   0.73899   0.74272   0.74572
 Alpha virt. eigenvalues --    0.74923   0.75149   0.76811   0.76927   0.77272
 Alpha virt. eigenvalues --    0.78177   0.78658   0.79313   0.79564   0.79786
 Alpha virt. eigenvalues --    0.80014   0.80759   0.81003   0.81554   0.82128
 Alpha virt. eigenvalues --    0.83301   0.83971   0.84089   0.84948   0.85547
 Alpha virt. eigenvalues --    0.86151   0.86895   0.88285   0.89403   0.89970
 Alpha virt. eigenvalues --    0.90736   0.92446   0.93516   0.93732   0.94352
 Alpha virt. eigenvalues --    0.94617   0.94724   0.95036   0.95780   0.96324
 Alpha virt. eigenvalues --    0.97207   0.97427   0.97627   0.98150   0.98400
 Alpha virt. eigenvalues --    0.98650   1.00323   1.00917   1.00998   1.01460
 Alpha virt. eigenvalues --    1.03531   1.03796   1.05495   1.05604   1.05904
 Alpha virt. eigenvalues --    1.06497   1.07892   1.08209   1.08720   1.10625
 Alpha virt. eigenvalues --    1.11751   1.12129   1.12741   1.13285   1.14623
 Alpha virt. eigenvalues --    1.15486   1.17143   1.17899   1.18499   1.18928
 Alpha virt. eigenvalues --    1.20394   1.21740   1.21818   1.22050   1.22200
 Alpha virt. eigenvalues --    1.22501   1.23793   1.24184   1.24769   1.26065
 Alpha virt. eigenvalues --    1.26569   1.27930   1.28081   1.28708   1.29074
 Alpha virt. eigenvalues --    1.29682   1.30202   1.30665   1.31095   1.32046
 Alpha virt. eigenvalues --    1.32655   1.33203   1.33345   1.33853   1.35193
 Alpha virt. eigenvalues --    1.35795   1.36827   1.37477   1.37734   1.37993
 Alpha virt. eigenvalues --    1.39359   1.41232   1.41352   1.43481   1.44709
 Alpha virt. eigenvalues --    1.45392   1.46971   1.47480   1.47879   1.48527
 Alpha virt. eigenvalues --    1.49667   1.51175   1.51429   1.52002   1.52141
 Alpha virt. eigenvalues --    1.54721   1.55466   1.56925   1.57330   1.58718
 Alpha virt. eigenvalues --    1.59794   1.63557   1.65633   1.65848   1.66263
 Alpha virt. eigenvalues --    1.69107   1.69758   1.72997   1.73324   1.73760
 Alpha virt. eigenvalues --    1.75101   1.75753   1.78141   1.79312   1.79928
 Alpha virt. eigenvalues --    1.80357   1.83016   1.83872   1.84363   1.84626
 Alpha virt. eigenvalues --    1.85398   1.85885   1.87537   1.87996   1.89679
 Alpha virt. eigenvalues --    1.90406   1.91133   1.91930   1.94101   1.94942
 Alpha virt. eigenvalues --    1.95653   1.98096   1.98758   1.98942   1.99466
 Alpha virt. eigenvalues --    2.03937   2.03994   2.05971   2.06749   2.07276
 Alpha virt. eigenvalues --    2.08405   2.09107   2.09806   2.10003   2.11060
 Alpha virt. eigenvalues --    2.11318   2.13367   2.13727   2.14540   2.15409
 Alpha virt. eigenvalues --    2.16457   2.18237   2.19560   2.22227   2.23219
 Alpha virt. eigenvalues --    2.24549   2.24951   2.27265   2.28551   2.29404
 Alpha virt. eigenvalues --    2.30316   2.30564   2.32162   2.33482   2.33705
 Alpha virt. eigenvalues --    2.35564   2.37513   2.38234   2.39609   2.40424
 Alpha virt. eigenvalues --    2.42718   2.45145   2.45897   2.46571   2.46929
 Alpha virt. eigenvalues --    2.47261   2.48538   2.48873   2.51247   2.51556
 Alpha virt. eigenvalues --    2.51636   2.53491   2.53568   2.54712   2.56330
 Alpha virt. eigenvalues --    2.57262   2.59026   2.60028   2.61563   2.62288
 Alpha virt. eigenvalues --    2.64124   2.64563   2.64927   2.65526   2.66501
 Alpha virt. eigenvalues --    2.67161   2.67348   2.69061   2.69479   2.69994
 Alpha virt. eigenvalues --    2.70905   2.71230   2.73168   2.74196   2.75268
 Alpha virt. eigenvalues --    2.77640   2.79071   2.79986   2.82525   2.84367
 Alpha virt. eigenvalues --    2.86099   2.87321   2.88585   2.90375   2.91606
 Alpha virt. eigenvalues --    2.95101   2.96757   2.99300   3.01224   3.05402
 Alpha virt. eigenvalues --    3.06260   3.11342   3.13431   3.16220   3.19391
 Alpha virt. eigenvalues --    3.23244   3.26801   3.28947   3.30338   3.32220
 Alpha virt. eigenvalues --    3.36654   3.44173   3.47631   3.52196   3.53901
 Alpha virt. eigenvalues --    3.61056   3.70205   3.72115   3.77626   3.88119
 Alpha virt. eigenvalues --    3.98913   4.03783   4.13007   4.18224   4.23829
 Alpha virt. eigenvalues --    4.25008   4.29619   4.35625   4.37525   4.39003
 Alpha virt. eigenvalues --    4.41682   4.42539   4.43445   4.46714   4.47425
 Alpha virt. eigenvalues --    4.48253   4.50656   4.54326   4.59361   4.61250
 Alpha virt. eigenvalues --    4.63522   4.65415   4.73709   4.78941   4.81145
 Alpha virt. eigenvalues --    4.91815   4.97468   8.55881  84.28969
          Condensed to atoms (all electrons):
              1          2          3          4          5          6
     1  C   12.478973  -5.004085  -3.732656  -2.625251   1.091021   1.690635
     2  C   -5.004085  19.032786  -2.844877   4.197837  -1.805114  -2.194867
     3  C   -3.732656  -2.844877  19.263907  -1.605550  -1.198608  -2.653536
     4  C   -2.625251   4.197837  -1.605550  18.807295  -6.594554  -3.941825
     5  S    1.091021  -1.805114  -1.198608  -6.594554  42.701540  -2.937275
     6  C    1.690635  -2.194867  -2.653536  -3.941825  -2.937275  16.404649
     7  C   -0.852124   0.960702   1.515131   0.979076   0.806684  -1.042699
     8  C    0.859082  -1.174529  -1.779799  -1.126544   2.621998   0.806274
     9  N   -0.011812   0.006144   0.003334   0.059052  -0.159043  -0.107540
    10  C   -0.199884  -0.014369  -0.242171   0.670399  -3.351483  -0.114449
    11  S   -0.338094   0.432587   0.370274   3.052460  -9.657251  -1.837040
    12  C   -0.001090   0.000487  -0.002951   0.048589  -0.249348  -0.050302
    13  N   -0.000346   0.000050  -0.000120  -0.001557   0.009561   0.008361
    14  C    0.000055  -0.000075  -0.000652   0.000569  -0.016948  -0.006951
    15  N   -0.000000   0.000001   0.000023   0.000112  -0.002028   0.000222
    16  C    0.000075   0.000173   0.000894  -0.005105   0.028327  -0.002276
    17  N   -0.000201   0.000888   0.005039   0.003083   0.022117   0.046405
    18  C    3.367923  -8.355516   1.321284  -4.682682   4.351945  -0.291808
    19  Se   0.088739   0.332893  -0.095425   0.350149   0.253317  -0.963489
    20  C   -0.281066   2.300815  -2.222925  -3.052660  -0.407483   2.104079
    21  S    0.103159   0.207940  -0.321082   0.480263  -9.037592   1.729093
    22  C    0.077120   0.056910   0.072716   0.700009  -0.699303  -0.043096
    23  C   -0.390903   1.482311  -3.206836  -0.072551   0.923566   0.552119
    24  N   -0.002619  -0.041207   0.103587  -0.034557  -0.019499  -0.005781
    25  C    0.033434   0.305903  -0.501327   0.143214  -0.118420   0.037492
    26  C   -0.003064  -0.465266   0.665138  -0.368601   0.063927  -0.027381
    27  N    0.068561   0.144160  -0.081832  -0.266707  -0.194306   0.033184
    28  C   -0.792801  -1.650428   3.557862   0.740327   0.430382  -1.225290
    29  H    0.292717  -0.239050   0.162819  -0.070430   0.144841   0.041579
    30  H    0.360240   0.296001  -0.461709  -0.086715  -0.113238   0.038926
    31  H   -0.068643  -0.005426   0.066613  -0.015531  -0.112058  -0.350530
    32  H    0.000008  -0.000008  -0.000076   0.000083   0.000103  -0.000346
    33  H    0.000014  -0.000003   0.000035  -0.000625   0.003144  -0.000154
    34  H    0.000222   0.012512  -0.023058   0.035505  -0.079161   0.015316
    35  H   -0.001260   0.001845  -0.005639  -0.004999  -0.002708   0.000306
    36  H   -0.029046  -0.022398   0.043520  -0.009884   0.006202  -0.001379
              7          8          9         10         11         12
     1  C   -0.852124   0.859082  -0.011812  -0.199884  -0.338094  -0.001090
     2  C    0.960702  -1.174529   0.006144  -0.014369   0.432587   0.000487
     3  C    1.515131  -1.779799   0.003334  -0.242171   0.370274  -0.002951
     4  C    0.979076  -1.126544   0.059052   0.670399   3.052460   0.048589
     5  S    0.806684   2.621998  -0.159043  -3.351483  -9.657251  -0.249348
     6  C   -1.042699   0.806274  -0.107540  -0.114449  -1.837040  -0.050302
     7  C   20.331936  -2.647610  -0.064442  -8.648718  -4.895729   0.188071
     8  C   -2.647610  11.686936   0.225597  -2.401268  -1.679100  -0.358252
     9  N   -0.064442   0.225597   7.027971   0.401148   0.072689  -0.201252
    10  C   -8.648718  -2.401268   0.401148  20.459128   1.778239   0.817392
    11  S   -4.895729  -1.679100   0.072689   1.778239  32.396640  -1.277281
    12  C    0.188071  -0.358252  -0.201252   0.817392  -1.277281   7.583329
    13  N    0.069307  -0.144194  -0.016498  -0.217648   0.220690   0.259250
    14  C   -0.020158  -0.023448  -0.034144   0.270225  -0.255897   0.032927
    15  N    0.005454  -0.001720  -0.000338  -0.067149   0.057316   0.003385
    16  C   -0.061736   0.022422   0.011077   0.022129  -0.039813  -0.137041
    17  N    0.187122  -0.041152   0.049625  -0.794407   0.438090   0.129850
    18  C    0.073404   1.173393  -0.028788  -2.174188  -3.702233   0.014162
    19  Se  -0.192358   0.176240  -0.012141  -0.351016  -0.791892   0.005083
    20  C    0.266734  -0.483111  -0.005479  -0.049388  -0.257681   0.017284
    21  S   -0.247401  -0.217214  -0.004665   0.234774   0.608830  -0.003103
    22  C    0.099981  -0.004253   0.000169   0.053104   0.259985  -0.002766
    23  C   -0.146854  -0.044866  -0.000250  -0.012959  -0.074756   0.001640
    24  N    0.000925   0.000135   0.000000  -0.000001  -0.000193  -0.000004
    25  C   -0.006157  -0.001525  -0.000005  -0.000122  -0.000271   0.000019
    26  C    0.012642   0.003465   0.000022   0.000378   0.005774  -0.000007
    27  N    0.001692  -0.000830   0.000019   0.000397   0.006486   0.000013
    28  C   -0.061030   0.055254   0.002162  -0.059584   0.041098   0.005886
    29  H   -0.126374   0.064742  -0.000221  -0.018440  -0.049849  -0.000011
    30  H    0.022854  -0.010818  -0.000316   0.004197   0.001051  -0.000225
    31  H   -0.340541   0.209337  -0.061721   0.383493   0.436336  -0.024866
    32  H    0.001061   0.000616  -0.003195   0.019356  -0.022476  -0.005969
    33  H    0.002540   0.002910   0.000657   0.013097  -0.016085  -0.019948
    34  H   -0.001275  -0.000740  -0.000004   0.001696   0.006292  -0.000084
    35  H   -0.000123  -0.000028  -0.000000  -0.000004   0.000035   0.000000
    36  H    0.000294   0.000128   0.000002   0.000005   0.000155  -0.000002
             13         14         15         16         17         18
     1  C   -0.000346   0.000055  -0.000000   0.000075  -0.000201   3.367923
     2  C    0.000050  -0.000075   0.000001   0.000173   0.000888  -8.355516
     3  C   -0.000120  -0.000652   0.000023   0.000894   0.005039   1.321284
     4  C   -0.001557   0.000569   0.000112  -0.005105   0.003083  -4.682682
     5  S    0.009561  -0.016948  -0.002028   0.028327   0.022117   4.351945
     6  C    0.008361  -0.006951   0.000222  -0.002276   0.046405  -0.291808
     7  C    0.069307  -0.020158   0.005454  -0.061736   0.187122   0.073404
     8  C   -0.144194  -0.023448  -0.001720   0.022422  -0.041152   1.173393
     9  N   -0.016498  -0.034144  -0.000338   0.011077   0.049625  -0.028788
    10  C   -0.217648   0.270225  -0.067149   0.022129  -0.794407  -2.174188
    11  S    0.220690  -0.255897   0.057316  -0.039813   0.438090  -3.702233
    12  C    0.259250   0.032927   0.003385  -0.137041   0.129850   0.014162
    13  N    7.159133  -0.032666   0.016043  -0.128105   0.012821  -0.001976
    14  C   -0.032666   5.580894   0.234985  -0.288952  -0.222746   0.002435
    15  N    0.016043   0.234985   6.913709   0.321260   0.037339   0.000166
    16  C   -0.128105  -0.288952   0.321260   5.474430   0.058871   0.000617
    17  N    0.012821  -0.222746   0.037339   0.058871   7.309114  -0.005851
    18  C   -0.001976   0.002435   0.000166   0.000617  -0.005851  16.799151
    19  Se  -0.001942   0.000768  -0.000002  -0.000396  -0.000129   0.653003
    20  C    0.000192   0.000061   0.000013  -0.000365  -0.001438  -1.842790
    21  S   -0.000099  -0.000750  -0.000016   0.001137   0.002618   0.035087
    22  C    0.000002  -0.000041  -0.000002   0.000093   0.000309  -0.097785
    23  C    0.000002  -0.000002   0.000000   0.000010  -0.000061  -1.384130
    24  N    0.000000  -0.000000  -0.000000   0.000000   0.000000   0.018622
    25  C   -0.000000  -0.000000  -0.000000   0.000000   0.000000  -0.088847
    26  C   -0.000000   0.000000   0.000000  -0.000001  -0.000001   0.184003
    27  N   -0.000000   0.000000  -0.000000   0.000000   0.000000   0.025981
    28  C   -0.000036   0.000059   0.000003  -0.000317  -0.000432   0.515148
    29  H   -0.000005   0.000008   0.000000  -0.000004  -0.000020   0.148818
    30  H   -0.000004  -0.000004  -0.000000   0.000012   0.000023   0.153144
    31  H    0.010867  -0.000136   0.000297  -0.000883  -0.005449  -0.029879
    32  H   -0.137393   0.502007  -0.117450  -0.025810  -0.009530  -0.000015
    33  H   -0.002074  -0.018229  -0.102860   0.469567  -0.122607   0.000250
    34  H    0.000000  -0.000002  -0.000000   0.000007   0.000014  -0.009494
    35  H   -0.000000   0.000000   0.000000   0.000000  -0.000000  -0.001252
    36  H    0.000000  -0.000000   0.000000  -0.000000  -0.000000   0.001764
             19         20         21         22         23         24
     1  C    0.088739  -0.281066   0.103159   0.077120  -0.390903  -0.002619
     2  C    0.332893   2.300815   0.207940   0.056910   1.482311  -0.041207
     3  C   -0.095425  -2.222925  -0.321082   0.072716  -3.206836   0.103587
     4  C    0.350149  -3.052660   0.480263   0.700009  -0.072551  -0.034557
     5  S    0.253317  -0.407483  -9.037592  -0.699303   0.923566  -0.019499
     6  C   -0.963489   2.104079   1.729093  -0.043096   0.552119  -0.005781
     7  C   -0.192358   0.266734  -0.247401   0.099981  -0.146854   0.000925
     8  C    0.176240  -0.483111  -0.217214  -0.004253  -0.044866   0.000135
     9  N   -0.012141  -0.005479  -0.004665   0.000169  -0.000250   0.000000
    10  C   -0.351016  -0.049388   0.234774   0.053104  -0.012959  -0.000001
    11  S   -0.791892  -0.257681   0.608830   0.259985  -0.074756  -0.000193
    12  C    0.005083   0.017284  -0.003103  -0.002766   0.001640  -0.000004
    13  N   -0.001942   0.000192  -0.000099   0.000002   0.000002   0.000000
    14  C    0.000768   0.000061  -0.000750  -0.000041  -0.000002  -0.000000
    15  N   -0.000002   0.000013  -0.000016  -0.000002   0.000000  -0.000000
    16  C   -0.000396  -0.000365   0.001137   0.000093   0.000010   0.000000
    17  N   -0.000129  -0.001438   0.002618   0.000309  -0.000061   0.000000
    18  C    0.653003  -1.842790   0.035087  -0.097785  -1.384130   0.018622
    19  Se  35.084895  -0.022921  -0.078682  -0.065286   0.045819  -0.000302
    20  C   -0.022921  17.607246  -3.086740  -1.027357   0.538354   0.019769
    21  S   -0.078682  -3.086740  25.959173  -0.798562  -0.725310   0.080502
    22  C   -0.065286  -1.027357  -0.798562  18.236770  -9.244424  -0.312424
    23  C    0.045819   0.538354  -0.725310  -9.244424  24.020022  -0.435756
    24  N   -0.000302   0.019769   0.080502  -0.312424  -0.435756   7.143147
    25  C    0.008915  -0.254121   0.200709  -1.104717   1.705187   0.001678
    26  C    0.008539   0.080736  -0.046792   0.913917  -1.426717   0.178443
    27  N    0.005216  -0.107201   0.308411  -0.081359   0.076277  -0.052971
    28  C    0.095315  -3.958620   0.450316  -1.458365  -5.985028   0.704387
    29  H   -0.240686  -0.159875  -0.037728  -0.012923   0.016036   0.000329
    30  H    0.013277   0.156673   0.087312   0.028504  -0.124070  -0.001216
    31  H   -0.141895   0.001035  -0.004445  -0.000118   0.001872  -0.000000
    32  H    0.000024  -0.000008  -0.000003  -0.000000  -0.000000  -0.000000
    33  H   -0.000012   0.000069   0.000015  -0.000018   0.000015  -0.000000
    34  H   -0.001413  -0.068992  -0.015081   0.298982   0.048171  -0.009265
    35  H   -0.000009  -0.017742   0.006433   0.001309   0.110155  -0.120128
    36  H    0.000756   0.004968  -0.009297   0.024867  -0.015147   0.024401
             25         26         27         28         29         30
     1  C    0.033434  -0.003064   0.068561  -0.792801   0.292717   0.360240
     2  C    0.305903  -0.465266   0.144160  -1.650428  -0.239050   0.296001
     3  C   -0.501327   0.665138  -0.081832   3.557862   0.162819  -0.461709
     4  C    0.143214  -0.368601  -0.266707   0.740327  -0.070430  -0.086715
     5  S   -0.118420   0.063927  -0.194306   0.430382   0.144841  -0.113238
     6  C    0.037492  -0.027381   0.033184  -1.225290   0.041579   0.038926
     7  C   -0.006157   0.012642   0.001692  -0.061030  -0.126374   0.022854
     8  C   -0.001525   0.003465  -0.000830   0.055254   0.064742  -0.010818
     9  N   -0.000005   0.000022   0.000019   0.002162  -0.000221  -0.000316
    10  C   -0.000122   0.000378   0.000397  -0.059584  -0.018440   0.004197
    11  S   -0.000271   0.005774   0.006486   0.041098  -0.049849   0.001051
    12  C    0.000019  -0.000007   0.000013   0.005886  -0.000011  -0.000225
    13  N   -0.000000  -0.000000  -0.000000  -0.000036  -0.000005  -0.000004
    14  C   -0.000000   0.000000   0.000000   0.000059   0.000008  -0.000004
    15  N   -0.000000   0.000000  -0.000000   0.000003   0.000000  -0.000000
    16  C    0.000000  -0.000001   0.000000  -0.000317  -0.000004   0.000012
    17  N    0.000000  -0.000001   0.000000  -0.000432  -0.000020   0.000023
    18  C   -0.088847   0.184003   0.025981   0.515148   0.148818   0.153144
    19  Se   0.008915   0.008539   0.005216   0.095315  -0.240686   0.013277
    20  C   -0.254121   0.080736  -0.107201  -3.958620  -0.159875   0.156673
    21  S    0.200709  -0.046792   0.308411   0.450316  -0.037728   0.087312
    22  C   -1.104717   0.913917  -0.081359  -1.458365  -0.012923   0.028504
    23  C    1.705187  -1.426717   0.076277  -5.985028   0.016036  -0.124070
    24  N    0.001678   0.178443  -0.052971   0.704387   0.000329  -0.001216
    25  C    6.880866  -1.280032   0.239048  -0.309935  -0.006838  -0.033622
    26  C   -1.280032   6.911185  -0.072412   0.044473   0.000361   0.034720
    27  N    0.239048  -0.072412   7.149915   0.168704   0.005079  -0.071619
    28  C   -0.309935   0.044473   0.168704  14.989251   0.093148  -0.225045
    29  H   -0.006838   0.000361   0.005079   0.093148   0.881475  -0.049595
    30  H   -0.033622   0.034720  -0.071619  -0.225045  -0.049595   0.742524
    31  H   -0.000019  -0.000057  -0.000316   0.005419  -0.002082  -0.004732
    32  H   -0.000000   0.000000   0.000000   0.000001   0.000000  -0.000000
    33  H    0.000000  -0.000000  -0.000000  -0.000016   0.000000   0.000000
    34  H    0.020898  -0.013788   0.000322   0.025568  -0.000337   0.000984
    35  H    0.458774  -0.158709   0.009159  -0.075461   0.000008   0.000812
    36  H   -0.218655   0.541828  -0.119745   0.008600   0.000655  -0.012358
             31         32         33         34         35         36
     1  C   -0.068643   0.000008   0.000014   0.000222  -0.001260  -0.029046
     2  C   -0.005426  -0.000008  -0.000003   0.012512   0.001845  -0.022398
     3  C    0.066613  -0.000076   0.000035  -0.023058  -0.005639   0.043520
     4  C   -0.015531   0.000083  -0.000625   0.035505  -0.004999  -0.009884
     5  S   -0.112058   0.000103   0.003144  -0.079161  -0.002708   0.006202
     6  C   -0.350530  -0.000346  -0.000154   0.015316   0.000306  -0.001379
     7  C   -0.340541   0.001061   0.002540  -0.001275  -0.000123   0.000294
     8  C    0.209337   0.000616   0.002910  -0.000740  -0.000028   0.000128
     9  N   -0.061721  -0.003195   0.000657  -0.000004  -0.000000   0.000002
    10  C    0.383493   0.019356   0.013097   0.001696  -0.000004   0.000005
    11  S    0.436336  -0.022476  -0.016085   0.006292   0.000035   0.000155
    12  C   -0.024866  -0.005969  -0.019948  -0.000084   0.000000  -0.000002
    13  N    0.010867  -0.137393  -0.002074   0.000000  -0.000000   0.000000
    14  C   -0.000136   0.502007  -0.018229  -0.000002   0.000000  -0.000000
    15  N    0.000297  -0.117450  -0.102860  -0.000000   0.000000   0.000000
    16  C   -0.000883  -0.025810   0.469567   0.000007   0.000000  -0.000000
    17  N   -0.005449  -0.009530  -0.122607   0.000014  -0.000000  -0.000000
    18  C   -0.029879  -0.000015   0.000250  -0.009494  -0.001252   0.001764
    19  Se  -0.141895   0.000024  -0.000012  -0.001413  -0.000009   0.000756
    20  C    0.001035  -0.000008   0.000069  -0.068992  -0.017742   0.004968
    21  S   -0.004445  -0.000003   0.000015  -0.015081   0.006433  -0.009297
    22  C   -0.000118  -0.000000  -0.000018   0.298982   0.001309   0.024867
    23  C    0.001872  -0.000000   0.000015   0.048171   0.110155  -0.015147
    24  N   -0.000000  -0.000000  -0.000000  -0.009265  -0.120128   0.024401
    25  C   -0.000019  -0.000000   0.000000   0.020898   0.458774  -0.218655
    26  C   -0.000057   0.000000  -0.000000  -0.013788  -0.158709   0.541828
    27  N   -0.000316   0.000000  -0.000000   0.000322   0.009159  -0.119745
    28  C    0.005419   0.000001  -0.000016   0.025568  -0.075461   0.008600
    29  H   -0.002082   0.000000   0.000000  -0.000337   0.000008   0.000655
    30  H   -0.004732  -0.000000   0.000000   0.000984   0.000812  -0.012358
    31  H    0.900610  -0.000032  -0.000002   0.000003  -0.000002   0.000027
    32  H   -0.000032   0.638341  -0.003861  -0.000000  -0.000000   0.000000
    33  H   -0.000002  -0.003861   0.620568  -0.000001   0.000000  -0.000000
    34  H    0.000003  -0.000000  -0.000001   0.550375   0.000347  -0.000607
    35  H   -0.000002  -0.000000   0.000000   0.000347   0.650975  -0.009362
    36  H    0.000027   0.000000  -0.000000  -0.000607  -0.009362   0.655197
 Mulliken atomic charges:
              1
     1  C   -0.177033
     2  C    0.044273
     3  C   -0.171350
     4  C    0.298305
     5  S   -0.703255
     6  C    0.289369
     7  C   -0.170282
     8  C    0.232470
     9  N   -0.147815
    10  C   -0.411909
    11  S    0.710614
    12  C   -0.772864
    13  N   -0.081615
    14  C    0.296808
    15  N   -0.298763
    16  C    0.279701
    17  N   -0.099302
    18  C   -0.143067
    19  Se  -0.162955
    20  C    0.209934
    21  S    0.138792
    22  C    0.128048
    23  C   -0.230932
    24  N   -0.240004
    25  C   -0.111524
    26  C    0.213277
    27  N   -0.193328
    28  C   -0.130976
    29  H    0.161848
    30  H    0.254030
    31  H    0.153454
    32  H    0.164572
    33  H    0.173614
    34  H    0.206089
    35  H    0.157270
    36  H    0.134509
 Sum of Mulliken atomic charges =  -0.00000
 Mulliken charges with hydrogens summed into heavy atoms:
              1
     1  C   -0.015186
     2  C    0.298303
     3  C   -0.171350
     4  C    0.298305
     5  S   -0.703255
     6  C    0.289369
     7  C   -0.170282
     8  C    0.385924
     9  N   -0.147815
    10  C   -0.411909
    11  S    0.710614
    12  C   -0.772864
    13  N   -0.081615
    14  C    0.461380
    15  N   -0.298763
    16  C    0.453315
    17  N   -0.099302
    18  C   -0.143067
    19  Se  -0.162955
    20  C    0.209934
    21  S    0.138792
    22  C    0.334137
    23  C   -0.230932
    24  N   -0.240004
    25  C    0.045745
    26  C    0.347786
    27  N   -0.193328
    28  C   -0.130976
 Sum of Mulliken charges with hydrogens summed into heavy atoms =  -0.00000
 Electronic spatial extent (au):  <R**2>=          16723.7597
 Charge=              0.0000 electrons
 Dipole moment (field-independent basis, Debye):
    X=             -4.0406    Y=             -0.6338    Z=             -0.0004  Tot=              4.0900
 Quadrupole moment (field-independent basis, Debye-Ang):
   XX=           -197.9104   YY=           -187.9613   ZZ=           -186.6825
   XY=            -15.4245   XZ=             -0.1468   YZ=              0.0389
 Traceless Quadrupole moment (field-independent basis, Debye-Ang):
   XX=             -7.0590   YY=              2.8901   ZZ=              4.1689
   XY=            -15.4245   XZ=             -0.1468   YZ=              0.0389
 Octapole moment (field-independent basis, Debye-Ang**2):
  XXX=           -224.6161  YYY=             69.5131  ZZZ=             -0.1524  XYY=            -16.2171
  XXY=             96.6129  XXZ=              1.2263  XZZ=              7.7327  YZZ=             24.9751
  YYZ=              0.2032  XYZ=             -0.0344
 Hexadecapole moment (field-independent basis, Debye-Ang**3):
 XXXX=         -18181.5472 YYYY=          -3762.9478 ZZZZ=           -208.7565 XXXY=           -394.9241
 XXXZ=            -20.6740 YYYX=           -312.7529 YYYZ=              0.5953 ZZZX=              0.4400
 ZZZY=              0.4821 XXYY=          -4090.1096 XXZZ=          -3158.9141 YYZZ=           -723.7769
 XXYZ=              3.1829 YYXZ=              1.1595 ZZXY=            -24.7861
 N-N= 3.638028746262D+03 E-N=-1.821260086912D+04  KE= 4.602239850543D+03
 Calling FoFJK, ICntrl=      2127 FMM=F ISym2X=0 I1Cent= 0 IOpClX= 0 NMat=1 NMatS=1 NMatT=0.
 ***** Axes restored to original set *****
 -------------------------------------------------------------------
 Center     Atomic                   Forces (Hartrees/Bohr)
 Number     Number              X              Y              Z
 -------------------------------------------------------------------
      1        6          -0.259852972   -0.287727093    0.001154122
      2        6          -0.001681027   -0.099011806    0.000279788
      3        6          -0.049490909   -0.030228262    0.000540182
      4        6          -0.352353721   -0.577213656   -0.000494163
      5       16           0.803503997    0.069423775   -0.000042008
      6        6          -0.256774624    0.480391170    0.000310806
      7        6          -0.592557208   -0.185720202   -0.008417223
[...]
 ,-0.00000748,-0.00002685,-0.00001188,-0.00000199,0.00000458,-0.0000145
 6,-0.00001767,-0.00001982,-0.00000583,0.00005117,0.00000458,0.00000523
 ,-0.00002966,0.00001574,0.00001272,0.00007365,0.02299299,-0.00032959,0
 .02334103,-0.00000524,-0.00000051,-0.00000087,0.00000092,0.00000127,-0
 .00000012,-0.00000877,0.00000378,0.00000066,0.00000254,-0.00000109,-0.
 00000512,-0.00000579,0.00000574,0.00000760,-0.00003192,0.00002469,-0.0
 0000034,0.00007930,-0.00012488,0.00000085,-0.00000584,0.00004149,0.000
 00044,-0.00013322,0.00002589,-0.00000922,0.00078497,-0.00059309,0.0000
 2015,-0.00024474,-0.00027333,-0.00002199,-0.00336048,-0.00437544,-0.00
 132953,0.00063991,-0.03264440,-0.00189497,-0.05837708,0.04390497,0.001
 74625,-0.01093669,0.03523017,0.00073454,-0.00556703,0.00193096,-0.0011
 1221,0.00110754,0.00014116,0.00053453,0.00000301,-0.00001911,-0.000003
 77,0.00000360,-0.00000613,0.00000106,-0.00000403,0.00000802,0.00000102
 ,0.00000036,0.00000302,-0.00000168,-0.00000158,-0.00000495,0.00000160,
 0.00000425,-0.00000175,-0.00000250,-0.00000072,-0.00000155,0.00000060,
 -0.00000051,0.00000190,0.00000014,-0.00000126,-0.00000238,-0.00000014,
 0.00000100,0.00000014,-0.00000098,-0.00000011,0.00000014,0.00000126,-0
 .00000059,-0.00000098,0.00000029,-0.00000104,-0.00000018,-0.00000006,-
 0.00001043,-0.00001055,-0.00000143,0.07617400,-0.00000426,0.00001512,-
 0.00000050,0.00000381,-0.00000409,-0.00000035,0.00001325,-0.00001783,-
 0.00000218,-0.00001501,-0.00002827,-0.00000128,-0.00001954,0.00002975,
 -0.00000184,-0.00008056,-0.00003917,-0.00000747,-0.00004735,0.00007810
 ,0.00000363,-0.00000398,-0.00021894,-0.00001405,0.00000395,0.00005764,
 0.00000367,0.00032330,-0.00044528,-0.00000235,-0.00008682,-0.00007687,
 -0.00000071,-0.00270865,0.00094753,-0.00076164,-0.00546524,-0.02003973
 ,-0.00161981,0.04427323,-0.32579743,-0.01131225,0.00678952,-0.00721396
 ,-0.00010522,0.00176861,0.00252630,-0.00030654,-0.00005187,-0.00026666
 ,0.00030103,0.00007264,-0.00003489,0.00000217,-0.00002149,0.00002173,-
 0.00000016,-0.00000836,0.00003172,0.00000790,-0.00000760,0.00001842,-0
 .00000314,-0.00000912,-0.00003894,0.00000930,0.00003182,-0.00000822,-0
 .00002384,-0.00000743,-0.00001331,0.00000294,-0.00000187,0.00001587,0.
 00000053,-0.00000395,-0.00001154,0.00000332,0.00001126,-0.00000301,-0.
 00000432,-0.00000560,0.00000654,0.00000129,-0.00000334,-0.00000404,-0.
 00000039,-0.00000054,-0.00000209,0.00000015,-0.00001702,-0.00000911,-0
 .00000210,-0.04462826,0.35090506,-0.00000006,0.00000133,-0.00000459,0.
 00000003,-0.00000050,0.00000094,0.00000019,0.00000090,0.00000364,-0.00
 000031,-0.00000473,0.00000047,-0.00000006,0.00000424,-0.00000887,-0.00
 000655,0.00000170,0.00000106,0.00000264,-0.00000600,0.00000496,-0.0000
 0239,-0.00000970,0.00002808,-0.00000924,0.00000367,0.00000336,0.000073
 28,-0.00006661,0.00002673,-0.00000862,-0.00001387,-0.00021381,-0.00124
 883,-0.00088626,0.01143005,-0.00044894,-0.00362443,0.00267865,0.001761
 84,-0.01134925,-0.05100769,-0.00076902,0.00200196,0.00435767,-0.001122
 11,-0.00029385,0.01070172,0.00052507,0.00031339,-0.00595372,0.00000314
 ,-0.00000339,-0.00000365,-0.00000041,-0.00000112,0.00000538,-0.0000026
 3,0.00000391,0.00000518,0.00000085,0.00000049,-0.00000126,-0.00000089,
 -0.00000141,0.00000016,-0.00000016,-0.00000034,-0.00000107,-0.00000018
 ,-0.00000131,-0.00000036,-0.00000016,0.00000058,0.00000012,-0.00000002
 ,0.00000014,-0.00000005,0.00000043,-0.00000019,-0.00000045,0.00000105,
 -0.00000087,-0.00000026,-0.00000026,-0.00000050,0.00000085,-0.00000006
 ,-0.00000013,0.00000020,-0.00000195,-0.00000152,0.00000385,0.00123468,
 0.01382903,0.02836769,0.00000516,0.00002160,0.00000186,0.00000319,-0.0
 0001064,0.00000009,0.00002220,-0.00002682,-0.00000462,-0.00003166,-0.0
 0004589,-0.00000203,-0.00001809,0.00003074,-0.00000019,-0.00008094,-0.
 00002605,-0.00000701,-0.00011065,0.00010588,-0.00000499,-0.00006773,-0
 .00021659,-0.00001739,-0.00009290,-0.00018473,-0.00000087,-0.00066724,
 0.00085582,-0.00000732,0.00001911,0.00006283,0.00000906,-0.00014901,-0
 .00377461,-0.00106249,-0.00028592,0.00034369,0.00045317,0.00299157,-0.
 00017121,-0.00060240,0.00150718,0.00439289,0.00005034,-0.29479367,0.09
 593638,-0.01296405,-0.02715708,0.00142603,-0.00214952,0.00007789,-0.00
 003341,-0.00000055,-0.00002215,0.00002587,-0.00000022,-0.00001019,0.00
 003987,0.00001391,-0.00000806,0.00002324,-0.00000746,-0.00001101,-0.00
 004899,0.00001242,0.00003716,-0.00000743,-0.00003043,-0.00000891,-0.00
 001647,0.00000533,0.00000045,0.00001088,0.00000013,-0.00000573,-0.0000
 0492,0.00000289,0.00001029,-0.00000422,-0.00000268,-0.00000304,0.00000
 555,0.00000166,-0.00000265,-0.00000448,-0.00000042,0.,-0.00000140,-0.0
 0000009,-0.00002271,-0.00002573,-0.00000419,-0.00010364,-0.00008896,0.
 00001945,0.31898413,0.00000267,0.00000005,0.00000068,-0.00000009,-0.00
 000236,-0.00000059,-0.00000207,0.00000289,0.00000084,-0.00000296,-0.00
 001224,-0.00000181,0.00000427,-0.00000243,0.00000246,0.00000946,0.0000
 3578,0.00000050,0.00001011,-0.00008445,-0.00000742,-0.00005623,0.00007
 943,0.00000097,-0.00035926,-0.00026137,-0.00002936,-0.00036432,0.00085
 626,0.00001523,-0.00000146,0.00004510,0.00000577,-0.00452341,-0.002064
 89,-0.00105286,0.00049148,0.00107323,0.00042140,-0.00015186,-0.0059233
 3,-0.00091147,0.03263342,-0.01952469,0.00116272,0.09600046,-0.08998302
 ,0.00496733,-0.02645027,0.00834211,-0.00166858,-0.00000892,-0.00000717
 ,0.00000041,0.00000345,0.00000239,-0.00000007,-0.00000245,0.00000497,0
 .00000196,0.00000180,-0.00000092,-0.00000217,0.00000104,-0.00000168,0.
 00000071,-0.00000265,0.00000333,0.00000198,0.00000018,0.00000076,0.000
 00050,0.00000153,-0.00000344,-0.00000119,-0.00000019,0.00000286,0.0000
 0029,-0.00000063,0.00000058,0.00000031,-0.00000005,-0.00000333,-0.0000
 0118,0.00000009,0.00000004,0.,-0.00000033,0.00000005,-0.00000008,-0.00
 001283,-0.00002241,-0.00000300,0.00136584,-0.00037829,0.00010492,-0.09
 858631,0.10782612,0.00000065,0.00000199,-0.00000520,0.00000063,-0.0000
 0153,0.00000198,0.00000131,-0.00000078,-0.00000214,-0.00000253,-0.0000
 0398,0.00000498,0.00000099,0.00000146,-0.00001411,-0.00000820,-0.00000
 011,0.00003069,-0.00001070,-0.00000194,0.00005435,-0.00000782,-0.00001
 157,-0.00000273,-0.00001289,-0.00001753,-0.00020765,-0.00007296,0.0001
 0746,0.00005831,0.00000746,0.00001192,-0.00007803,-0.00110440,-0.00100
 182,0.01135717,0.00045837,0.00040461,-0.00610891,-0.00059563,-0.000913
 95,0.01092149,0.00155236,-0.00091693,0.00407153,-0.01296198,0.00495382
 ,-0.05097552,-0.00363119,0.00040467,0.00265083,0.00000583,-0.00000154,
 -0.00001624,-0.00000273,0.00000065,0.00000054,-0.00000150,0.00000486,0
 .00000409,-0.00000110,0.00000192,0.00000016,-0.00000128,-0.00000519,0.
 00000007,0.00000239,0.00000071,-0.00000256,-0.00000123,-0.00000174,-0.
 00000004,0.00000101,0.00000038,-0.00000038,-0.00000027,0.00000148,0.00
 000043,0.00000019,-0.00000016,-0.00000086,0.00000064,-0.00000130,-0.00
 000111,-0.00000035,-0.00000035,0.00000118,-0.00000005,-0.00000034,0.00
 000030,-0.00000354,-0.00000369,0.00001599,0.00009811,-0.00000397,-0.00
 042597,0.01629003,-0.00300739,0.02866577,-0.00000145,-0.00005172,-0.00
 002768,-0.00008997,0.00001833,-0.00002070,-0.00022059,-0.00049684,0.00
 001265,0.00188315,0.00014025,0.00077012,0.00012103,0.00007527,0.000003
 65,-0.00015507,0.00014217,0.00000615,0.00002035,-0.00005648,0.00001293
 ,-0.00001746,0.00001193,-0.00000497,0.00000388,-0.00002722,0.00000278,
 -0.00000031,0.00003419,-0.00000336,0.00001883,-0.00001024,-0.00000506,
 0.00000468,-0.00000092,0.00000456,-0.00000431,-0.00000145,-0.00000145,
 0.00000321,-0.00000012,0.00000061,-0.00000495,0.00000076,-0.00000038,0
 .00000837,-0.00000188,0.00000027,-0.00000891,-0.00000264,-0.00000174,0
 .00024222,-0.00000710,-0.00009293,0.00005047,-0.00002924,0.00001680,-0
 .00105470,-0.00379225,0.00051510,0.00555131,-0.00782249,-0.00499080,-0
 .15260114,0.13961951,0.06842377,-0.00555544,0.02060297,0.00347457,0.00
 128770,-0.00032567,-0.00284479,-0.00021213,-0.00010792,-0.00023591,0.0
 0032047,0.00008049,-0.00049735,-0.00053078,0.00180961,0.00087515,-0.00
 247396,-0.00241640,0.00401136,0.00000774,-0.00000228,0.00000517,0.0000
 0439,0.00000946,0.00002877,-0.00000030,0.00000179,-0.00000429,-0.00000
 017,-0.00000056,0.00000019,-0.00000140,-0.00000052,0.00000002,0.153304
 20,-0.00001384,-0.00002372,0.00000306,0.00000238,0.00000289,-0.0000034
 7,-0.00021783,-0.00015287,-0.00025763,0.00128713,-0.00008470,-0.000419
 82,0.00015430,0.00014937,0.00020133,-0.00001404,0.00010467,-0.00005422
 ,0.00001535,-0.00004132,-0.00004725,-0.00001250,0.00001412,0.00000013,
 -0.00000370,-0.00001346,0.00000291,0.00001896,0.00003824,0.00000240,0.
 00000691,-0.00001161,-0.00000361,-0.00002524,-0.00002628,-0.00000617,0
 .00000494,0.00001921,0.00000216,-0.00000790,-0.00000902,-0.00000070,0.
 00000626,0.00000685,0.00000066,-0.00000702,-0.00000786,-0.00000067,0.0
 0001403,0.00000313,0.00000285,0.00013350,-0.00008703,0.00009475,0.0000
 2868,-0.00002820,0.00002905,-0.00338023,-0.00329839,0.00222585,0.01180
 926,-0.01239419,-0.00656326,0.14117489,-0.22749475,-0.06848295,-0.0034
 8568,0.00797862,0.00172292,0.00047996,0.00021452,-0.00049664,0.0003960
 4,-0.00050811,-0.00027582,0.00010807,0.00062440,-0.00016048,-0.0007090
 2,0.00028088,0.00051754,-0.00051870,0.00058170,0.00054315,0.00000351,0
 .00000069,-0.00000579,0.00001013,-0.00000540,0.00000208,-0.00000012,0.
 00000054,0.00000300,-0.00000009,0.00000119,-0.00000015,0.00000077,-0.0
 0000056,-0.00000012,-0.14730907,0.23416559,-0.00012671,-0.00018606,-0.
 00004047,-0.00015365,0.00012763,0.00003428,0.00016207,-0.00048017,0.00
 024495,0.00064647,0.00091631,0.00240883,-0.00005371,-0.00026040,-0.000
 13113,-0.00029489,0.00048016,0.00007231,-0.00005281,-0.00030410,-0.000
 00714,-0.00003253,0.00012717,0.00000286,-0.00003804,-0.00006422,0.0000
 0081,0.00017487,0.00024392,0.00002211,0.00001392,-0.00006830,0.0000032
 0,-0.00024124,-0.00019985,-0.00002710,0.00005921,0.00015144,0.00001071
 ,-0.00006989,-0.00006128,-0.00000638,0.00006398,0.00004034,0.00000564,
 -0.00007074,-0.00003783,-0.00000640,0.00015280,0.00001864,0.00000764,0
 .00038862,0.00012337,-0.00024562,0.00007027,0.00003184,-0.00001490,0.0
 0132237,0.00143596,-0.00145673,-0.00655954,0.00552492,-0.00013180,0.06
 819062,-0.06718391,-0.05356544,0.00455967,-0.01193873,0.00084860,-0.00
 284473,-0.00017555,-0.00199025,-0.00018075,-0.00002130,-0.00056164,-0.
 00046273,0.00007924,-0.00021217,0.00103144,-0.00086918,0.00059617,0.00
 378299,0.00102655,0.00203194,0.00000506,0.,0.00000383,-0.00004818,0.00
 002557,-0.00001839,0.00000150,-0.00000669,-0.00000600,0.00000051,0.000
 00618,0.00000061,0.00000637,-0.00000096,0.00000125,-0.06967631,0.07141
 122,0.05177256,0.00002999,0.00003191,-0.00000063,0.00000915,-0.0000306
 1,-0.00001843,-0.00005306,-0.00002561,0.00001645,-0.00002159,-0.000069
 16,-0.00003100,0.00003973,0.00002924,0.00001350,-0.00000616,-0.0000676
 2,0.00001745,0.00003041,0.00005212,0.00001151,-0.00000052,-0.00003497,
 -0.00000960,0.00001603,0.00000535,0.00000235,-0.00004859,-0.00004788,-
 0.00001027,0.00000313,0.00001059,0.00000525,0.00006751,0.00005801,0.00
 000980,-0.00001822,-0.00004636,-0.00000481,0.00002080,0.00001835,0.000
 00327,-0.00001942,-0.00001427,-0.00000238,0.00002286,0.00001322,0.0000
 0211,-0.00004602,-0.00000733,-0.00000590,-0.00003519,-0.00000734,-0.00
 002278,0.00000825,-0.00000087,0.00001105,-0.00010208,-0.00006985,-0.00
 054070,-0.00043969,-0.00014517,-0.00028110,0.00012033,-0.00093557,0.00
 024685,0.00122439,0.00076511,0.00763308,-0.02446449,-0.02321496,0.0117
 5087,-0.10168758,-0.09953701,0.04416902,0.00988560,0.01071569,-0.00363
 024,0.00024700,0.00306914,0.00145073,-0.00092329,0.00016203,0.00107887
 ,0.00000066,0.00000249,-0.00000100,0.00001994,-0.00000371,0.00001828,-
 0.00000072,0.00000197,-0.00000108,-0.00000034,-0.00000191,0.,-0.000002
 17,0.00000049,0.00000015,0.00009492,0.00003409,0.00022362,0.11638677,-
 0.00000680,0.00004653,0.00001698,0.00007714,-0.00002176,0.00006616,-0.
 00001360,0.00001500,-0.00002079,0.00005366,0.00001718,0.00002888,0.000
 00472,0.00001422,0.00000322,-0.00002156,-0.00009147,-0.00001897,0.0000
 2622,0.00008225,0.00000651,0.00000673,-0.00004771,0.00000378,0.0000247
 5,0.00000555,0.00000185,-0.00007540,-0.00005805,-0.00000721,0.00000112
 ,0.00001665,-0.00000305,0.00009674,0.00007830,0.00001163,-0.00002581,-
 0.00006352,-0.00000540,0.00002872,0.00002558,0.00000336,-0.00002590,-0
 .00002020,-0.00000340,0.00003122,0.00001826,0.00000385,-0.00006327,-0.
 00001115,-0.00000444,-0.00001244,0.00001249,0.00000025,-0.00003299,-0.
 00005572,-0.00002061,-0.00003866,-0.00001685,0.00001073,-0.00000817,0.
 00031050,-0.00008066,-0.00021124,0.00015315,0.00017301,0.00305679,0.00
 226255,-0.00131134,-0.00099992,0.01180874,-0.00042911,-0.10082347,-0.2
 5478007,0.07355841,-0.01576632,-0.01422367,0.01079844,0.00277711,-0.00
 596118,-0.00115743,0.00147449,0.00085268,-0.00099010,-0.00000071,-0.00
 000646,0.00000111,-0.00007602,0.00000694,-0.00007092,-0.00000141,0.000
 00708,0.00000048,-0.00000050,-0.00000269,-0.00000013,-0.00000296,0.000
 00064,-0.00000004,-0.00000561,0.00002061,0.00002976,0.10998919,0.25951
 347,-0.00002661,0.00001122,0.00001175,0.00002981,-0.00001925,-0.000008
 29,0.00001061,0.00001471,0.00001464,0.00005581,-0.00006077,-0.00007436
 ,0.00001231,0.00002706,0.00003911,0.00002002,0.00001689,0.00001805,-0.
 00000877,-0.00003165,-0.00001570,0.00000109,0.00001912,-0.00000153,-0.
 00001531,0.00000104,0.00000129,0.00003009,0.00002084,0.00000249,-0.000
 00240,-0.00000760,0.00000001,-0.00003924,-0.00003386,-0.00000356,0.000
 01069,0.00002735,0.00000178,-0.00001146,-0.00001171,-0.00000120,0.0000
 1037,0.00000920,0.00000093,-0.00001364,-0.00000870,-0.00000149,0.00002
 591,0.00000600,0.00000194,-0.00000773,0.00000115,0.00000767,0.00000831
 ,-0.00000874,-0.00000082,-0.00056015,0.00004942,-0.00066569,-0.0001704
 0,0.00008204,-0.00076284,0.00018938,0.00065943,0.00029326,0.00756525,0
 .00009403,0.00895376,0.01034825,0.01344503,-0.01448984,0.04444781,0.07
 261238,-0.07011086,-0.00238867,-0.00539363,0.00669030,0.00150499,-0.00
 166249,0.00213731,0.00095542,-0.00005018,0.00020893,-0.00000003,0.0000
 0164,-0.00000316,0.00000677,-0.00001383,-0.00000102,0.00000011,-0.0000
 0109,0.00000085,0.00000017,0.00000119,0.00000015,0.00000117,-0.0000003
 9,0.00000013,0.00020091,0.00001508,0.00031120,-0.06153781,-0.08018047,
 0.06839030,0.00004025,0.00007413,0.00000093,-0.00000063,-0.00007721,0.
 00008112,0.00002029,-0.00003145,-0.00011805,0.00008288,0.00023630,0.00
 029310,-0.00002691,0.00001859,0.00002195,-0.00002687,-0.00006478,-0.00
 004452,0.00002297,0.00008181,-0.00000610,0.00000523,-0.00003797,0.0000
 0189,0.00002840,0.00000021,-0.00000057,-0.00005506,-0.00003606,-0.0000
 0056,-0.00000608,0.00001010,0.00001373,0.00007025,0.00005416,0.0000019
 4,-0.00001821,-0.00004530,-0.00000390,0.00001910,0.00001876,0.00000250
 ,-0.00001764,-0.00001482,-0.00000257,0.00002180,0.00001374,0.00000365,
 -0.00004476,-0.00000899,-0.00000502,0.00004158,0.00000862,0.00002153,-
 0.00002033,-0.00003430,-0.00002804,-0.00022521,-0.00007564,0.00050273,
 -0.00028942,-0.00019493,-0.00041355,-0.00027599,0.00005461,-0.00044027
 ,0.00090370,0.00002374,-0.00010444,0.00007899,0.00283887,0.00160455,-0
 .00461028,-0.00309183,0.00622434,-0.24647568,0.02721870,0.13062832,-0.
 01421385,-0.00966518,0.00471989,0.00540109,-0.00028280,0.00507720,-0.0
 0000053,-0.00000752,0.00002356,-0.00000078,-0.00006157,0.00001655,0.00
 000008,0.00000391,0.00000430,-0.00000020,-0.00000210,0.00000004,-0.000
 00183,0.00000051,0.00000021,0.00000609,0.00001581,0.00005010,-0.000358
 34,0.00056415,-0.00065305,0.25992586,0.00005486,-0.00002712,-0.0000009
 5,-0.00000173,-0.00003608,-0.00002102,-0.00008145,0.00001750,-0.000045
 46,0.00003280,0.00003637,0.00003941,0.00005195,0.00000770,-0.00000040,
 -0.00001414,-0.00003679,-0.00000206,0.00001587,0.00000949,-0.00002891,
 -0.00000845,-0.00000311,0.00000971,0.00000278,-0.00000483,0.00000016,-
 0.00001062,-0.00001538,0.00000910,-0.00000052,0.00000495,0.00001638,0.
 00001948,0.00001082,-0.00000599,-0.00000415,-0.00000908,-0.00000063,0.
 00000310,0.00000410,0.00000031,-0.00000286,-0.00000257,-0.00000046,0.0
 0000357,0.00000215,0.00000129,-0.00000818,-0.00000153,-0.00000176,-0.0
 0001474,0.00002539,0.00000126,0.00000847,-0.00000504,-0.00002428,-0.00
 053166,0.00081625,0.00033246,-0.00043205,0.00001829,0.00018445,0.00001
 219,0.00020555,-0.00007151,-0.00135221,-0.00153310,0.00094858,0.003283
 76,-0.00585511,-0.00153228,0.02311613,0.00519788,-0.01457625,0.0284621
 2,-0.05942820,-0.01671638,-0.03153092,-0.00158163,0.01972287,-0.002733
 34,-0.00310330,0.00265283,0.00000720,-0.00001065,0.00002963,-0.0000678
 8,0.00004462,0.00008024,0.00000199,-0.00000135,0.00000294,-0.00000003,
 -0.00000060,0.00000002,-0.00000022,0.,0.,-0.00007809,-0.00001975,0.000
 05830,-0.00069878,0.00009217,0.00036959,-0.01750426,0.06518200,0.00002
 435,0.00008635,0.00000301,-0.00008773,0.00000569,0.00000476,0.00001056
 ,0.00000415,-0.00012445,0.00019206,0.00010708,0.00040045,-0.00006163,0
 .00001559,0.00000345,0.00004266,0.00006920,-0.00002245,-0.00002582,-0.
 00002910,-0.00002323,0.00000846,0.00003089,0.00001181,-0.00001750,-0.0
 0000378,-0.00000149,0.00004058,0.00002800,0.00001594,-0.00000912,-0.00
 001115,0.00001513,-0.00004307,-0.00004289,-0.00001537,0.00001077,0.000
 03457,0.00000275,-0.00001420,-0.00001431,-0.00000187,0.00001199,0.0000
 1065,0.00000141,-0.00001408,-0.00001025,-0.00000128,0.00002974,0.00000
 567,0.00000151,0.00002215,-0.00005472,-0.00003787,-0.00002006,0.000025
 31,-0.00002004,0.00047971,-0.00033781,0.00026239,-0.00027884,0.0000991
 2,-0.00068747,-0.00039321,-0.00013433,-0.00070343,-0.00006591,0.000139
 83,0.00076462,0.00151299,-0.00136822,0.00192496,0.00463811,0.00210505,
 0.00198694,0.13074848,-0.01601400,-0.11952895,0.00583027,0.00562593,-0
 .01171831,0.00521940,0.00147293,0.00986081,-0.00001093,0.00001401,0.00
 001569,0.00021469,-0.00001436,0.00006461,0.00000137,0.00000050,0.00000
 205,0.00000047,0.00000180,0.00000022,0.00000104,-0.00000043,0.00000021
 ,0.00004221,-0.00000140,0.00004207,-0.00056646,-0.00041436,-0.00094547
 ,-0.14747349,0.00856879,0.11844688\\-0.00000816,0.00000687,0.00002205,
 0.00002175,0.00002606,-0.00000704,-0.00001346,-0.00002335,-0.00002459,
 -0.00000240,0.00004638,-0.00003952,-0.00002353,0.00003095,0.00000391,0
 .00000576,-0.00003026,0.00005287,-0.00003008,0.00001947,-0.00003009,0.
 00000309,-0.00003019,0.00000486,-0.00000019,0.00001405,0.00000550,0.00
 001332,-0.00010384,0.00000446,0.00000253,0.00009393,0.00000718,0.00000
 657,0.00000903,-0.00003088,-0.00000462,-0.00000764,0.00001586,0.000008
 10,-0.00000040,-0.00001975,0.00000216,-0.00000511,0.00000114,0.0000006
 1,0.00000813,0.00001937,-0.00000324,0.00000028,0.00000557,0.00002975,-
 0.00000297,-0.00001698,-0.00000355,-0.00000578,0.00000625,-0.00005663,
 -0.00001802,0.00004926,0.00005195,0.00001432,-0.00002246,-0.00000566,-
 0.00004269,0.00001223,-0.00000014,0.00000019,0.00000610,-0.00000437,0.
 00000182,-0.00000364,0.00000139,0.00000518,-0.00000293,0.00000194,-0.0
 0000175,-0.00001321,0.00000291,-0.00001769,0.00000453,0.00001185,0.000
 01269,-0.00000122,-0.00000066,0.00000013,-0.00000791,-0.00000903,-0.00
 000069,0.00000584,-0.00000041,0.00000336,-0.00000705,0.00000022,0.0000
 0009,0.00000783,0.00000292,0.00000038,-0.00000665,-0.00000510,-0.00000
 354,-0.00000754,0.00000317,-0.00000159,0.00000159,0.00000123,0.0000022
 1,0.00000510\\\@


 O WAD SOME POWER THE GIFTIE GIE US       
 TO SEE OURSELS AS OTHERS SEE US.....     
 IT WOULD FRAE MONIE A BLUNDER FREE US,   
                     AND FOOLISH NOTION...
 WHAT AIRS IN DRESS AND GAIT WAD LEA'E US,
                     AND EV'N DEVOTION....
                                          
              (ROBERT BURNS 'TO A LOUSE') 
 Job cpu time:  0 days 14 hours 11 minutes  2.2 seconds.
 File lengths (MBytes):  RWF=   1528 Int=      0 D2E=      0 Chk=     27 Scr=      1
 Normal termination of Gaussian 09 at Sun Dec 29 22:30:15 2013.
