 Entering Gaussian System, Link 0=g09
 Initial command:
 /opt/gaussian/g09/l1.exe /panfs/panfs.cluster/home/shuo/Gau-19407.inp -scrdir=/panfs/panfs.cluster/home/shuo/
 Default is to use a total of  12 processors:
                               12 via shared-memory
                                1 via Linda
 Entering Link 1 = /opt/gaussian/g09/l1.exe PID=     19408.
  
 Copyright (c) 1988,1990,1992,1993,1995,1998,2003,2009,2011,
            Gaussian, Inc.  All Rights Reserved.
  
 This is part of the Gaussian(R) 09 program.  It is based on
 the Gaussian(R) 03 system (copyright 2003, Gaussian, Inc.),
 the Gaussian(R) 98 system (copyright 1998, Gaussian, Inc.),
 the Gaussian(R) 94 system (copyright 1995, Gaussian, Inc.),
 the Gaussian 92(TM) system (copyright 1992, Gaussian, Inc.),
 the Gaussian 90(TM) system (copyright 1990, Gaussian, Inc.),
 the Gaussian 88(TM) system (copyright 1988, Gaussian, Inc.),
 the Gaussian 86(TM) system (copyright 1986, Carnegie Mellon
 University), and the Gaussian 82(TM) system (copyright 1983,
 Carnegie Mellon University). Gaussian is a federally registered
 trademark of Gaussian, Inc.
  
 This software contains proprietary and confidential information,
 including trade secrets, belonging to Gaussian, Inc.
  
 This software is provided under written license and may be
 used, copied, transmitted, or stored only in accord with that
 written license.
  
 The following legend is applicable only to US Government
 contracts under FAR:
  
                    RESTRICTED RIGHTS LEGEND
  
 Use, reproduction and disclosure by the US Government is
 subject to restrictions as set forth in subparagraphs (a)
 and (c) of the Commercial Computer Software - Restricted
 Rights clause in FAR 52.227-19.
  
 Gaussian, Inc.
 340 Quinnipiac St., Bldg. 40, Wallingford CT 06492
  
  
 ---------------------------------------------------------------
 Warning -- This program may not be used in any manner that
 competes with the business of Gaussian, Inc. or will provide
 assistance to any competitor of Gaussian, Inc.  The licensee
 of this program is prohibited from giving any competitor of
 Gaussian, Inc. access to this program.  By using this program,
 the user acknowledges that Gaussian, Inc. is engaged in the
 business of creating and licensing software in the field of
 computational chemistry and represents and warrants to the
 licensee that it is not a competitor of Gaussian, Inc. and that
 it will not use this program in any manner prohibited above.
 ---------------------------------------------------------------
  

 Cite this work as:
 Gaussian 09, Revision C.01,
 M. J. Frisch, G. W. Trucks, H. B. Schlegel, G. E. Scuseria, 
 M. A. Robb, J. R. Cheeseman, G. Scalmani, V. Barone, B. Mennucci, 
 G. A. Petersson, H. Nakatsuji, M. Caricato, X. Li, H. P. Hratchian, 
 A. F. Izmaylov, J. Bloino, G. Zheng, J. L. Sonnenberg, M. Hada, 
 M. Ehara, K. Toyota, R. Fukuda, J. Hasegawa, M. Ishida, T. Nakajima, 
 Y. Honda, O. Kitao, H. Nakai, T. Vreven, J. A. Montgomery, Jr., 
 J. E. Peralta, F. Ogliaro, M. Bearpark, J. J. Heyd, E. Brothers, 
 K. N. Kudin, V. N. Staroverov, T. Keith, R. Kobayashi, J. Normand, 
 K. Raghavachari, A. Rendell, J. C. Burant, S. S. Iyengar, J. Tomasi, 
 M. Cossi, N. Rega, J. M. Millam, M. Klene, J. E. Knox, J. B. Cross, 
 V. Bakken, C. Adamo, J. Jaramillo, R. Gomperts, R. E. Stratmann, 
 O. Yazyev, A. J. Austin, R. Cammi, C. Pomelli, J. W. Ochterski, 
 R. L. Martin, K. Morokuma, V. G. Zakrzewski, G. A. Voth, 
 P. Salvador, J. J. Dannenberg, S. Dapprich, A. D. Daniels, 
 O. Farkas, J. B. Foresman, J. V. Ortiz, J. Cioslowski, 
 and D. J. Fox, Gaussian, Inc., Wallingford CT, 2010.
 
 ******************************************
 Gaussian 09:  EM64L-G09RevC.01 23-Sep-2011
                29-Dec-2013 
 ******************************************
 %chk=75_C23H13N3OS3Si.chk
 %NProcShared=12
 Will use up to   12 processors via shared memory.
 %Mem=8000MB
 Default route:  MaxDisk=100GB
 --------------------------------------------
 #B3LYP/6-31++G(d,p) opt scf=direct freq test
 --------------------------------------------
 1/14=-1,18=20,19=15,26=3,38=1/1,3;
 2/9=110,12=2,17=6,18=5,40=1/2;
 3/5=1,6=6,7=1111,11=2,16=1,25=1,30=1,71=1,74=-5/1,2,3;
 4//1;
 5/5=2,38=5/2;
 6/7=2,8=2,9=2,10=2,28=1/1;
 7//1,2,3,16;
 1/14=-1,18=20,19=15/3(2);
 2/9=110/2;
 99//99;
 2/9=110/2;
 3/5=1,6=6,7=1111,11=2,16=1,25=1,30=1,71=1,74=-5/1,2,3;
 4/5=5,16=3/1;
 5/5=2,38=5/2;
 7//1,2,3,16;
 1/14=-1,18=20,19=15/3(-5);
 2/9=110/2;
 6/7=2,8=2,9=2,10=2,19=2,28=1/1;
 99/9=1/99;
 ----------------------------------------------------------------------
 Geom opt of No.75 candidate from the CEPDB database with SMILE code of
  [SiH2]1C=c2ccc3c(c4ccc5cc(-c6ncncn6)c6nsnc6c5c4c4=C[SiH2]C=c34)c2=C1,
  HPC, 20131227, Shuo Dai, Gaussian09
 ----------------------------------------------------------------------
 Charge =  0 Multiplicity = 1
 Symbolic Z-Matrix:
 Si                    2.1002    0.03882   0.60057 
 H                     2.56726  -0.4432    1.91926 
 H                     2.82602   1.19158  -0.11908 
 C                     0.61701  -1.44195   0.11087 
 C                     1.09413  -2.20856  -0.87502 
 C                     0.42045  -3.12169  -1.79782 
 C                     1.1462   -3.83572  -2.5875 
 C                     2.62847  -3.76158  -2.70733 
 C                     3.28826  -2.65049  -2.19124 
 C                     4.88439  -2.78823  -2.20397 
 C                     5.70737  -1.91903  -1.50763 
 C                     7.12253  -2.0406   -1.60962 
 C                     7.8404   -3.01502  -2.36671 
 C                     9.26457  -2.89433  -2.3888 
 C                     10.14749  -3.71332  -3.11403 
 C                     11.57607  -3.62066  -3.27309 
 N                     12.00504  -3.67904  -4.54653 
 C                     13.23896  -4.12719  -4.69907 
 N                     14.09186  -4.34285  -3.70749 
 C                     13.57413  -4.14756  -2.49107 
 N                     12.31613  -3.83719  -2.19372 
 C                     9.58105  -4.80293  -3.77066 
 N                     10.31452  -5.74083  -4.41078 
 S                     9.302    -6.78471  -5.10945 
 N                     7.93194  -6.12784  -4.52737 
 C                     8.12305  -5.00911  -3.79246 
 C                     7.13074  -4.02843  -3.06884 
 C                     5.62698  -3.86593  -2.92747 
 C                     4.76275  -4.8501   -3.56575 
 C                     5.15947  -5.84078  -4.36769 
 Si                    3.93787  -6.91151  -5.15747 
 H                     3.56688  -6.48421  -6.50295 
 H                     4.81908  -8.09864  -5.49161 
 C                     2.7832   -5.93636  -4.05129 
 C                     3.33096  -4.85591  -3.41412 
 C                     2.31532  -1.62868  -1.442 
 C                     2.09274  -0.2686   -1.37138 
 H                    -0.40803  -1.07551   0.00855 
 H                    -0.67737  -3.16632  -1.83687 
 H                     0.69095  -4.60997  -3.22659 
 H                     5.3057   -1.12432  -0.88275 
 H                     7.70639  -1.28749  -1.07462 
 H                     9.72232  -2.08526  -1.81887 
 H                     13.56078  -4.34298  -5.71281 
 H                     14.24988  -4.24883  -1.65297 
 H                     6.09861  -6.13964  -4.6585 
 H                     1.75199  -6.18444  -4.17912 
 H                     1.11092   0.31995  -1.06952 
 

 GradGradGradGradGradGradGradGradGradGradGradGradGradGradGradGradGradGrad
 Berny optimization.
 Initialization pass.
                           ----------------------------
                           !    Initial Parameters    !
                           ! (Angstroms and Degrees)  !
 --------------------------                            --------------------------
 ! Name  Definition              Value          Derivative Info.                !
 --------------------------------------------------------------------------------
 ! R1    R(1,2)                  1.4797         estimate D2E/DX2                !
 ! R2    R(1,3)                  1.5406         estimate D2E/DX2                !
 ! R3    R(1,4)                  2.1523         estimate D2E/DX2                !
 ! R4    R(1,37)                 1.9958         estimate D2E/DX2                !
 ! R5    R(4,5)                  1.3369         estimate D2E/DX2                !
 ! R6    R(4,38)                 1.0934         estimate D2E/DX2                !
 ! R7    R(5,6)                  1.4626         estimate D2E/DX2                !
 ! R8    R(5,36)                 1.466          estimate D2E/DX2                !
 ! R9    R(6,7)                  1.2885         estimate D2E/DX2                !
 ! R10   R(6,39)                 1.0994         estimate D2E/DX2                !
 ! R11   R(7,8)                  1.489          estimate D2E/DX2                !
 ! R12   R(7,40)                 1.1023         estimate D2E/DX2                !
 ! R13   R(8,9)                  1.3915         estimate D2E/DX2                !
 ! R14   R(8,35)                 1.4801         estimate D2E/DX2                !
 ! R15   R(9,10)                 1.6021         estimate D2E/DX2                !
 ! R16   R(9,36)                 1.5975         estimate D2E/DX2                !
 ! R17   R(10,11)                1.3848         estimate D2E/DX2                !
 ! R18   R(10,28)                1.4954         estimate D2E/DX2                !
 ! R19   R(11,12)                1.424          estimate D2E/DX2                !
 ! R20   R(11,41)                1.0878         estimate D2E/DX2                !
 ! R21   R(12,13)                1.4276         estimate D2E/DX2                !
 ! R22   R(12,42)                1.0928         estimate D2E/DX2                !
 ! R23   R(13,14)                1.4294         estimate D2E/DX2                !
 ! R24   R(13,27)                1.4225         estimate D2E/DX2                !
 ! R25   R(14,15)                1.4058         estimate D2E/DX2                !
 ! R26   R(14,43)                1.0904         estimate D2E/DX2                !
 ! R27   R(15,16)                1.4404         estimate D2E/DX2                !
 ! R28   R(15,22)                1.3926         estimate D2E/DX2                !
 ! R29   R(16,17)                1.345          estimate D2E/DX2                !
 ! R30   R(16,21)                1.3265         estimate D2E/DX2                !
 ! R31   R(17,18)                1.3216         estimate D2E/DX2                !
 ! R32   R(18,19)                1.3256         estimate D2E/DX2                !
 ! R33   R(18,44)                1.0853         estimate D2E/DX2                !
 ! R34   R(19,20)                1.3364         estimate D2E/DX2                !
 ! R35   R(20,21)                1.3294         estimate D2E/DX2                !
 ! R36   R(20,45)                1.0813         estimate D2E/DX2                !
 ! R37   R(22,23)                1.3518         estimate D2E/DX2                !
 ! R38   R(22,26)                1.4727         estimate D2E/DX2                !
 ! R39   R(23,24)                1.6134         estimate D2E/DX2                !
 ! R40   R(24,25)                1.6271         estimate D2E/DX2                !
 ! R41   R(25,26)                1.3521         estimate D2E/DX2                !
 ! R42   R(26,27)                1.5716         estimate D2E/DX2                !
 ! R43   R(27,28)                1.5191         estimate D2E/DX2                !
 ! R44   R(28,29)                1.457          estimate D2E/DX2                !
 ! R45   R(29,30)                1.3349         estimate D2E/DX2                !
 ! R46   R(29,35)                1.4398         estimate D2E/DX2                !
 ! R47   R(30,31)                1.8062         estimate D2E/DX2                !
 ! R48   R(30,46)                1.0276         estimate D2E/DX2                !
 ! R49   R(31,32)                1.4596         estimate D2E/DX2                !
 ! R50   R(31,33)                1.5157         estimate D2E/DX2                !
 ! R51   R(31,34)                1.8729         estimate D2E/DX2                !
 ! R52   R(34,35)                1.3687         estimate D2E/DX2                !
 ! R53   R(34,47)                1.0683         estimate D2E/DX2                !
 ! R54   R(36,37)                1.38           estimate D2E/DX2                !
 ! R55   R(37,48)                1.1838         estimate D2E/DX2                !
 ! A1    A(2,1,3)              120.7524         estimate D2E/DX2                !
 ! A2    A(2,1,4)              101.3131         estimate D2E/DX2                !
 ! A3    A(2,1,37)             146.2596         estimate D2E/DX2                !
 ! A4    A(3,1,4)              137.1521         estimate D2E/DX2                !
 ! A5    A(3,1,37)              69.8476         estimate D2E/DX2                !
 ! A6    A(4,1,37)              70.5272         estimate D2E/DX2                !
 ! A7    A(1,4,5)              108.4431         estimate D2E/DX2                !
 ! A8    A(1,4,38)             115.8979         estimate D2E/DX2                !
 ! A9    A(5,4,38)             117.2421         estimate D2E/DX2                !
 ! A10   A(4,5,6)              131.2152         estimate D2E/DX2                !
 ! A11   A(4,5,36)             110.8356         estimate D2E/DX2                !
 ! A12   A(6,5,36)             112.7452         estimate D2E/DX2                !
 ! A13   A(5,6,7)              118.2437         estimate D2E/DX2                !
 ! A14   A(5,6,39)             120.5098         estimate D2E/DX2                !
 ! A15   A(7,6,39)             121.2104         estimate D2E/DX2                !
 ! A16   A(6,7,8)              125.6244         estimate D2E/DX2                !
 ! A17   A(6,7,40)             120.7929         estimate D2E/DX2                !
 ! A18   A(8,7,40)             113.5436         estimate D2E/DX2                !
 ! A19   A(7,8,9)              118.8128         estimate D2E/DX2                !
 ! A20   A(7,8,35)             118.302          estimate D2E/DX2                !
 ! A21   A(9,8,35)             122.8509         estimate D2E/DX2                !
 ! A22   A(8,9,10)             113.6281         estimate D2E/DX2                !
 ! A23   A(8,9,36)             113.3225         estimate D2E/DX2                !
 ! A24   A(10,9,36)            131.7188         estimate D2E/DX2                !
 ! A25   A(9,10,11)            122.2838         estimate D2E/DX2                !
 ! A26   A(9,10,28)            124.0917         estimate D2E/DX2                !
 ! A27   A(11,10,28)           113.6097         estimate D2E/DX2                !
 ! A28   A(10,11,12)           120.0657         estimate D2E/DX2                !
 ! A29   A(10,11,41)           121.8671         estimate D2E/DX2                !
 ! A30   A(12,11,41)           118.0633         estimate D2E/DX2                !
 ! A31   A(11,12,13)           126.5822         estimate D2E/DX2                !
 ! A32   A(11,12,42)           115.9152         estimate D2E/DX2                !
 ! A33   A(13,12,42)           117.4738         estimate D2E/DX2                !
 ! A34   A(12,13,14)           116.8441         estimate D2E/DX2                !
 ! A35   A(12,13,27)           119.8119         estimate D2E/DX2                !
 ! A36   A(14,13,27)           123.3362         estimate D2E/DX2                !
 ! A37   A(13,14,15)           125.7694         estimate D2E/DX2                !
 ! A38   A(13,14,43)           118.2179         estimate D2E/DX2                !
 ! A39   A(15,14,43)           115.993          estimate D2E/DX2                !
 ! A40   A(14,15,16)           129.971          estimate D2E/DX2                !
 ! A41   A(14,15,22)           116.3352         estimate D2E/DX2                !
 ! A42   A(16,15,22)           113.6837         estimate D2E/DX2                !
 ! A43   A(15,16,17)           114.7132         estimate D2E/DX2                !
 ! A44   A(15,16,21)           116.9345         estimate D2E/DX2                !
 ! A45   A(17,16,21)           125.8294         estimate D2E/DX2                !
 ! A46   A(16,17,18)           114.9461         estimate D2E/DX2                !
 ! A47   A(17,18,19)           124.7189         estimate D2E/DX2                !
 ! A48   A(17,18,44)           116.8782         estimate D2E/DX2                !
 ! A49   A(19,18,44)           118.3976         estimate D2E/DX2                !
 ! A50   A(18,19,20)           114.0698         estimate D2E/DX2                !
 ! A51   A(19,20,21)           127.1802         estimate D2E/DX2                !
 ! A52   A(19,20,45)           116.7245         estimate D2E/DX2                !
 ! A53   A(21,20,45)           116.0949         estimate D2E/DX2                !
 ! A54   A(16,21,20)           112.5845         estimate D2E/DX2                !
 ! A55   A(15,22,23)           123.0552         estimate D2E/DX2                !
 ! A56   A(15,22,26)           121.2807         estimate D2E/DX2                !
 ! A57   A(23,22,26)           115.6602         estimate D2E/DX2                !
 ! A58   A(22,23,24)           108.2673         estimate D2E/DX2                !
 ! A59   A(23,24,25)            96.4488         estimate D2E/DX2                !
 ! A60   A(24,25,26)           114.1712         estimate D2E/DX2                !
 ! A61   A(22,26,25)           105.2969         estimate D2E/DX2                !
 ! A62   A(22,26,27)           122.0678         estimate D2E/DX2                !
 ! A63   A(25,26,27)           132.6332         estimate D2E/DX2                !
 ! A64   A(13,27,26)           110.9039         estimate D2E/DX2                !
 ! A65   A(13,27,28)           111.82           estimate D2E/DX2                !
 ! A66   A(26,27,28)           137.2738         estimate D2E/DX2                !
 ! A67   A(10,28,27)           127.8551         estimate D2E/DX2                !
 ! A68   A(10,28,29)           113.8401         estimate D2E/DX2                !
 ! A69   A(27,28,29)           118.3031         estimate D2E/DX2                !
 ! A70   A(28,29,30)           126.0286         estimate D2E/DX2                !
 ! A71   A(28,29,35)           123.1231         estimate D2E/DX2                !
 ! A72   A(30,29,35)           110.843          estimate D2E/DX2                !
 ! A73   A(29,30,31)           120.1071         estimate D2E/DX2                !
 ! A74   A(29,30,46)           131.1086         estimate D2E/DX2                !
 ! A75   A(31,30,46)           108.782          estimate D2E/DX2                !
 ! A76   A(30,31,32)           113.6666         estimate D2E/DX2                !
 ! A77   A(30,31,33)            99.6409         estimate D2E/DX2                !
 ! A78   A(30,31,34)            81.3769         estimate D2E/DX2                !
 ! A79   A(32,31,33)           100.011          estimate D2E/DX2                !
 ! A80   A(32,31,34)           103.61           estimate D2E/DX2                !
 ! A81   A(33,31,34)           153.6894         estimate D2E/DX2                !
 ! A82   A(31,34,35)           116.0542         estimate D2E/DX2                !
 ! A83   A(31,34,47)           113.7986         estimate D2E/DX2                !
 ! A84   A(35,34,47)           128.7053         estimate D2E/DX2                !
 ! A85   A(8,35,29)            121.2851         estimate D2E/DX2                !
 ! A86   A(8,35,34)            128.0255         estimate D2E/DX2                !
 ! A87   A(29,35,34)           110.6176         estimate D2E/DX2                !
 ! A88   A(5,36,9)             115.8314         estimate D2E/DX2                !
 ! A89   A(5,36,37)            103.6332         estimate D2E/DX2                !
 ! A90   A(9,36,37)            138.8189         estimate D2E/DX2                !
 ! A91   A(1,37,36)            101.6407         estimate D2E/DX2                !
 ! A92   A(1,37,48)             71.0091         estimate D2E/DX2                !
 ! A93   A(36,37,48)           129.5536         estimate D2E/DX2                !
 ! D1    D(2,1,4,5)           -108.5352         estimate D2E/DX2                !
 ! D2    D(2,1,4,38)           117.1722         estimate D2E/DX2                !
 ! D3    D(3,1,4,5)             60.7224         estimate D2E/DX2                !
 ! D4    D(3,1,4,38)           -73.5702         estimate D2E/DX2                !
 ! D5    D(37,1,4,5)            37.4357         estimate D2E/DX2                !
 ! D6    D(37,1,4,38)          -96.8569         estimate D2E/DX2                !
 ! D7    D(2,1,37,36)           24.7198         estimate D2E/DX2                !
 ! D8    D(2,1,37,48)          152.7953         estimate D2E/DX2                !
 ! D9    D(3,1,37,36)          140.2637         estimate D2E/DX2                !
 ! D10   D(3,1,37,48)          -91.6608         estimate D2E/DX2                !
 ! D11   D(4,1,37,36)          -56.3776         estimate D2E/DX2                !
 ! D12   D(4,1,37,48)           71.6979         estimate D2E/DX2                !
 ! D13   D(1,4,5,6)           -162.897          estimate D2E/DX2                !
 ! D14   D(1,4,5,36)           -10.8555         estimate D2E/DX2                !
 ! D15   D(38,4,5,6)           -29.3019         estimate D2E/DX2                !
 ! D16   D(38,4,5,36)          122.7396         estimate D2E/DX2                !
 ! D17   D(4,5,6,7)           -173.9252         estimate D2E/DX2                !
 ! D18   D(4,5,6,39)             8.2354         estimate D2E/DX2                !
 ! D19   D(36,5,6,7)            34.442          estimate D2E/DX2                !
 ! D20   D(36,5,6,39)         -143.3974         estimate D2E/DX2                !
 ! D21   D(4,5,36,9)           157.1155         estimate D2E/DX2                !
 ! D22   D(4,5,36,37)          -34.9694         estimate D2E/DX2                !
 ! D23   D(6,5,36,9)           -45.3677         estimate D2E/DX2                !
 ! D24   D(6,5,36,37)          122.5474         estimate D2E/DX2                !
 ! D25   D(5,6,7,8)             -3.8236         estimate D2E/DX2                !
 ! D26   D(5,6,7,40)           173.7489         estimate D2E/DX2                !
 ! D27   D(39,6,7,8)           173.9998         estimate D2E/DX2                !
 ! D28   D(39,6,7,40)           -8.4276         estimate D2E/DX2                !
 ! D29   D(6,7,8,9)            -16.3386         estimate D2E/DX2                !
 ! D30   D(6,7,8,35)           165.7299         estimate D2E/DX2                !
 ! D31   D(40,7,8,9)           165.9359         estimate D2E/DX2                !
 ! D32   D(40,7,8,35)          -11.9956         estimate D2E/DX2                !
 ! D33   D(7,8,9,10)           172.029          estimate D2E/DX2                !
 ! D34   D(7,8,9,36)             3.6186         estimate D2E/DX2                !
 ! D35   D(35,8,9,10)          -10.139          estimate D2E/DX2                !
 ! D36   D(35,8,9,36)         -178.5494         estimate D2E/DX2                !
 ! D37   D(7,8,35,29)         -179.9201         estimate D2E/DX2                !
 ! D38   D(7,8,35,34)            3.4607         estimate D2E/DX2                !
 ! D39   D(9,8,35,29)            2.2374         estimate D2E/DX2                !
 ! D40   D(9,8,35,34)         -174.3819         estimate D2E/DX2                !
 ! D41   D(8,9,10,11)         -167.242          estimate D2E/DX2                !
 ! D42   D(8,9,10,28)           11.2699         estimate D2E/DX2                !
 ! D43   D(36,9,10,11)          -1.5514         estimate D2E/DX2                !
 ! D44   D(36,9,10,28)         176.9604         estimate D2E/DX2                !
 ! D45   D(8,9,36,5)            26.4663         estimate D2E/DX2                !
 ! D46   D(8,9,36,37)         -135.5343         estimate D2E/DX2                !
 ! D47   D(10,9,36,5)         -139.2581         estimate D2E/DX2                !
 ! D48   D(10,9,36,37)          58.7413         estimate D2E/DX2                !
 ! D49   D(9,10,11,12)        -176.6088         estimate D2E/DX2                !
 ! D50   D(9,10,11,41)           2.6541         estimate D2E/DX2                !
 ! D51   D(28,10,11,12)          4.7362         estimate D2E/DX2                !
 ! D52   D(28,10,11,41)       -176.001          estimate D2E/DX2                !
 ! D53   D(9,10,28,27)         175.8596         estimate D2E/DX2                !
 ! D54   D(9,10,28,29)          -3.6608         estimate D2E/DX2                !
 ! D55   D(11,10,28,27)         -5.5134         estimate D2E/DX2                !
 ! D56   D(11,10,28,29)        174.9662         estimate D2E/DX2                !
 ! D57   D(10,11,12,13)         -1.1092         estimate D2E/DX2                !
 ! D58   D(10,11,12,42)        176.8764         estimate D2E/DX2                !
 ! D59   D(41,11,12,13)        179.6003         estimate D2E/DX2                !
 ! D60   D(41,11,12,42)         -2.4142         estimate D2E/DX2                !
 ! D61   D(11,12,13,14)        176.1844         estimate D2E/DX2                !
 ! D62   D(11,12,13,27)         -2.8285         estimate D2E/DX2                !
 ! D63   D(42,12,13,14)         -1.7733         estimate D2E/DX2                !
 ! D64   D(42,12,13,27)        179.2137         estimate D2E/DX2                !
 ! D65   D(12,13,14,15)       -177.2535         estimate D2E/DX2                !
 ! D66   D(12,13,14,43)          1.0626         estimate D2E/DX2                !
 ! D67   D(27,13,14,15)          1.7215         estimate D2E/DX2                !
 ! D68   D(27,13,14,43)       -179.9624         estimate D2E/DX2                !
 ! D69   D(12,13,27,26)       -178.2986         estimate D2E/DX2                !
 ! D70   D(12,13,27,28)          2.1571         estimate D2E/DX2                !
 ! D71   D(14,13,27,26)          2.7555         estimate D2E/DX2                !
 ! D72   D(14,13,27,28)       -176.7889         estimate D2E/DX2                !
 ! D73   D(13,14,15,16)        175.3636         estimate D2E/DX2                !
 ! D74   D(13,14,15,22)         -5.8803         estimate D2E/DX2                !
 ! D75   D(43,14,15,16)         -2.9857         estimate D2E/DX2                !
 ! D76   D(43,14,15,22)        175.7705         estimate D2E/DX2                !
 ! D77   D(14,15,16,17)       -129.7812         estimate D2E/DX2                !
 ! D78   D(14,15,16,21)         67.1539         estimate D2E/DX2                !
 ! D79   D(22,15,16,17)         51.436          estimate D2E/DX2                !
 ! D80   D(22,15,16,21)       -111.6288         estimate D2E/DX2                !
 ! D81   D(14,15,22,23)       -174.1845         estimate D2E/DX2                !
 ! D82   D(14,15,22,26)          5.0641         estimate D2E/DX2                !
 ! D83   D(16,15,22,23)          4.7746         estimate D2E/DX2                !
 ! D84   D(16,15,22,26)       -175.9768         estimate D2E/DX2                !
 ! D85   D(15,16,17,18)       -154.046          estimate D2E/DX2                !
 ! D86   D(21,16,17,18)          7.2726         estimate D2E/DX2                !
 ! D87   D(15,16,21,20)        160.15           estimate D2E/DX2                !
 ! D88   D(17,16,21,20)         -0.8012         estimate D2E/DX2                !
 ! D89   D(16,17,18,19)         -8.9625         estimate D2E/DX2                !
 ! D90   D(16,17,18,44)        170.183          estimate D2E/DX2                !
 ! D91   D(17,18,19,20)          4.0469         estimate D2E/DX2                !
 ! D92   D(44,18,19,20)       -175.0867         estimate D2E/DX2                !
 ! D93   D(18,19,20,21)          3.6348         estimate D2E/DX2                !
 ! D94   D(18,19,20,45)       -176.144          estimate D2E/DX2                !
 ! D95   D(19,20,21,16)         -5.0737         estimate D2E/DX2                !
 ! D96   D(45,20,21,16)        174.7064         estimate D2E/DX2                !
 ! D97   D(15,22,23,24)       -176.8947         estimate D2E/DX2                !
 ! D98   D(26,22,23,24)          3.8177         estimate D2E/DX2                !
 ! D99   D(15,22,26,25)        178.8519         estimate D2E/DX2                !
 ! D100  D(15,22,26,27)         -0.6759         estimate D2E/DX2                !
 ! D101  D(23,22,26,25)         -1.8467         estimate D2E/DX2                !
 ! D102  D(23,22,26,27)        178.6254         estimate D2E/DX2                !
 ! D103  D(22,23,24,25)         -3.7393         estimate D2E/DX2                !
 ! D104  D(23,24,25,26)          2.8852         estimate D2E/DX2                !
 ! D105  D(24,25,26,22)         -1.0294         estimate D2E/DX2                !
 ! D106  D(24,25,26,27)        178.4268         estimate D2E/DX2                !
 ! D107  D(22,26,27,13)         -3.237          estimate D2E/DX2                !
 ! D108  D(22,26,27,28)        176.1395         estimate D2E/DX2                !
 ! D109  D(25,26,27,13)        177.382          estimate D2E/DX2                !
 ! D110  D(25,26,27,28)         -3.2414         estimate D2E/DX2                !
 ! D111  D(13,27,28,10)          1.9756         estimate D2E/DX2                !
 ! D112  D(13,27,28,29)       -178.5226         estimate D2E/DX2                !
 ! D113  D(26,27,28,10)       -177.3971         estimate D2E/DX2                !
 ! D114  D(26,27,28,29)          2.1047         estimate D2E/DX2                !
 ! D115  D(10,28,29,30)        173.7454         estimate D2E/DX2                !
 ! D116  D(10,28,29,35)         -5.3439         estimate D2E/DX2                !
 ! D117  D(27,28,29,30)         -5.8245         estimate D2E/DX2                !
 ! D118  D(27,28,29,35)        175.0862         estimate D2E/DX2                !
 ! D119  D(28,29,30,31)       -176.1967         estimate D2E/DX2                !
 ! D120  D(28,29,30,46)          3.184          estimate D2E/DX2                !
 ! D121  D(35,29,30,31)          2.9872         estimate D2E/DX2                !
 ! D122  D(35,29,30,46)       -177.6321         estimate D2E/DX2                !
 ! D123  D(28,29,35,8)           6.6806         estimate D2E/DX2                !
 ! D124  D(28,29,35,34)       -176.1643         estimate D2E/DX2                !
 ! D125  D(30,29,35,8)        -172.5313         estimate D2E/DX2                !
 ! D126  D(30,29,35,34)          4.6238         estimate D2E/DX2                !
 ! D127  D(29,30,31,32)         94.3152         estimate D2E/DX2                !
 ! D128  D(29,30,31,33)       -160.2007         estimate D2E/DX2                !
 ! D129  D(29,30,31,34)         -6.8357         estimate D2E/DX2                !
 ! D130  D(46,30,31,32)        -85.192          estimate D2E/DX2                !
 ! D131  D(46,30,31,33)         20.2921         estimate D2E/DX2                !
 ! D132  D(46,30,31,34)        173.6571         estimate D2E/DX2                !
 ! D133  D(30,31,34,35)          9.3986         estimate D2E/DX2                !
 ! D134  D(30,31,34,47)        176.9132         estimate D2E/DX2                !
 ! D135  D(32,31,34,35)       -102.9981         estimate D2E/DX2                !
 ! D136  D(32,31,34,47)         64.5165         estimate D2E/DX2                !
 ! D137  D(33,31,34,35)        103.7267         estimate D2E/DX2                !
 ! D138  D(33,31,34,47)        -88.7586         estimate D2E/DX2                !
 ! D139  D(31,34,35,8)         166.8246         estimate D2E/DX2                !
 ! D140  D(31,34,35,29)        -10.0889         estimate D2E/DX2                !
 ! D141  D(47,34,35,8)           1.508          estimate D2E/DX2                !
 ! D142  D(47,34,35,29)       -175.4054         estimate D2E/DX2                !
 ! D143  D(5,36,37,1)           67.4082         estimate D2E/DX2                !
 ! D144  D(5,36,37,48)          -7.4759         estimate D2E/DX2                !
 ! D145  D(9,36,37,1)         -129.2221         estimate D2E/DX2                !
 ! D146  D(9,36,37,48)         155.8938         estimate D2E/DX2                !
 --------------------------------------------------------------------------------
 Trust Radius=3.00D-01 FncErr=1.00D-07 GrdErr=1.00D-06
 Number of steps in this run=    288 maximum allowed number of steps=    288.
 GradGradGradGradGradGradGradGradGradGradGradGradGradGradGradGradGradGrad

                          Input orientation:                          
 ---------------------------------------------------------------------
 Center     Atomic      Atomic             Coordinates (Angstroms)
 Number     Number       Type             X           Y           Z
 ---------------------------------------------------------------------
      1         14           0        2.100200    0.038820    0.600570
      2          1           0        2.567260   -0.443200    1.919260
      3          1           0        2.826020    1.191580   -0.119080
      4          6           0        0.617010   -1.441950    0.110870
      5          6           0        1.094130   -2.208560   -0.875020
      6          6           0        0.420450   -3.121690   -1.797820
      7          6           0        1.146200   -3.835720   -2.587500
      8          6           0        2.628470   -3.761580   -2.707330
      9          6           0        3.288260   -2.650490   -2.191240
     10          6           0        4.884390   -2.788230   -2.203970
     11          6           0        5.707370   -1.919030   -1.507630
     12          6           0        7.122530   -2.040600   -1.609620
     13          6           0        7.840400   -3.015020   -2.366710
     14          6           0        9.264570   -2.894330   -2.388800
     15          6           0       10.147490   -3.713320   -3.114030
     16          6           0       11.576070   -3.620660   -3.273090
     17          7           0       12.005040   -3.679040   -4.546530
     18          6           0       13.238960   -4.127190   -4.699070
     19          7           0       14.091860   -4.342850   -3.707490
     20          6           0       13.574130   -4.147560   -2.491070
     21          7           0       12.316130   -3.837190   -2.193720
     22          6           0        9.581050   -4.802930   -3.770660
     23          7           0       10.314520   -5.740830   -4.410780
     24         16           0        9.302000   -6.784710   -5.109450
     25          7           0        7.931940   -6.127840   -4.527370
     26          6           0        8.123050   -5.009110   -3.792460
     27          6           0        7.130740   -4.028430   -3.068840
     28          6           0        5.626980   -3.865930   -2.927470
     29          6           0        4.762750   -4.850100   -3.565750
     30          6           0        5.159470   -5.840780   -4.367690
     31         14           0        3.937870   -6.911510   -5.157470
     32          1           0        3.566880   -6.484210   -6.502950
     33          1           0        4.819080   -8.098640   -5.491610
     34          6           0        2.783200   -5.936360   -4.051290
     35          6           0        3.330960   -4.855910   -3.414120
     36          6           0        2.315320   -1.628680   -1.442000
     37          6           0        2.092740   -0.268600   -1.371380
     38          1           0       -0.408030   -1.075510    0.008550
     39          1           0       -0.677370   -3.166320   -1.836870
     40          1           0        0.690950   -4.609970   -3.226590
     41          1           0        5.305700   -1.124320   -0.882750
     42          1           0        7.706390   -1.287490   -1.074620
     43          1           0        9.722320   -2.085260   -1.818870
     44          1           0       13.560780   -4.342980   -5.712810
     45          1           0       14.249880   -4.248830   -1.652970
     46          1           0        6.098610   -6.139640   -4.658500
     47          1           0        1.751990   -6.184440   -4.179120
     48          1           0        1.110920    0.319950   -1.069520
 ---------------------------------------------------------------------
                    Distance matrix (angstroms):
                    1          2          3          4          5
     1  Si   0.000000
     2  H    1.479673   0.000000
     3  H    1.540638   2.625698   0.000000
     4  C    2.152287   2.840995   3.445008   0.000000
     5  C    2.870585   3.618647   3.889967   1.336904   0.000000
     6  C    4.308440   5.059623   5.216247   2.550149   1.462604
     7  C    5.107442   5.817172   5.847105   3.645734   2.362826
     8  C    5.065996   5.693920   5.592125   4.167602   2.850163
     9  C    4.054390   4.721036   4.389649   3.727715   2.596525
    10  C    4.858947   5.279137   4.941917   5.038004   4.058103
    11  C    4.614039   4.876673   4.461630   5.362734   4.665405
    12  C    5.867941   5.979562   5.579310   6.755757   6.075315
    13  C    7.147068   7.265659   6.920356   7.796814   6.956125
    14  C    8.298669   8.331949   7.956206   9.118007   8.337740
    15  C    9.624743   9.668898   9.307615  10.314512   9.446735
    16  C   10.871483  10.872691  10.472288  11.674714  10.845083
    17  N   11.765244  11.889020  11.295117  12.505326  11.605613
    18  C   13.019746  13.086606  12.557665  13.771698  12.876389
    19  N   13.474358  13.404626  13.054721  14.302681  13.472901
    20  C   12.599011  12.422740  12.233341  13.489899  12.732704
    21  N   11.278153  11.111986  10.938686  12.162143  11.415984
    22  C    9.925387  10.028743   9.741592  10.330367   9.335057
    23  N   11.224662  11.320527  11.070439  11.531149  10.487808
    24  S   11.446869  11.617841  11.422054  11.455386  10.307312
    25  N    9.916282  10.131829   9.953761   9.847793   8.686545
    26  C    9.003057   9.183577   8.944317   9.181571   8.109270
    27  C    7.437300   7.652474   7.381071   7.696045   6.675735
    28  C    6.335007   6.675909   6.427351   6.340898   5.244631
    29  C    6.953340   7.370636   7.220274   6.505396   5.260849
    30  C    8.283262   8.682117   8.541063   7.748622   6.474469
    31  Si   9.210817   9.684922   9.606334   8.288522   6.967351
    32  H    9.755053  10.412812  10.011015   8.824326   7.487942
    33  H   10.522605  10.890246  10.915336   9.662127   8.359497
    34  C    7.603227   8.115966   8.140739   6.497359   5.180554
    35  C    6.449100   6.964208   6.905388   5.607691   4.296382
    36  C    2.645548   3.573081   3.156707   2.308794   1.465958
    37  C    1.995783   3.329259   2.058660   2.398248   2.237642
    38  H    2.807746   3.592072   3.951590   1.093368   2.078697
    39  H    4.891721   5.661406   5.849430   2.905609   2.231742
    40  H    6.184205   6.882026   6.919041   4.602223   3.385145
    41  H    3.718651   3.976712   3.477844   4.803330   4.348903
    42  H    5.999560   6.007229   5.556695   7.189475   6.679086
    43  H    8.274184   8.238013   7.822143   9.329760   8.680537
    44  H   13.798690  13.939665  13.310005  14.486974  13.541688
    45  H   13.079645  12.795595  12.745802  14.030141  13.335729
    46  H    9.045356   9.390782   9.222959   8.652348   7.403576
    47  H    7.854658   8.415268   8.487823   6.494875   5.211284
    48  H    1.961354   3.411177   2.145843   2.177512   2.536035
                    6          7          8          9         10
     6  C    0.000000
     7  C    1.288467   0.000000
     8  C    2.472250   1.488953   0.000000
     9  C    2.932771   2.479962   1.391471   0.000000
    10  C    4.494765   3.901076   2.507979   1.602113   0.000000
    11  C    5.429744   5.064000   3.783371   2.618100   1.384808
    12  C    6.791322   6.316267   4.935921   3.925796   2.433408
    13  C    7.442491   6.747934   5.276134   4.570082   2.969160
    14  C    8.866759   8.175184   6.700105   5.984544   4.385362
    15  C    9.833501   9.017507   7.530166   7.002156   5.420722
    16  C   11.263803  10.454591   8.966576   8.414239   6.827484
    17  N   11.919261  11.035250   9.555602   9.087770   7.548827
    18  C   13.181141  12.279191  10.802000  10.367559   8.821405
    19  N   13.858049  13.003910  11.521610  11.039967   9.458061
    20  C   13.211824  12.432216  10.954598  10.398569   8.800101
    21  N   11.923753  11.176869   9.701560   9.105531   7.505410
    22  C    9.520255   8.572168   7.110095   6.835698   5.345292
    23  N   10.563147   9.540015   8.117545   7.990300   6.563091
    24  S   10.162015   9.031824   7.710091   7.859567   6.627891
    25  N    8.538727   7.420457   6.085929   6.254057   5.083182
    26  C    8.177468   7.176713   5.737965   5.612681   4.236098
    27  C    6.889533   6.006958   4.524636   4.175351   2.707801
    28  C    5.379401   4.493760   3.008390   2.736593   1.495436
    29  C    4.996854   3.881414   2.544978   2.983569   2.473974
    30  C    6.037880   4.826560   3.672306   4.291423   3.751722
    31  Si   6.166217   4.884532   4.199973   5.232285   5.159506
    32  H    6.583678   5.310832   4.764458   5.776321   5.820424
    33  H    7.600136   6.332171   5.600096   6.551198   6.246062
    34  C    4.310810   3.038937   2.561218   3.809437   4.211688
    35  C    3.753800   2.548973   1.480068   2.522129   2.855330
    36  C    2.438487   2.747733   2.499677   1.597519   2.919807
    37  C    3.334446   3.885773   3.777920   2.788340   3.851630
    38  H    2.852403   4.095591   4.879683   4.580633   5.986515
    39  H    1.099421   2.082534   3.469959   4.014708   5.586671
    40  H    2.080753   1.102339   2.177930   3.414313   4.685022
    41  H    5.356539   5.249695   4.177534   2.848053   2.166038
    42  H    7.547995   7.198498   5.879807   4.756520   3.389887
    43  H    9.359456   8.786623   7.343168   6.469565   4.903880
    44  H   13.765427  12.811974  11.352812  10.990480   9.487305
    45  H   13.876043  13.143456  11.679309  11.090606   9.494701
    46  H    7.037969   5.841528   4.637252   5.114646   4.327932
    47  H    4.101710   2.901159   2.967260   4.335965   5.024678
    48  H    3.584976   4.424376   4.652340   3.850010   5.018649
                   11         12         13         14         15
    11  C    0.000000
    12  C    1.424029   0.000000
    13  C    2.547357   1.427591   0.000000
    14  C    3.792274   2.433991   1.429445   0.000000
    15  C    5.051204   3.769831   2.523643   1.405792   0.000000
    16  C    6.360349   5.009765   3.891472   2.579255   1.440391
    17  N    7.210631   5.928645   4.747290   3.575157   2.346002
    18  C    8.472668   7.163049   5.985088   4.759524   3.498689
    19  N    9.000776   7.633674   6.530052   5.209595   4.038138
    20  C    8.235254   6.843930   5.845834   4.489248   3.509773
    21  N    6.915618   5.526517   4.553905   3.199853   2.359092
    22  C    5.333252   4.283093   2.863138   2.377488   1.392576
    23  N    6.652839   5.632673   4.210645   3.646006   2.412521
    24  S    7.040548   6.285338   4.885638   4.747462   3.758988
    25  N    5.637519   5.086643   3.790314   4.099387   3.568767
    26  C    4.539224   3.818099   2.467600   2.783096   2.497538
    27  C    2.985453   2.465940   1.422534   2.510352   3.033499
    28  C    2.410981   2.702819   2.436745   3.803450   4.526931
    29  C    3.703962   4.157920   3.778511   5.047438   5.521933
    30  C    4.884697   5.089393   4.379067   5.426732   5.565797
    31  Si   6.432520   6.815795   6.180673   7.223365   7.277599
    32  H    7.097590   7.505531   6.885255   7.891587   7.903609
    33  H    7.405993   7.554838   6.688540   7.514962   7.299032
    34  C    5.582107   6.322063   6.078430   7.350236   7.749395
    35  C    4.231701   5.055511   4.982067   6.332993   6.918139
    36  C    3.405086   4.827737   5.770922   7.126737   8.275524
    37  C    3.975932   5.338120   6.447410   7.704852   8.932073
    38  H    6.356764   7.762680   8.800009  10.129886  11.319344
    39  H    6.513757   7.883992   8.535574   9.960963  10.913658
    40  H    5.946465   7.112065   7.375493   8.783637   9.499621
    41  H    1.087832   2.160736   3.493077   4.590618   5.926589
    42  H    2.140659   1.092837   2.161438   2.595559   4.000352
    43  H    4.030425   2.608580   2.169379   1.090390   2.123391
    44  H    9.232287   7.974220   6.758891   5.621837   4.335975
    45  H    8.855708   7.461721   6.566060   5.218183   4.387604
    46  H    5.281534   5.210203   4.248457   5.070195   4.966472
    47  H    6.401220   7.253719   7.099210   8.394577   8.816194
    48  H    5.131503   6.481000   7.621721   8.863075  10.104795
                   16         17         18         19         20
    16  C    0.000000
    17  N    1.345018   0.000000
    18  C    2.248376   1.321615   0.000000
    19  N    2.653198   2.345091   1.325586   0.000000
    20  C    2.209394   2.628016   2.233387   1.336361   0.000000
    21  N    1.326504   2.378551   2.685609   2.387553   1.329402
    22  C    2.371802   2.782235   3.833911   4.534652   4.244001
    23  N    2.716794   2.669694   3.352506   4.088675   4.104735
    24  S    4.307531   4.155537   4.767649   5.556162   5.662294
    25  N    4.597701   4.752592   5.674200   6.465524   6.316829
    26  C    3.757777   4.172236   5.269939   6.006481   5.670111
    27  C    4.468663   5.105335   6.322796   6.997423   6.470339
    28  C    5.964167   6.583003   7.819787   8.514110   7.964104
    29  C    6.929538   7.401627   8.582141   9.343965   8.904432
    30  C    6.877488   7.181012   8.265855   9.081148   8.786080
    31  Si   8.527759   8.712138   9.719714  10.573740  10.373361
    32  H    9.098299   9.104894  10.117246  11.098433  11.031780
    33  H    8.404228   8.489055   9.343175  10.162357  10.063060
    34  C    9.125931   9.507002  10.630881  11.425553  11.048903
    35  C    8.338319   8.826496  10.017514  10.777118  10.309040
    36  C    9.647920  10.379439  11.669489  12.295774  11.584736
    37  C   10.236521  10.952916  12.255630  12.885488  12.170553
    38  H   12.683280  13.476328  14.755161  15.320942  14.532253
    39  H   12.345685  12.978777  14.240074  14.933640  14.300212
    40  H   10.930084  11.428802  12.643331  13.412196  12.912441
    41  H    7.159817   8.051772   9.301513   9.774185   8.949503
    42  H    5.025075   6.020969   7.197907   7.552579   6.679574
    43  H    2.812223   3.897573   4.983150   5.268442   4.420563
    44  H    3.226926   2.054593   1.085266   2.074453   3.227689
    45  H    3.188831   3.706300   3.211772   2.062732   1.081344
    46  H    6.186048   6.399453   7.418639   8.247722   8.034273
    47  H   10.193449  10.561110  11.681314  12.485443  12.114511
    48  H   11.397521  12.114593  13.417900  14.042984  13.315820
                   21         22         23         24         25
    21  N    0.000000
    22  C    3.301523   0.000000
    23  N    3.541983   1.351809   0.000000
    24  S    5.125850   2.407837   1.613388   0.000000
    25  N    5.469380   2.246678   2.416621   1.627071   0.000000
    26  C    4.638026   1.472667   2.391710   2.505422   1.352099
    27  C    5.262193   2.663911   3.856108   4.059007   2.678946
    28  C    6.729334   4.150133   5.261985   5.175528   3.603992
    29  C    7.743514   4.822886   5.685915   5.170156   3.549802
    30  C    7.743275   4.580824   5.156199   4.312977   2.791862
    31  Si   9.403749   6.181815   6.526079   5.365843   4.118709
    32  H   10.105719   6.816330   7.103551   5.909631   4.804546
    33  H    9.232648   6.041501   6.076786   4.687113   3.808374
    34  C    9.936490   6.897404   7.542430   6.658390   5.174248
    35  C    9.124716   6.260475   7.109608   6.499826   4.901648
    36  C   10.269314   8.263737   9.471570   9.425950   7.829966
    37  C   10.859502   9.076975  10.333485  10.411834   8.853656
    38  H   13.205344  11.311844  12.500751  12.372290  10.754334
    39  H   13.015700  10.566609  11.579066  11.108121   9.493662
    40  H   11.696530   8.908823   9.761877   9.078813   7.511850
    41  H    7.630494   6.336467   7.671208   8.116368   6.724255
    42  H    5.385449   4.810541   6.145286   7.003232   5.949903
    43  H    3.152399   3.348906   4.520165   5.752340   5.184967
    44  H    3.766825   4.452163   3.766626   4.946038   6.022859
    45  H    2.049694   5.156512   5.031763   6.546714   7.190912
    46  H    7.073470   3.834376   4.241970   3.298663   1.838051
    47  H   11.002384   7.960502   8.577143   7.630759   6.190013
    48  H   12.004265  10.260758  11.515352  11.571129  10.002851
                   26         27         28         29         30
    26  C    0.000000
    27  C    1.571636   0.000000
    28  C    2.878443   1.519107   0.000000
    29  C    3.371691   2.555276   1.457013   0.000000
    30  C    3.131353   2.976160   2.488540   1.334894   0.000000
    31  Si   4.795634   4.782149   4.135402   2.731924   1.806245
    32  H    5.502850   5.524949   4.887071   3.567571   2.740380
    33  H    4.832031   5.270692   5.014315   3.776920   2.544994
    34  C    5.425936   4.848351   3.692795   2.309616   2.399146
    35  C    4.809443   3.904135   2.547272   1.439808   2.285326
    36  C    7.119108   5.620825   4.263684   4.569220   5.864353
    37  C    8.043550   6.511462   5.277599   5.738846   7.030782
    38  H   10.134111   8.661589   7.268287   7.332129   8.535592
    39  H    9.201500   7.951576   6.436124   5.951390   6.901195
    40  H    7.464290   6.467918   5.000746   4.092951   4.773329
    41  H    5.612082   4.067384   3.435189   4.623280   5.866105
    42  H    4.627171   3.438174   3.795438   5.250041   6.169567
    43  H    3.873193   3.471977   4.601260   5.940813   6.435838
    44  H    5.805203   6.959521   8.422047   9.070412   8.639141
    45  H    6.534025   7.261916   8.724985   9.696695   9.619749
    46  H    2.475173   2.837167   2.896318   2.154423   1.027556
    47  H    6.490093   5.900174   4.685901   3.349830   3.429953
    48  H    9.218636   7.690509   6.431825   6.804149   8.076093
                   31         32         33         34         35
    31  Si   0.000000
    32  H    1.459635   0.000000
    33  H    1.515737   2.279736   0.000000
    34  C    1.872916   2.631526   3.300725   0.000000
    35  C    2.762807   3.499699   4.128652   1.368722   0.000000
    36  C    6.659255   7.124310   8.032966   5.058005   3.916094
    37  C    7.865573   8.193894   9.258442   6.307310   5.171981
    38  H    8.923761   9.351662  10.339187   7.091834   6.323460
    39  H    6.808324   7.127016   8.239895   4.955030   4.627001
    40  H    4.423559   4.745343   5.860255   2.610929   2.658064
    41  H    7.323644   7.958553   8.373740   6.289545   4.922621
    42  H    7.905758   8.579523   8.616155   7.396645   6.111568
    43  H    8.240073   8.898360   8.584377   8.244153   7.146384
    44  H    9.975277  10.251206   9.516892  11.020696  10.497442
    45  H   11.212000  11.943438  10.885595  11.835728  11.076688
    46  H    2.348095   3.151251   2.483737   3.376680   3.294895
    47  H    2.502773   2.963760   3.846275   1.068306   2.200764
    48  H    8.774793   9.047126  10.206762   7.129438   6.100431
                   36         37         38         39         40
    36  C    0.000000
    37  C    1.379981   0.000000
    38  H    3.134761   2.968023   0.000000
    39  H    3.387691   4.035712   2.801715   0.000000
    40  H    3.835548   4.924867   4.915923   2.426468   0.000000
    41  H    3.083750   3.360674   5.783036   6.393531   6.240133
    42  H    5.414334   5.713079   8.189139   8.625454   8.055200
    43  H    7.430622   7.855634  10.343261  10.455743   9.482694
    44  H   12.331570  12.921475  15.444675  14.803120  13.110496
    45  H   12.220614  12.795217  15.089232  14.967580  13.654717
    46  H    6.708794   7.830789   9.474341   7.919352   5.799400
    47  H    5.344541   6.557185   6.950067   4.527358   2.124165
    48  H    2.320879   1.183842   2.327392   3.992604   5.397540
                   41         42         43         44         45
    41  H    0.000000
    42  H    2.413866   0.000000
    43  H    4.615870   2.292230   0.000000
    44  H   10.091363   8.069864   5.915559   0.000000
    45  H    9.505480   7.205643   5.020693   4.118983   0.000000
    46  H    6.327593   6.242797   6.134555   7.747486   8.891095
    47  H    7.007120   8.311012   9.268237  12.049510  12.896716
    48  H    4.440380   6.788528   8.972334  14.081977  13.922875
                   46         47         48
    46  H    0.000000
    47  H    4.373205   0.000000
    48  H    8.915387   7.237933   0.000000
 Stoichiometry    C25H15N5SSi2
 Framework group  C1[X(C25H15N5SSi2)]
 Deg. of freedom   138
 Full point group                 C1      NOp   1
 Largest Abelian subgroup         C1      NOp   1
 Largest concise Abelian subgroup C1      NOp   1
                         Standard orientation:                         
 ---------------------------------------------------------------------
 Center     Atomic      Atomic             Coordinates (Angstroms)
 Number     Number       Type             X           Y           Z
 ---------------------------------------------------------------------
      1         14           0       -5.809842   -3.483726   -0.213637
      2          1           0       -5.571125   -4.013562   -1.574416
      3          1           0       -5.225518   -4.194328    1.022153
      4          6           0       -6.741871   -1.594283   -0.653712
      5          6           0       -5.876623   -0.617759   -0.362063
      6          6           0       -6.076179    0.816051   -0.153309
      7          6           0       -5.035892    1.560098    0.002712
      8          6           0       -3.628216    1.079624    0.070360
      9          6           0       -3.391255   -0.271311    0.304919
     10          6           0       -1.852009   -0.689038    0.153297
     11          6           0       -1.447398   -2.011903    0.089968
     12          6           0       -0.061152   -2.331761    0.027740
     13          6           0        1.025211   -1.405985   -0.000029
     14          6           0        2.343863   -1.957361    0.021322
     15          6           0        3.541545   -1.222045    0.054772
     16          6           0        4.903641   -1.676728    0.167388
     17          7           0        5.625491   -1.059733    1.119922
     18          6           0        6.929902   -1.043510    0.907992
     19          7           0        7.547533   -1.719577   -0.050467
     20          6           0        6.723449   -2.378922   -0.870228
     21          7           0        5.394210   -2.364007   -0.855649
     22          6           0        3.421024    0.160556   -0.059929
     23          7           0        4.485570    0.987798   -0.158930
     24         16           0        3.944048    2.507260   -0.190728
     25          7           0        2.359727    2.136772   -0.185557
     26          6           0        2.101094    0.812608   -0.096843
     27          6           0        0.762683   -0.008114   -0.025345
     28          6           0       -0.726069    0.287983    0.034898
     29          6           0       -1.156346    1.679094   -0.015678
     30          6           0       -0.358023    2.748878   -0.002117
     31         14           0       -1.068464    4.409186    0.032156
     32          1           0       -1.197397    4.963691    1.376193
     33          1           0        0.120893    5.204592   -0.468062
     34          6           0       -2.649854    3.431705   -0.194895
     35          6           0       -2.540132    2.073169   -0.069434
     36          6           0       -4.727211   -1.144023    0.380183
     37          6           0       -5.273840   -2.141007    1.162210
     38          1           0       -7.769424   -1.474731   -0.299740
     39          1           0       -7.090666    1.235867   -0.095899
     40          1           0       -5.130055    2.656888    0.060465
     41          1           0       -2.162004   -2.832059    0.097762
     42          1           0        0.184002   -3.396731    0.033324
     43          1           0        2.448695   -3.042548    0.039420
     44          1           0        7.525857   -0.417453    1.564264
     45          1           0        7.183892   -2.996796   -1.628865
     46          1           0        0.666532    2.827304    0.000692
     47          1           0       -3.532515    4.033524   -0.194121
     48          1           0       -6.409417   -2.431112    1.328901
 ---------------------------------------------------------------------
 Rotational constants (GHZ):      0.2141632      0.0585131      0.0467253
 Standard basis: 6-31++G(d,p) (6D, 7F)
 There are   729 symmetry adapted basis functions of A   symmetry.
 Integral buffers will be    131072 words long.
 Raffenetti 2 integral format.
 Two-electron integral symmetry is turned on.
   729 basis functions,  1248 primitive gaussians,   729 cartesian basis functions
   122 alpha electrons      122 beta electrons
       nuclear repulsion energy      3424.3582610428 Hartrees.
 NAtoms=   48 NActive=   48 NUniq=   48 SFac= 1.00D+00 NAtFMM=   60 NAOKFM=F Big=F
 One-electron integrals computed using PRISM.
 NBasis=   729 RedAO= T  NBF=   729
 NBsUse=   713 1.00D-06 NBFU=   713
 Harris functional with IExCor=  402 diagonalized for initial guess.
 ExpMin= 3.31D-02 ExpMax= 2.19D+04 ExpMxC= 3.30D+03 IAcc=3 IRadAn=         5 AccDes= 0.00D+00
 HarFok:  IExCor=  402 AccDes= 0.00D+00 IRadAn=         5 IDoV= 1
 ScaDFX=  1.000000  1.000000  1.000000  1.000000
 FoFCou: FMM=F IPFlag=           0 FMFlag=      100000 FMFlg1=           0
         NFxFlg=           0 DoJE=T BraDBF=F KetDBF=T FulRan=T
         Omega=  0.000000  0.000000  1.000000  0.000000  0.000000 ICntrl=     500 IOpCl=  0
         NMat0=    1 NMatS0=    1 NMatT0=    0 NMatD0=    1 NMtDS0=    0 NMtDT0=    0
         I1Cent=           4 NGrid=           0.
 Petite list used in FoFCou.
 Initial guess orbital symmetries:
       Occupied  (A) (A) (A) (A) (A) (A) (A) (A) (A) (A) (A) (A)
                 (A) (A) (A) (A) (A) (A) (A) (A) (A) (A) (A) (A)
                 (A) (A) (A) (A) (A) (A) (A) (A) (A) (A) (A) (A)
                 (A) (A) (A) (A) (A) (A) (A) (A) (A) (A) (A) (A)
                 (A) (A) (A) (A) (A) (A) (A) (A) (A) (A) (A) (A)
                 (A) (A) (A) (A) (A) (A) (A) (A) (A) (A) (A) (A)
                 (A) (A) (A) (A) (A) (A) (A) (A) (A) (A) (A) (A)
                 (A) (A) (A) (A) (A) (A) (A) (A) (A) (A) (A) (A)
                 (A) (A) (A) (A) (A) (A) (A) (A) (A) (A) (A) (A)
                 (A) (A) (A) (A) (A) (A) (A) (A) (A) (A) (A) (A)
                 (A) (A)
       Virtual   (A) (A) (A) (A) (A) (A) (A) (A) (A) (A) (A) (A)
                 (A) (A) (A) (A) (A) (A) (A) (A) (A) (A) (A) (A)
                 (A) (A) (A) (A) (A) (A) (A) (A) (A) (A) (A) (A)
                 (A) (A) (A) (A) (A) (A) (A) (A) (A) (A) (A) (A)
                 (A) (A) (A) (A) (A) (A) (A) (A) (A) (A) (A) (A)
                 (A) (A) (A) (A) (A) (A) (A) (A) (A) (A) (A) (A)
                 (A) (A) (A) (A) (A) (A) (A) (A) (A) (A) (A) (A)
                 (A) (A) (A) (A) (A) (A) (A) (A) (A) (A) (A) (A)
                 (A) (A) (A) (A) (A) (A) (A) (A) (A) (A) (A) (A)
                 (A) (A) (A) (A) (A) (A) (A) (A) (A) (A) (A) (A)
                 (A) (A) (A) (A) (A) (A) (A) (A) (A) (A) (A) (A)
                 (A) (A) (A) (A) (A) (A) (A) (A) (A) (A) (A) (A)
                 (A) (A) (A) (A) (A) (A) (A) (A) (A) (A) (A) (A)
                 (A) (A) (A) (A) (A) (A) (A) (A) (A) (A) (A) (A)
                 (A) (A) (A) (A) (A) (A) (A) (A) (A) (A) (A) (A)
                 (A) (A) (A) (A) (A) (A) (A) (A) (A) (A) (A) (A)
                 (A) (A) (A) (A) (A) (A) (A) (A) (A) (A) (A) (A)
                 (A) (A) (A) (A) (A) (A) (A) (A) (A) (A) (A) (A)
                 (A) (A) (A) (A) (A) (A) (A) (A) (A) (A) (A) (A)
                 (A) (A) (A) (A) (A) (A) (A) (A) (A) (A) (A) (A)
                 (A) (A) (A) (A) (A) (A) (A) (A) (A) (A) (A) (A)
                 (A) (A) (A) (A) (A) (A) (A) (A) (A) (A) (A) (A)
                 (A) (A) (A) (A) (A) (A) (A) (A) (A) (A) (A) (A)
                 (A) (A) (A) (A) (A) (A) (A) (A) (A) (A) (A) (A)
                 (A) (A) (A) (A) (A) (A) (A) (A) (A) (A) (A) (A)
                 (A) (A) (A) (A) (A) (A) (A) (A) (A) (A) (A) (A)
                 (A) (A) (A) (A) (A) (A) (A) (A) (A) (A) (A) (A)
                 (A) (A) (A) (A) (A) (A) (A) (A) (A) (A) (A) (A)
                 (A) (A) (A) (A) (A) (A) (A) (A) (A) (A) (A) (A)
                 (A) (A) (A) (A) (A) (A) (A) (A) (A) (A) (A) (A)
                 (A) (A) (A) (A) (A) (A) (A) (A) (A) (A) (A) (A)
                 (A) (A) (A) (A) (A) (A) (A) (A) (A) (A) (A) (A)
                 (A) (A) (A) (A) (A) (A) (A) (A) (A) (A) (A) (A)
                 (A) (A) (A) (A) (A) (A) (A) (A) (A) (A) (A) (A)
                 (A) (A) (A) (A) (A) (A) (A) (A) (A) (A) (A) (A)
                 (A) (A) (A) (A) (A) (A) (A) (A) (A) (A) (A) (A)
                 (A) (A) (A) (A) (A) (A) (A) (A) (A) (A) (A) (A)
                 (A) (A) (A) (A) (A) (A) (A) (A) (A) (A) (A) (A)
                 (A) (A) (A) (A) (A) (A) (A) (A) (A) (A) (A) (A)
                 (A) (A) (A) (A) (A) (A) (A) (A) (A) (A) (A) (A)
                 (A) (A) (A) (A) (A) (A) (A) (A) (A) (A) (A) (A)
                 (A) (A) (A) (A) (A) (A) (A) (A) (A) (A) (A) (A)
                 (A) (A) (A) (A) (A) (A) (A) (A) (A) (A) (A) (A)
                 (A) (A) (A) (A) (A) (A) (A) (A) (A) (A) (A) (A)
                 (A) (A) (A) (A) (A) (A) (A) (A) (A) (A) (A) (A)
                 (A) (A) (A) (A) (A) (A) (A) (A) (A) (A) (A) (A)
                 (A) (A) (A) (A) (A) (A) (A) (A) (A) (A) (A) (A)
                 (A) (A) (A) (A) (A) (A) (A) (A) (A) (A) (A) (A)
                 (A) (A) (A) (A) (A) (A) (A) (A) (A) (A) (A) (A)
                 (A) (A) (A)
 The electronic state of the initial guess is 1-A.
 Requested convergence on RMS density matrix=1.00D-08 within 128 cycles.
 Requested convergence on MAX density matrix=1.00D-06.
 Requested convergence on             energy=1.00D-06.
 No special actions if energy rises.
 EnCoef did     3 forward-backward iterations
 EnCoef did     2 forward-backward iterations
 EnCoef did     6 forward-backward iterations
 Restarting incremental Fock formation.
 SCF Done:  E(RB3LYP) =  -2212.17231195     A.U. after   25 cycles
             Convg  =    0.8037D-08             -V/T =  2.0069

 **********************************************************************

            Population analysis using the SCF density.

 **********************************************************************

 Orbital symmetries:
       Occupied  (A) (A) (A) (A) (A) (A) (A) (A) (A) (A) (A) (A)
                 (A) (A) (A) (A) (A) (A) (A) (A) (A) (A) (A) (A)
                 (A) (A) (A) (A) (A) (A) (A) (A) (A) (A) (A) (A)
                 (A) (A) (A) (A) (A) (A) (A) (A) (A) (A) (A) (A)
                 (A) (A) (A) (A) (A) (A) (A) (A) (A) (A) (A) (A)
                 (A) (A) (A) (A) (A) (A) (A) (A) (A) (A) (A) (A)
                 (A) (A) (A) (A) (A) (A) (A) (A) (A) (A) (A) (A)
                 (A) (A) (A) (A) (A) (A) (A) (A) (A) (A) (A) (A)
                 (A) (A) (A) (A) (A) (A) (A) (A) (A) (A) (A) (A)
                 (A) (A) (A) (A) (A) (A) (A) (A) (A) (A) (A) (A)
                 (A) (A)
       Virtual   (A) (A) (A) (A) (A) (A) (A) (A) (A) (A) (A) (A)
                 (A) (A) (A) (A) (A) (A) (A) (A) (A) (A) (A) (A)
                 (A) (A) (A) (A) (A) (A) (A) (A) (A) (A) (A) (A)
                 (A) (A) (A) (A) (A) (A) (A) (A) (A) (A) (A) (A)
                 (A) (A) (A) (A) (A) (A) (A) (A) (A) (A) (A) (A)
                 (A) (A) (A) (A) (A) (A) (A) (A) (A) (A) (A) (A)
                 (A) (A) (A) (A) (A) (A) (A) (A) (A) (A) (A) (A)
                 (A) (A) (A) (A) (A) (A) (A) (A) (A) (A) (A) (A)
                 (A) (A) (A) (A) (A) (A) (A) (A) (A) (A) (A) (A)
                 (A) (A) (A) (A) (A) (A) (A) (A) (A) (A) (A) (A)
                 (A) (A) (A) (A) (A) (A) (A) (A) (A) (A) (A) (A)
                 (A) (A) (A) (A) (A) (A) (A) (A) (A) (A) (A) (A)
                 (A) (A) (A) (A) (A) (A) (A) (A) (A) (A) (A) (A)
                 (A) (A) (A) (A) (A) (A) (A) (A) (A) (A) (A) (A)
                 (A) (A) (A) (A) (A) (A) (A) (A) (A) (A) (A) (A)
                 (A) (A) (A) (A) (A) (A) (A) (A) (A) (A) (A) (A)
                 (A) (A) (A) (A) (A) (A) (A) (A) (A) (A) (A) (A)
                 (A) (A) (A) (A) (A) (A) (A) (A) (A) (A) (A) (A)
                 (A) (A) (A) (A) (A) (A) (A) (A) (A) (A) (A) (A)
                 (A) (A) (A) (A) (A) (A) (A) (A) (A) (A) (A) (A)
                 (A) (A) (A) (A) (A) (A) (A) (A) (A) (A) (A) (A)
                 (A) (A) (A) (A) (A) (A) (A) (A) (A) (A) (A) (A)
                 (A) (A) (A) (A) (A) (A) (A) (A) (A) (A) (A) (A)
                 (A) (A) (A) (A) (A) (A) (A) (A) (A) (A) (A) (A)
                 (A) (A) (A) (A) (A) (A) (A) (A) (A) (A) (A) (A)
                 (A) (A) (A) (A) (A) (A) (A) (A) (A) (A) (A) (A)
                 (A) (A) (A) (A) (A) (A) (A) (A) (A) (A) (A) (A)
                 (A) (A) (A) (A) (A) (A) (A) (A) (A) (A) (A) (A)
                 (A) (A) (A) (A) (A) (A) (A) (A) (A) (A) (A) (A)
                 (A) (A) (A) (A) (A) (A) (A) (A) (A) (A) (A) (A)
                 (A) (A) (A) (A) (A) (A) (A) (A) (A) (A) (A) (A)
                 (A) (A) (A) (A) (A) (A) (A) (A) (A) (A) (A) (A)
                 (A) (A) (A) (A) (A) (A) (A) (A) (A) (A) (A) (A)
                 (A) (A) (A) (A) (A) (A) (A) (A) (A) (A) (A) (A)
                 (A) (A) (A) (A) (A) (A) (A) (A) (A) (A) (A) (A)
                 (A) (A) (A) (A) (A) (A) (A) (A) (A) (A) (A) (A)
                 (A) (A) (A) (A) (A) (A) (A) (A) (A) (A) (A) (A)
                 (A) (A) (A) (A) (A) (A) (A) (A) (A) (A) (A) (A)
                 (A) (A) (A) (A) (A) (A) (A) (A) (A) (A) (A) (A)
                 (A) (A) (A) (A) (A) (A) (A) (A) (A) (A) (A) (A)
                 (A) (A) (A) (A) (A) (A) (A) (A) (A) (A) (A) (A)
                 (A) (A) (A) (A) (A) (A) (A) (A) (A) (A) (A) (A)
                 (A) (A) (A) (A) (A) (A) (A) (A) (A) (A) (A) (A)
                 (A) (A) (A) (A) (A) (A) (A) (A) (A) (A) (A) (A)
                 (A) (A) (A) (A) (A) (A) (A) (A) (A) (A) (A) (A)
                 (A) (A) (A) (A) (A) (A) (A) (A) (A) (A) (A) (A)
                 (A) (A) (A) (A) (A) (A) (A) (A) (A) (A) (A) (A)
                 (A) (A) (A) (A) (A) (A) (A) (A) (A) (A) (A) (A)
                 (A) (A) (A) (A) (A) (A) (A) (A) (A) (A) (A) (A)
                 (A) (A) (A)
 The electronic state is 1-A.
 Alpha  occ. eigenvalues --  -88.98778 -66.18688 -66.12577 -14.37665 -14.37413
 Alpha  occ. eigenvalues --  -14.36452 -14.36073 -14.35801 -10.29138 -10.28206
 Alpha  occ. eigenvalues --  -10.28015 -10.27990 -10.26192 -10.25883 -10.25780
 Alpha  occ. eigenvalues --  -10.25759 -10.25020 -10.24757 -10.23426 -10.23328
 Alpha  occ. eigenvalues --  -10.23203 -10.23044 -10.22603 -10.22554 -10.22387
 Alpha  occ. eigenvalues --  -10.22260 -10.22012 -10.21941 -10.21313 -10.20339
 Alpha  occ. eigenvalues --  -10.20232 -10.18940 -10.14411  -8.04049  -6.00639
 Alpha  occ. eigenvalues --   -6.00043  -5.99774  -5.32876  -5.27688  -3.69046
 Alpha  occ. eigenvalues --   -3.68727  -3.68463  -3.63691  -3.63480  -3.63365
 Alpha  occ. eigenvalues --   -1.04701  -1.02973  -0.92998  -0.92115  -0.90527
 Alpha  occ. eigenvalues --   -0.89373  -0.88792  -0.86909  -0.84014  -0.82325
 Alpha  occ. eigenvalues --   -0.79830  -0.78285  -0.76960  -0.75564  -0.72453
 Alpha  occ. eigenvalues --   -0.71040  -0.70050  -0.69709  -0.68383  -0.65802
 Alpha  occ. eigenvalues --   -0.65191  -0.63342  -0.62314  -0.59686  -0.59438
 Alpha  occ. eigenvalues --   -0.57173  -0.56715  -0.56495  -0.54846  -0.53510
 Alpha  occ. eigenvalues --   -0.52991  -0.51947  -0.51157  -0.50149  -0.49794
 Alpha  occ. eigenvalues --   -0.48373  -0.47420  -0.46744  -0.46367  -0.46184
 Alpha  occ. eigenvalues --   -0.46082  -0.45863  -0.44458  -0.43860  -0.43689
 Alpha  occ. eigenvalues --   -0.42587  -0.41489  -0.40968  -0.40418  -0.39911
 Alpha  occ. eigenvalues --   -0.39339  -0.38875  -0.38693  -0.38229  -0.37178
 Alpha  occ. eigenvalues --   -0.36388  -0.35997  -0.35614  -0.34761  -0.34495
 Alpha  occ. eigenvalues --   -0.33791  -0.33201  -0.33064  -0.32960  -0.32117
 Alpha  occ. eigenvalues --   -0.30129  -0.29579  -0.29139  -0.28584  -0.28099
 Alpha  occ. eigenvalues --   -0.27625  -0.27013  -0.25796  -0.24764  -0.24544
 Alpha  occ. eigenvalues --   -0.20180  -0.19307
 Alpha virt. eigenvalues --   -0.11898  -0.10564  -0.09698  -0.08125  -0.07130
 Alpha virt. eigenvalues --   -0.05908  -0.05405  -0.04743  -0.03864  -0.02461
 Alpha virt. eigenvalues --   -0.01826  -0.01399  -0.00774  -0.00329  -0.00117
 Alpha virt. eigenvalues --    0.00309   0.00476   0.00769   0.01202   0.01719
 Alpha virt. eigenvalues --    0.01903   0.02254   0.02482   0.02879   0.02995
 Alpha virt. eigenvalues --    0.03216   0.03580   0.03614   0.04143   0.04345
 Alpha virt. eigenvalues --    0.04578   0.04878   0.05347   0.05547   0.05954
 Alpha virt. eigenvalues --    0.06137   0.06372   0.06648   0.06901   0.06924
 Alpha virt. eigenvalues --    0.07342   0.07538   0.07605   0.07717   0.08126
 Alpha virt. eigenvalues --    0.08474   0.08772   0.09019   0.09447   0.09549
 Alpha virt. eigenvalues --    0.09768   0.09854   0.10313   0.10424   0.10447
 Alpha virt. eigenvalues --    0.10815   0.10895   0.11140   0.11345   0.11537
 Alpha virt. eigenvalues --    0.11899   0.12054   0.12266   0.12399   0.12470
 Alpha virt. eigenvalues --    0.12680   0.12907   0.13108   0.13420   0.13496
 Alpha virt. eigenvalues --    0.13684   0.13904   0.13999   0.14263   0.14627
 Alpha virt. eigenvalues --    0.14877   0.15101   0.15221   0.15288   0.15587
 Alpha virt. eigenvalues --    0.15697   0.15822   0.16266   0.16512   0.16776
 Alpha virt. eigenvalues --    0.17022   0.17142   0.17405   0.17711   0.17995
 Alpha virt. eigenvalues --    0.18312   0.18567   0.18853   0.18874   0.19180
 Alpha virt. eigenvalues --    0.19237   0.19599   0.19971   0.19996   0.20384
 Alpha virt. eigenvalues --    0.20525   0.20594   0.20738   0.21158   0.21352
 Alpha virt. eigenvalues --    0.21744   0.21899   0.22169   0.22336   0.22648
 Alpha virt. eigenvalues --    0.22823   0.23341   0.23487   0.23571   0.23963
 Alpha virt. eigenvalues --    0.24091   0.24370   0.24527   0.24595   0.24901
 Alpha virt. eigenvalues --    0.25132   0.25176   0.25487   0.25648   0.26092
 Alpha virt. eigenvalues --    0.26441   0.26568   0.26926   0.27039   0.27187
 Alpha virt. eigenvalues --    0.27338   0.27500   0.27663   0.27795   0.28274
 Alpha virt. eigenvalues --    0.28578   0.28715   0.29115   0.29237   0.29511
 Alpha virt. eigenvalues --    0.29732   0.30010   0.30306   0.30397   0.30627
 Alpha virt. eigenvalues --    0.30790   0.31002   0.31312   0.31607   0.31721
 Alpha virt. eigenvalues --    0.32062   0.32248   0.32814   0.32984   0.33254
 Alpha virt. eigenvalues --    0.33373   0.33699   0.33860   0.33992   0.34466
 Alpha virt. eigenvalues --    0.34877   0.34974   0.35222   0.35600   0.35795
 Alpha virt. eigenvalues --    0.36321   0.36504   0.36631   0.37013   0.37619
 Alpha virt. eigenvalues --    0.37703   0.38189   0.38306   0.38536   0.39087
 Alpha virt. eigenvalues --    0.39406   0.39568   0.39857   0.40258   0.40639
 Alpha virt. eigenvalues --    0.41146   0.41612   0.41766   0.42450   0.42737
 Alpha virt. eigenvalues --    0.43289   0.43836   0.44042   0.44535   0.45599
 Alpha virt. eigenvalues --    0.45966   0.46401   0.47207   0.47792   0.48719
 Alpha virt. eigenvalues --    0.49055   0.49593   0.50823   0.51651   0.51847
 Alpha virt. eigenvalues --    0.52905   0.52978   0.54006   0.54993   0.55305
 Alpha virt. eigenvalues --    0.57487   0.57728   0.58283   0.58487   0.60096
 Alpha virt. eigenvalues --    0.62058   0.62561   0.64254   0.64661   0.65037
 Alpha virt. eigenvalues --    0.65554   0.66365   0.66917   0.67682   0.68049
 Alpha virt. eigenvalues --    0.68904   0.69219   0.69448   0.70255   0.70725
 Alpha virt. eigenvalues --    0.71009   0.71492   0.72045   0.72297   0.72959
 Alpha virt. eigenvalues --    0.73185   0.73800   0.74052   0.74570   0.74719
 Alpha virt. eigenvalues --    0.75535   0.75908   0.76280   0.76605   0.77265
 Alpha virt. eigenvalues --    0.77470   0.78027   0.78690   0.78742   0.79148
 Alpha virt. eigenvalues --    0.79602   0.79796   0.80132   0.80388   0.80602
 Alpha virt. eigenvalues --    0.80898   0.81600   0.82131   0.82524   0.82631
 Alpha virt. eigenvalues --    0.83132   0.83975   0.84302   0.84889   0.85297
 Alpha virt. eigenvalues --    0.85852   0.86279   0.86794   0.87058   0.87592
 Alpha virt. eigenvalues --    0.87815   0.88454   0.88860   0.89943   0.90465
 Alpha virt. eigenvalues --    0.91099   0.92427   0.93363   0.94002   0.94752
 Alpha virt. eigenvalues --    0.95055   0.95376   0.96195   0.96792   0.97536
 Alpha virt. eigenvalues --    0.97859   0.98220   0.98324   0.99033   0.99854
 Alpha virt. eigenvalues --    1.00367   1.00610   1.01474   1.01867   1.02428
 Alpha virt. eigenvalues --    1.02842   1.03859   1.04373   1.05327   1.05947
 Alpha virt. eigenvalues --    1.06542   1.06761   1.06963   1.07404   1.08764
 Alpha virt. eigenvalues --    1.10005   1.10572   1.11330   1.12078   1.12116
 Alpha virt. eigenvalues --    1.12658   1.13409   1.14332   1.14593   1.15767
 Alpha virt. eigenvalues --    1.15824   1.16328   1.16645   1.16846   1.17946
 Alpha virt. eigenvalues --    1.18451   1.19159   1.19280   1.20023   1.20680
 Alpha virt. eigenvalues --    1.21279   1.21377   1.22209   1.23142   1.23525
 Alpha virt. eigenvalues --    1.24309   1.24854   1.25305   1.25668   1.25950
 Alpha virt. eigenvalues --    1.26140   1.26876   1.27522   1.28229   1.28985
 Alpha virt. eigenvalues --    1.29962   1.30353   1.31463   1.32056   1.33003
 Alpha virt. eigenvalues --    1.33130   1.33272   1.33552   1.34490   1.34997
 Alpha virt. eigenvalues --    1.35686   1.36031   1.37097   1.37745   1.38708
 Alpha virt. eigenvalues --    1.39065   1.39800   1.40848   1.41349   1.41972
 Alpha virt. eigenvalues --    1.42671   1.43189   1.44527   1.45590   1.46304
 Alpha virt. eigenvalues --    1.47076   1.47808   1.48551   1.48976   1.50044
 Alpha virt. eigenvalues --    1.50550   1.52584   1.53202   1.54216   1.55157
 Alpha virt. eigenvalues --    1.56289   1.57420   1.59328   1.59680   1.60705
 Alpha virt. eigenvalues --    1.61858   1.63148   1.64986   1.66277   1.67249
 Alpha virt. eigenvalues --    1.67932   1.68589   1.69794   1.70577   1.72340
 Alpha virt. eigenvalues --    1.74217   1.75198   1.75541   1.76261   1.76469
 Alpha virt. eigenvalues --    1.78044   1.78722   1.79289   1.79843   1.80018
 Alpha virt. eigenvalues --    1.81660   1.81772   1.82546   1.82984   1.83521
 Alpha virt. eigenvalues --    1.84905   1.85417   1.86780   1.87477   1.87793
 Alpha virt. eigenvalues --    1.89083   1.89855   1.90523   1.90736   1.91609
 Alpha virt. eigenvalues --    1.92261   1.93517   1.93685   1.94770   1.95189
 Alpha virt. eigenvalues --    1.97380   1.98186   1.98389   2.01037   2.02115
 Alpha virt. eigenvalues --    2.02210   2.03357   2.04263   2.04683   2.05303
 Alpha virt. eigenvalues --    2.05705   2.07304   2.08309   2.09416   2.09856
 Alpha virt. eigenvalues --    2.09985   2.10793   2.11876   2.11990   2.12602
 Alpha virt. eigenvalues --    2.13042   2.14019   2.14231   2.14833   2.15896
 Alpha virt. eigenvalues --    2.16293   2.16909   2.17504   2.19132   2.20382
 Alpha virt. eigenvalues --    2.20859   2.21325   2.22362   2.22622   2.24557
 Alpha virt. eigenvalues --    2.25244   2.25759   2.25966   2.26566   2.27660
 Alpha virt. eigenvalues --    2.28395   2.29025   2.29465   2.30229   2.30899
 Alpha virt. eigenvalues --    2.32289   2.33504   2.34319   2.35792   2.36878
 Alpha virt. eigenvalues --    2.38029   2.38621   2.39801   2.39834   2.40635
 Alpha virt. eigenvalues --    2.41496   2.41854   2.42489   2.43662   2.43935
 Alpha virt. eigenvalues --    2.45004   2.45890   2.46869   2.47338   2.47488
 Alpha virt. eigenvalues --    2.48186   2.49283   2.50119   2.51579   2.51842
 Alpha virt. eigenvalues --    2.52863   2.53410   2.53951   2.55133   2.55453
 Alpha virt. eigenvalues --    2.56372   2.56725   2.57137   2.58992   2.59383
 Alpha virt. eigenvalues --    2.60256   2.60685   2.61620   2.61920   2.62880
 Alpha virt. eigenvalues --    2.63360   2.63665   2.63889   2.64467   2.64800
 Alpha virt. eigenvalues --    2.65534   2.67351   2.68035   2.69983   2.71407
 Alpha virt. eigenvalues --    2.71651   2.72274   2.73511   2.73765   2.74655
 Alpha virt. eigenvalues --    2.74730   2.76661   2.77622   2.78140   2.80027
 Alpha virt. eigenvalues --    2.82488   2.82787   2.83949   2.85265   2.85601
 Alpha virt. eigenvalues --    2.86144   2.88361   2.90670   2.93011   2.94408
 Alpha virt. eigenvalues --    2.97600   2.97988   3.00851   3.04539   3.05771
 Alpha virt. eigenvalues --    3.07151   3.07991   3.11894   3.13173   3.13987
 Alpha virt. eigenvalues --    3.14827   3.16301   3.16957   3.18017   3.21293
 Alpha virt. eigenvalues --    3.24815   3.27113   3.28172   3.30487   3.32569
 Alpha virt. eigenvalues --    3.34610   3.39227   3.41854   3.44464   3.54082
 Alpha virt. eigenvalues --    3.54440   3.62999   3.65799   3.69049   3.74616
 Alpha virt. eigenvalues --    3.97948   4.16230   4.20407   4.21040   4.24399
 Alpha virt. eigenvalues --    4.27517   4.31651   4.32013   4.32518   4.34098
 Alpha virt. eigenvalues --    4.36013   4.37411   4.38446   4.39676   4.40030
 Alpha virt. eigenvalues --    4.40933   4.44819   4.46047   4.46566   4.48657
 Alpha virt. eigenvalues --    4.50526   4.51873   4.53815   4.57744   4.58956
 Alpha virt. eigenvalues --    4.60049   4.66010   4.70541   4.73209   4.82447
 Alpha virt. eigenvalues --    4.91311
          Condensed to atoms (all electrons):
              1          2          3          4          5          6
     1  Si  13.352032   0.294980   0.451995   0.379008   0.238157  -0.250048
     2  H    0.294980   0.713611  -0.027518  -0.040194  -0.093798   0.001669
     3  H    0.451995  -0.027518   0.717937  -0.020743   0.141685   0.012336
     4  C    0.379008  -0.040194  -0.020743  13.095099  -8.135311   0.349667
     5  C    0.238157  -0.093798   0.141685  -8.135311  23.639989  -2.868611
     6  C   -0.250048   0.001669   0.012336   0.349667  -2.868611  14.910745
     7  C    0.044822  -0.000399  -0.003086  -0.520085   0.756793  -2.871549
     8  C   -0.176327   0.012311  -0.010566  -0.711994  -2.413781  -0.151693
     9  C   -0.083800   0.008878  -0.066674   0.330101  -2.960261   2.777915
    10  C   -0.140981   0.010402  -0.018645  -0.002780  -0.130441  -0.030937
    11  C    0.066126  -0.004332   0.015821  -0.100422   0.589542   0.076031
    12  C   -0.029396  -0.002204   0.005224  -0.051645   0.176432   0.095465
    13  C   -0.020674   0.001220   0.004290   0.016381   0.077605  -0.027753
    14  C   -0.004102  -0.000091   0.000482  -0.001777   0.004395  -0.006644
    15  C    0.000944   0.000001  -0.000205   0.001225  -0.003585  -0.006137
    16  C    0.000575  -0.000017  -0.000092   0.000079  -0.000598  -0.000546
    17  N    0.000001  -0.000000   0.000000   0.000000   0.000001  -0.000001
    18  C    0.000000  -0.000000   0.000000   0.000000   0.000000  -0.000000
    19  N    0.000000  -0.000000  -0.000000  -0.000000  -0.000000  -0.000000
    20  C    0.000001   0.000000  -0.000000  -0.000000  -0.000001  -0.000001
    21  N   -0.000001   0.000000   0.000000   0.000000  -0.000004   0.000000
    22  C    0.000114  -0.000001   0.000015   0.000008   0.002379  -0.001737
    23  N   -0.000000  -0.000000  -0.000000   0.000001   0.000010   0.000079
    24  S   -0.000007   0.000001   0.000001  -0.000005  -0.000155   0.000122
[...]
 .00000320,0.00000386,0.00000409,-0.00000468,0.00001182,0.00000368,0.00
 000157,-0.00000118,0.00000339,0.00001266,-0.00000129,-0.00001464,-0.00
 001515,-0.00000878,-0.00000231,-0.00000452,-0.00001660,-0.00000497,-0.
 00003001,0.00001601,-0.00004040,0.00007552,-0.00009338,-0.00008982,-0.
 00008553,-0.00011422,0.00005698,0.00010018,0.00613630,-0.00404715,0.00
 000923,-0.00223603,0.00287268,0.00286101,0.00322510,-0.00613505,-0.003
 97486,-0.01620440,-0.01448519,-0.09204754,-0.20930485,-0.10431155,-0.0
 0455197,0.00219006,0.00009867,0.00000516,0.00009567,0.00010498,0.00001
 232,-0.00009053,0.00002794,-0.00000716,0.00000155,-0.00001020,-0.00005
 408,0.00000983,-0.00001179,-0.00001287,-0.00002137,-0.00000359,0.00001
 109,0.00000989,-0.00000381,-0.00001619,0.00001720,0.00002762,0.0000041
 6,0.00000468,0.00000499,-0.00000611,-0.00000254,-0.00000921,0.00001625
 ,0.00001256,0.00001546,-0.00000362,-0.00000215,-0.00000516,-0.00000363
 ,-0.00000382,-0.00000286,-0.00000852,-0.00000621,-0.00000343,0.0000060
 7,-0.00000273,-0.00000279,-0.00001470,-0.00001984,-0.00000665,-0.00000
 171,0.00000615,0.00001153,-0.00000172,0.00000200,-0.00000002,-0.000001
 22,-0.00000037,0.00000083,-0.00000024,-0.00000116,-0.00000071,-0.00000
 152,0.00000175,0.00000130,0.00000243,-0.00000181,0.00000043,0.00002603
 ,-0.00001477,0.00005759,-0.00048910,-0.00073722,-0.00019338,0.09819654
 ,0.21714277,0.00000562,-0.00000369,-0.00000939,-0.00000071,0.00000094,
 0.00000198,-0.00000057,0.00000204,0.00000303,-0.00000150,0.00000267,0.
 00000169,0.00000200,-0.00000387,-0.00000549,-0.00000442,0.00000022,0.0
 0000125,-0.00000242,0.00000275,0.00000204,-0.00000194,0.00000938,0.000
 00432,-0.00000663,-0.00000102,0.00000241,0.00001505,-0.00001046,-0.000
 01484,-0.00001037,-0.00000683,-0.00000623,0.00000168,-0.00001818,-0.00
 001128,-0.00005293,-0.00005802,0.00005121,-0.00003246,0.00000737,0.000
 01987,-0.00009515,0.00024604,0.00004064,0.00262061,-0.00409998,0.00823
 986,-0.00136359,0.00305419,-0.00371626,0.00382055,-0.00619582,0.005868
 24,-0.00378487,-0.01768003,-0.00847582,-0.06075874,-0.10431225,-0.1184
 0155,0.00152906,0.00314098,0.00486326,0.00003197,0.00004119,-0.0001543
 6,0.00000801,0.00005149,-0.00001804,0.00002383,0.00000200,0.00001532,0
 .00000414,-0.00002467,0.00001288,0.00000082,0.00003222,-0.00000365,0.0
 0002205,0.00001469,0.00002513,-0.00002819,0.00001840,0.00000596,0.0000
 0162,0.00000562,0.00000314,-0.00000265,-0.00000331,-0.00000796,0.00000
 934,0.00000847,0.00001228,-0.00000211,-0.00000141,-0.00000405,-0.00000
 201,-0.00000276,-0.00000231,-0.00000489,-0.00000442,-0.00000398,0.0000
 0289,-0.00000080,-0.00000115,-0.00000666,-0.00001383,-0.00000684,-0.00
 000067,0.00000394,0.00000832,-0.00000155,0.00000110,-0.00000012,-0.000
 00069,-0.00000042,0.00000069,-0.00000012,-0.00000094,-0.00000013,-0.00
 000159,0.00000073,0.00000247,0.00000336,-0.00000392,0.00000540,-0.0000
 1938,-0.00003154,-0.00006500,-0.00045460,-0.00026816,-0.00060863,0.058
 53911,0.12609927,0.11232348,-0.00005593,-0.00000348,-0.00001910,0.0000
 0977,-0.00000196,0.00000857,0.00001632,0.00001088,0.00001882,0.0000258
 2,0.00003349,0.00005793,0.00004070,0.00000121,-0.00002227,0.00002629,0
 .00000278,0.00000380,-0.00006723,0.00016246,0.00017683,-0.00029425,-0.
 00045373,-0.00007885,0.00000969,-0.00002854,-0.00005007,-0.00023165,0.
 00022453,0.00014675,-0.00001432,0.00006539,0.00007733,-0.00008773,-0.0
 0001782,-0.00003020,0.00010845,-0.00004713,0.00011168,-0.00002058,-0.0
 0000185,0.00002162,0.00001049,-0.00002134,-0.00000692,-0.00002489,-0.0
 0000522,0.00000431,0.00000778,-0.00001094,-0.00000138,-0.00000255,-0.0
 0000010,0.00000176,0.00000343,-0.00000219,-0.00000493,-0.00000251,0.00
 000173,0.00000211,0.00000399,0.00000683,-0.00000158,0.00025617,-0.0000
 7109,-0.00014241,-0.00033823,0.00008976,0.00025011,0.00012141,-0.00016
 823,-0.00035708,-0.00178690,0.00122403,-0.00279222,-0.00117149,-0.0003
 2129,-0.00209203,0.00012397,0.00021309,-0.00021529,-0.00033483,0.00003
 621,-0.00120253,-0.00458928,-0.00190831,-0.00079993,-0.32837147,-0.005
 35374,0.09801891,-0.00367876,0.00250605,0.00438499,-0.00022553,-0.0001
 4862,-0.00046924,-0.00031113,-0.00051390,-0.00027025,-0.00131114,0.000
 10803,-0.00015005,0.00063696,-0.00027498,0.00181488,-0.00006679,0.0000
 7216,0.00004054,-0.00000812,0.00000730,0.00001099,0.00000804,0.0000173
 0,-0.00000570,-0.00001545,0.00001602,0.00000438,0.00004535,0.00002622,
 -0.00000975,0.00000153,0.00000740,0.00000216,0.00000525,0.00000563,0.0
 0000252,0.00000341,0.00000744,-0.00001388,0.00000110,-0.00000026,0.000
 00088,0.00000018,-0.00000020,0.00000127,0.34151320,-0.00001793,0.00000
 710,-0.00000879,0.00000356,-0.00000136,0.00000229,0.00000686,0.0000005
 9,0.00000393,-0.00000325,-0.00000818,0.00001809,-0.00004444,-0.0000016
 9,0.00001632,0.00004702,0.00006786,-0.00003722,0.00007822,-0.00013352,
 -0.00003815,0.00045219,0.00029088,0.00000938,-0.00005981,0.00003906,0.
 00015900,0.00007066,-0.00060162,-0.00048759,0.00026219,0.00027457,-0.0
 0029087,-0.00019916,0.00009910,0.00007803,0.00000089,-0.00038178,-0.00
 022457,-0.00012681,0.00004264,-0.00003252,0.00006351,-0.00004085,0.000
 04192,-0.00002588,-0.00001162,0.00000939,0.00000120,-0.00002081,0.0000
 0324,0.00001297,0.00001082,0.00000372,-0.00000666,-0.00001376,-0.00000
 878,-0.00000249,0.00000496,-0.00000491,-0.00000714,-0.00001128,-0.0000
 0788,0.00024524,0.00002116,0.00003266,-0.00009327,0.00019229,-0.000067
 04,0.00050543,-0.00061005,0.00014405,-0.00008283,-0.00002078,0.0001491
 2,-0.00070821,0.00169699,0.00008327,0.00037779,0.00014351,0.00049561,0
 .00222609,-0.00236296,0.00473447,0.01586179,0.00258531,-0.00703496,-0.
 01377016,-0.03670806,-0.00632628,-0.00633929,0.00250378,0.00282368,-0.
 00063122,-0.00046683,-0.00043064,0.00053935,-0.00033258,0.00002832,-0.
 00215706,-0.00165824,0.00058297,-0.00077732,0.00391085,-0.00586665,0.0
 0005004,-0.00004919,-0.00004618,0.00000178,0.00000302,0.00000057,0.000
 00013,0.00000182,-0.00000234,0.00000884,-0.00001455,0.00000649,0.00001
 016,0.00000133,0.00001514,0.00000298,-0.00002029,0.00002947,-0.0000064
 9,0.00000083,0.00002438,0.00002486,-0.00000557,-0.00000041,0.00000169,
 0.00000192,0.,-0.00000170,-0.00000149,0.00000008,0.00456157,0.03024549
 ,0.00002317,-0.00001036,-0.00000466,-0.00000428,0.00000248,-0.00000082
 ,-0.00000436,0.00000083,-0.00000255,-0.00001066,0.00000321,-0.00000493
 ,0.00001731,0.00003026,0.00001445,0.00016053,0.00007859,-0.00003445,-0
 .00009155,-0.00040568,-0.00025459,0.00147533,0.00057676,0.00025084,0.0
 0004213,0.00019100,-0.00004097,0.00021721,0.00035734,0.00033863,-0.000
 14885,0.00010467,0.00028383,-0.00010239,-0.00002132,-0.00004462,-0.000
 23575,-0.00009465,0.00018866,0.00013246,-0.00000992,0.00000475,0.00003
 188,0.00004073,-0.00002631,-0.00020034,0.00000290,0.00003821,0.0001217
 9,-0.00000516,-0.00007124,-0.00007521,0.00000794,0.00002363,0.00006269
 ,0.00000508,-0.00000284,-0.00005797,-0.00001273,0.00000476,0.00012351,
 0.00005003,0.00002242,-0.00035334,-0.00021274,-0.00003425,0.00051712,0
 .00001176,-0.00016327,-0.00034641,0.00041530,0.00009866,-0.00085011,0.
 00074180,-0.00061582,-0.00107086,-0.00116870,-0.00114738,-0.00033316,-
 0.00065202,-0.00077957,-0.00149614,0.00348390,-0.00171015,0.02682619,0
 .00135589,-0.00228645,0.08212619,-0.00880911,-0.06517751,-0.00669364,0
 .00019286,0.00323100,0.00036495,0.00022088,-0.00041926,-0.00017156,-0.
 00039462,-0.00024945,-0.00288155,-0.00007121,-0.00058093,-0.00010396,-
 0.00710423,-0.00057126,-0.00009867,0.00000642,0.00002898,-0.00000700,-
 0.00001435,0.00000144,-0.00000097,-0.00000133,-0.00000242,0.00001850,-
 0.00003295,-0.00003929,0.00004253,0.00003557,0.00001392,0.00002139,0.0
 0003932,-0.00001130,-0.00000442,0.00002902,0.00000349,-0.00001042,0.00
 001929,-0.00001175,0.00000831,-0.00000365,-0.00000186,0.00000585,0.000
 00436,0.00000114,-0.09701857,0.01140225,0.06851726,-0.00004946,-0.0000
 0457,-0.00001317,0.00000870,-0.00000108,0.00000486,0.00001066,0.000008
 03,0.00001230,0.00005335,0.00004746,0.00001545,-0.00001446,0.00011908,
 0.00004782,0.00051191,0.00021353,0.00001857,-0.00007750,0.00035610,0.0
 0119120,-0.00078321,0.00140475,0.00032097,-0.00002943,-0.00021618,-0.0
 0009478,-0.00021785,0.00003289,-0.00000030,0.00009324,0.00002805,-0.00
 000747,-0.00007643,-0.00004974,-0.00001061,-0.00000522,0.00004101,-0.0
 0003470,-0.00000735,-0.00004409,-0.00001197,-0.00000863,0.00000403,0.0
 0000109,0.00007040,0.00000569,0.00000240,-0.00004462,0.00000518,0.0000
 1056,0.00003034,0.00000106,-0.00000291,-0.00002384,-0.00000635,-0.0000
 0230,0.00002525,0.00000989,0.00000352,-0.00004372,-0.00001956,-0.00001
 189,0.00000047,0.00005128,0.00000314,-0.00005007,-0.00002098,-0.000006
 88,0.00001933,0.00000714,0.00001255,-0.00001433,-0.00000633,-0.0000158
 7,0.00008400,-0.00002197,0.00002081,-0.00008731,-0.00028656,-0.0001894
 6,-0.00050532,0.00034296,0.00062974,0.00038180,-0.00248710,-0.00134959
 ,-0.00064743,0.00028634,0.00002155,-0.00280026,-0.00251940,-0.00277929
 ,-0.00015352,0.00018460,0.00052352,-0.00021678,0.00033409,0.00029326,-
 0.34440673,-0.03079096,0.02018241,-0.01226465,0.00055907,0.00400345,-0
 .00003594,0.00003319,0.00008686,0.00001915,0.00002875,0.00000186,0.000
 00883,0.00001121,0.00000017,0.00000276,-0.00003437,0.00001766,0.000671
 43,0.00111571,0.00092215,-0.00002066,-0.00002984,-0.00000555,-0.000000
 32,-0.00000479,0.00000008,-0.00000734,-0.00000319,0.00000528,-0.000001
 44,0.00000130,0.00000147,-0.00000222,-0.00000250,-0.00000134,0.0000317
 4,-0.00035464,0.00002724,0.36057991,-0.00002419,-0.00001326,-0.0000681
 4,0.00001157,-0.00001046,0.00002333,-0.00000149,0.00001257,0.00003197,
 -0.00002889,0.00008867,-0.00006545,0.00016100,0.00003519,0.00001171,0.
 00032131,-0.00032488,0.00020294,0.00012898,-0.00005889,-0.00032957,0.0
 0054323,-0.00152632,0.00498247,-0.00044522,-0.00040170,-0.00006914,0.0
 0028055,0.00012705,0.00019831,-0.00014283,-0.00011722,-0.00005979,0.00
 015106,-0.00001669,-0.00003640,-0.00009582,0.00011950,0.00002428,-0.00
 003108,-0.00003468,0.00003250,0.00002108,-0.00000451,-0.00000917,-0.00
 003951,-0.00000345,-0.00000270,0.00002260,-0.00000635,-0.00000390,-0.0
 0001696,-0.00000175,0.00000064,0.00001190,0.00000209,0.00000157,-0.000
 01047,-0.00000038,-0.00000178,0.00001645,0.00000862,0.00000571,0.00000
 443,-0.00000436,0.00000604,0.00000094,0.00000919,0.00001712,-0.0000223
 4,-0.00001465,-0.00002197,-0.00001056,0.00007893,-0.00003772,-0.000017
 78,-0.00002997,-0.00002135,-0.00009096,-0.00031490,-0.00017610,-0.0010
 8182,0.00056020,0.00025807,-0.00185208,0.00181821,-0.00660722,0.002307
 74,-0.00148306,-0.00055163,0.00714340,0.00189201,0.00062936,0.00008207
 ,-0.00020544,-0.00044178,-0.00022669,-0.00054492,0.00004740,-0.0179075
 4,-0.03663094,-0.00865610,-0.02076269,0.00163648,0.00132347,-0.0002153
 8,0.00011828,-0.00012640,0.00001446,0.00005701,0.00005129,0.00003042,0
 .00004502,-0.00000284,-0.00003087,0.00001789,-0.00001377,0.00025000,0.
 00031533,-0.00157831,-0.00001582,-0.00001712,0.00000282,0.00000449,-0.
 00000304,0.00000146,-0.00001367,0.00000208,-0.00000529,0.00000035,-0.0
 0000024,-0.00000085,0.00000017,0.00000054,0.00000012,-0.00006638,0.001
 33506,-0.00037613,0.03165462,0.03347403,0.00008462,0.00002347,-0.00004
 513,-0.00001516,0.00000472,0.00000310,-0.00002131,-0.00000243,0.000011
 48,0.00005125,-0.00006284,-0.00000095,-0.00009638,0.00005374,-0.000008
 31,0.00010529,0.00033906,-0.00013376,-0.00096932,-0.00151770,-0.001151
 05,0.00110084,0.00253580,-0.00349732,0.00041110,0.00053639,0.00041494,
 -0.00025271,0.00013549,0.00000427,0.00020379,0.00008489,0.00002697,-0.
 00011980,0.00003146,0.00003626,-0.00005589,0.00000025,-0.00004551,0.00
 000078,-0.00001371,-0.00003154,0.00000847,-0.00000203,-0.00000234,-0.0
 0002887,-0.00000415,0.00000391,0.00001756,-0.00000078,-0.00000571,-0.0
 0001321,-0.00000136,0.00000242,0.00001069,0.00000312,0.,-0.00001141,-0
 .00000367,0.00000020,0.00001827,0.00001023,0.00000262,-0.00003002,0.00
 000033,-0.00000842,0.00000212,-0.00000444,-0.00000408,-0.00001391,0.00
 001590,0.00000547,-0.00000166,-0.00001122,0.00001705,0.00002026,-0.000
 03569,0.00003482,-0.00004164,-0.00018644,-0.00004699,-0.00065930,0.000
 09878,0.00052387,0.00065583,-0.00594423,0.00176971,0.00275773,0.000563
 39,-0.00205915,0.00849179,0.00145930,0.00191420,-0.00065127,0.00017428
 ,-0.00030121,0.00051161,-0.00047138,-0.00064786,0.03018437,-0.00716387
 ,-0.03923580,-0.01997174,-0.00069466,0.00621596,0.00034860,0.00003205,
 0.00005115,0.00003273,0.00002429,0.00008854,-0.00003588,-0.00003378,0.
 00001774,0.00002140,-0.00003605,0.00000361,0.00121663,-0.00138216,-0.0
 0154535,-0.00000704,-0.00000326,-0.00000287,0.00000142,0.00000072,0.00
 000038,-0.00000553,-0.00000089,0.00000631,0.00000033,-0.00000071,-0.00
 000043,0.00000075,0.00000069,0.00000072,0.00059023,0.00001922,0.001221
 82,-0.02383976,0.01141429,0.03639274,-0.00206329,0.00622737,-0.0028300
 7,0.00153816,0.00049009,-0.00165659,0.00016173,-0.00044997,0.00080563,
 -0.00182772,-0.02241761,0.00827592,0.00008910,0.00019947,0.00272645,-0
 .00096335,-0.00234511,-0.00275562,-0.00139612,0.00108998,0.00110120,0.
 00138995,0.00041554,-0.00002304,-0.00001762,-0.00001252,0.00041963,0.0
 0111219,0.00004663,-0.00030871,-0.00029744,-0.00001046,-0.00032058,-0.
 00004229,-0.00008759,0.00011497,-0.00010913,-0.00007931,0.00000062,0.0
 0006567,-0.00001372,-0.00005399,-0.00005307,0.00000287,0.00000446,0.00
 005341,0.00000800,0.00001231,-0.00001810,0.00000404,0.00000218,0.00001
 091,0.00000772,0.00000034,-0.00000704,-0.00000880,-0.00000495,0.000003
 54,0.00000580,0.00000494,-0.00001408,-0.00002024,-0.00000978,0.0000068
 4,-0.00000857,0.00000182,0.00000050,-0.00000841,0.00000038,0.00002130,
 -0.00000618,-0.00000172,-0.00000832,-0.00001227,-0.00000052,-0.0000457
 9,0.00003943,-0.00000470,0.00021370,-0.00002449,-0.00001420,-0.0002208
 8,0.00006720,0.00010325,0.00002400,-0.00004613,0.00003241,-0.00000033,
 0.00001171,-0.00000641,-0.00000865,0.00000729,-0.00000332,-0.00000160,
 -0.00000046,-0.00000264,0.00000070,0.00000955,0.00000682,-0.00006084,-
 0.00001142,-0.00000478,0.00005956,0.00005684,0.00011567,-0.00339374,-0
 .00061937,-0.00391745,-0.06483033,-0.07729016,0.04583684,0.00165703,0.
 00104712,-0.00056039,-0.00010819,-0.00001469,-0.00002870,0.00010219,-0
 .00019799,0.00009198,-0.00134034,0.00124418,0.00061626,-0.00004452,0.0
 0000738,-0.00000293,-0.00001096,0.00000137,0.00000043,-0.00000019,-0.0
 0000040,0.00000022,-0.00000188,-0.00000020,-0.00000024,-0.00000030,-0.
 00000125,0.00000586,-0.00000724,-0.00001177,-0.00000664,0.07038286,0.0
 0039379,-0.00088230,-0.00139134,0.00003469,0.00008013,0.00006358,-0.00
 034272,0.00017816,0.00009943,0.00110525,0.00481140,-0.00237445,-0.0007
 3784,-0.00416209,-0.00248891,-0.00096575,0.00128305,0.00024292,0.00060
 086,-0.00040303,-0.00018305,-0.00061216,-0.00010938,-0.00076824,-0.001
 09881,0.00042218,0.00030009,-0.00050633,-0.00025105,0.00042215,0.00013
 499,-0.00051110,-0.00039323,-0.00002039,0.00042080,0.00017936,0.000057
 65,-0.00004635,0.00000446,-0.00008968,0.00006965,0.00001902,0.00005079
 ,-0.00002442,-0.00001693,-0.00005753,-0.00000784,0.00000533,0.00001736
 ,-0.00000463,-0.00000460,-0.00001281,-0.00000542,0.00000113,0.00000837
 ,0.00000799,0.00000487,-0.00000611,-0.00000515,-0.00000493,0.00001759,
 0.00002151,0.00000694,-0.00000387,0.00002514,0.00000238,0.00000985,-0.
 00000234,-0.00000410,-0.00004287,0.00003851,0.00000741,0.00001755,-0.0
 0001036,0.00000355,0.00006313,-0.00002263,-0.00000297,-0.00009016,0.00
 003292,0.00002167,0.00028498,0.00008431,-0.00000173,-0.00011365,-0.000
 00659,0.00003841,0.00008286,0.00002489,-0.00001335,-0.00014458,0.00003
 003,0.00011317,0.00002541,-0.00000657,-0.00003003,0.00003389,-0.000020
 31,-0.00003151,0.00012934,-0.00011358,-0.00015124,-0.00024730,0.000006
 79,0.00001768,-0.00546833,-0.01057731,0.01128387,-0.08561995,-0.260189
 09,0.09675581,-0.00045454,0.00022634,0.00039726,-0.00018772,-0.0002664
 2,-0.00010805,-0.00000034,-0.00002274,0.00002521,0.00096218,-0.0001632
 1,-0.00011860,0.00003664,-0.00000306,-0.00000966,0.00001392,-0.0000024
 5,0.00000148,0.00000005,-0.00000010,-0.00000039,0.00000177,0.00000042,
 0.00000047,0.00001378,-0.00000389,-0.00000959,0.00001719,0.00001524,0.
 00001558,0.09270952,0.27004394,0.00514335,0.01387752,-0.00598887,0.001
 50398,0.00002550,-0.00110492,-0.00058023,-0.00105129,0.00103343,-0.000
 66655,-0.00050217,-0.00339256,-0.00028043,-0.00244302,-0.00248499,-0.0
 0119280,-0.00023534,-0.00004140,0.00021601,0.00009638,0.00017510,-0.00
 013828,0.00007802,-0.00069996,-0.00051114,0.00032286,0.00049600,0.0002
 0700,-0.00054284,0.00004858,-0.00007730,0.00041492,0.00000402,0.000128
 44,-0.00011822,-0.00018257,-0.00002468,0.00004163,0.00004549,0.0000373
 8,-0.00003593,0.00001399,0.00000600,0.00001597,0.00000431,-0.00002089,
 0.00000378,-0.00000192,0.00001605,-0.00000530,-0.00000803,-0.00000668,
 0.00000390,0.00000593,0.00000829,-0.00000578,-0.00000534,-0.00001162,0
 .00000212,0.00000315,0.00001351,-0.00000310,-0.00000131,0.00000794,-0.
 00001244,-0.00000061,0.00000786,0.00000756,0.00000269,0.00000893,-0.00
 002446,-0.00000489,-0.00000813,0.00000083,0.00000879,-0.00001286,0.000
 01014,-0.00000341,0.00001189,-0.00003333,-0.00003716,0.00002340,-0.000
 01328,0.00000645,0.00000970,-0.00001385,-0.00000834,-0.00002827,-0.000
 01386,-0.00002533,0.00003729,0.00000425,0.00001549,-0.00000864,-0.0000
 0123,-0.00000615,-0.00000625,-0.00000773,-0.00000741,0.00000360,-0.000
 03178,-0.00004167,-0.00009842,-0.00008136,-0.00008077,-0.00737315,-0.0
 1347466,0.00879007,0.05111544,0.10627558,-0.08219784,0.00012534,0.0000
 6348,0.00111261,-0.00018485,-0.00022154,-0.00005061,-0.00001305,-0.000
 03373,-0.00000489,0.00041373,-0.00042409,0.00044278,-0.00002824,0.0000
 1523,0.00000729,-0.00000733,0.00000134,0.00000299,0.00000121,-0.000000
 77,-0.00000095,-0.00000066,0.00000109,0.00000034,0.00000085,-0.0000012
 7,0.00000202,-0.00000411,-0.00000338,0.00000353,-0.04776263,-0.1019263
 3,0.08415684\\-0.00000079,-0.00002092,-0.00001447,-0.00000524,-0.00000
 385,0.00000126,0.00000324,0.00000315,-0.00000204,-0.00000083,-0.000025
 95,-0.00004187,0.00008319,0.00005655,0.00003486,-0.00001945,0.00003036
 ,0.00001235,-0.00000557,-0.00002955,-0.00001032,0.00002374,-0.00002248
 ,-0.00000135,-0.00000280,0.00000895,-0.00004290,-0.00000563,-0.0000142
 1,-0.00000337,0.00000004,0.00000659,0.00000316,-0.00000284,0.00002028,
 0.00001805,0.00000193,-0.00001835,0.00000038,-0.00001010,-0.00001478,-
 0.00000429,-0.00000009,0.00000774,-0.00001524,-0.00000233,-0.00000823,
 0.00003497,0.00000541,-0.00000248,-0.00001062,-0.00000553,0.00000838,-
 0.00001446,0.00000837,-0.00001126,0.00001292,-0.00000907,0.00001874,-0
 .00002913,-0.00000071,-0.00000952,-0.00000105,0.00000112,0.00000949,-0
 .00000037,-0.00000292,-0.00001033,0.00000317,-0.00000410,-0.00000424,-
 0.00000729,-0.00000988,-0.00001061,0.00000058,0.00001732,0.00001955,0.
 00001568,0.00001718,0.00001303,-0.00003624,-0.00003560,-0.00003788,0.0
 0001803,0.00005325,0.00001483,-0.00001440,0.00000961,0.00002593,0.0000
 0930,-0.00003335,-0.00000935,-0.00001240,-0.00000054,0.00000227,0.0000
 0491,0.00000728,0.00000268,-0.00000488,0.00002567,-0.00000192,-0.00001
 669,-0.00003658,0.00003149,0.00003983,-0.00003817,0.00000781,0.0000601
 9,-0.00001941,-0.00000328,-0.00000634,-0.00000301,-0.00001192,0.000001
 94,0.00000171,0.00001084,0.00000580,0.00000536,0.00000358,-0.00000584,
 0.00001471,0.00000216,-0.00000178,-0.00000321,-0.00000201,0.00000156,-
 0.00000049,0.00000451,-0.00000247,0.00000188,-0.00000567,0.00000301,0.
 00000428,-0.00001039,0.00000994,-0.00001138,-0.00001237,0.00000275,-0.
 00001168,0.00000285,0.00000561,-0.00000400,-0.00001021,-0.00000043\\\@


 IT CANNOT BE MY BEAUTY, FOR I HAVE NONE; AND IT CANNOT BE MY WIT,
 FOR HE HAS NOT ENOUGH TO KNOW THAT I HAVE ANY.
 -- CATHARINE SEDLEY, PUZZLED ABOUT WHY SHE WAS MISTRESS TO JAMES II
 Job cpu time:  1 days 14 hours  6 minutes 42.2 seconds.
 File lengths (MBytes):  RWF=   2563 Int=      0 D2E=      0 Chk=     37 Scr=      1
 Normal termination of Gaussian 09 at Mon Dec 30 06:18:54 2013.
