 Entering Gaussian System, Link 0=g09
 Initial command:
 /opt/gaussian/g09/l1.exe /panfs/panfs.cluster/home/shuo/Gau-22399.inp -scrdir=/panfs/panfs.cluster/home/shuo/
 Default is to use a total of  12 processors:
                               12 via shared-memory
                                1 via Linda
 Entering Link 1 = /opt/gaussian/g09/l1.exe PID=     22400.
  
 Copyright (c) 1988,1990,1992,1993,1995,1998,2003,2009,2011,
            Gaussian, Inc.  All Rights Reserved.
  
 This is part of the Gaussian(R) 09 program.  It is based on
 the Gaussian(R) 03 system (copyright 2003, Gaussian, Inc.),
 the Gaussian(R) 98 system (copyright 1998, Gaussian, Inc.),
 the Gaussian(R) 94 system (copyright 1995, Gaussian, Inc.),
 the Gaussian 92(TM) system (copyright 1992, Gaussian, Inc.),
 the Gaussian 90(TM) system (copyright 1990, Gaussian, Inc.),
 the Gaussian 88(TM) system (copyright 1988, Gaussian, Inc.),
 the Gaussian 86(TM) system (copyright 1986, Carnegie Mellon
 University), and the Gaussian 82(TM) system (copyright 1983,
 Carnegie Mellon University). Gaussian is a federally registered
 trademark of Gaussian, Inc.
  
 This software contains proprietary and confidential information,
 including trade secrets, belonging to Gaussian, Inc.
  
 This software is provided under written license and may be
 used, copied, transmitted, or stored only in accord with that
 written license.
  
 The following legend is applicable only to US Government
 contracts under FAR:
  
                    RESTRICTED RIGHTS LEGEND
  
 Use, reproduction and disclosure by the US Government is
 subject to restrictions as set forth in subparagraphs (a)
 and (c) of the Commercial Computer Software - Restricted
 Rights clause in FAR 52.227-19.
  
 Gaussian, Inc.
 340 Quinnipiac St., Bldg. 40, Wallingford CT 06492
  
  
 ---------------------------------------------------------------
 Warning -- This program may not be used in any manner that
 competes with the business of Gaussian, Inc. or will provide
 assistance to any competitor of Gaussian, Inc.  The licensee
 of this program is prohibited from giving any competitor of
 Gaussian, Inc. access to this program.  By using this program,
 the user acknowledges that Gaussian, Inc. is engaged in the
 business of creating and licensing software in the field of
 computational chemistry and represents and warrants to the
 licensee that it is not a competitor of Gaussian, Inc. and that
 it will not use this program in any manner prohibited above.
 ---------------------------------------------------------------
  

 Cite this work as:
 Gaussian 09, Revision C.01,
 M. J. Frisch, G. W. Trucks, H. B. Schlegel, G. E. Scuseria, 
 M. A. Robb, J. R. Cheeseman, G. Scalmani, V. Barone, B. Mennucci, 
 G. A. Petersson, H. Nakatsuji, M. Caricato, X. Li, H. P. Hratchian, 
 A. F. Izmaylov, J. Bloino, G. Zheng, J. L. Sonnenberg, M. Hada, 
 M. Ehara, K. Toyota, R. Fukuda, J. Hasegawa, M. Ishida, T. Nakajima, 
 Y. Honda, O. Kitao, H. Nakai, T. Vreven, J. A. Montgomery, Jr., 
 J. E. Peralta, F. Ogliaro, M. Bearpark, J. J. Heyd, E. Brothers, 
 K. N. Kudin, V. N. Staroverov, T. Keith, R. Kobayashi, J. Normand, 
 K. Raghavachari, A. Rendell, J. C. Burant, S. S. Iyengar, J. Tomasi, 
 M. Cossi, N. Rega, J. M. Millam, M. Klene, J. E. Knox, J. B. Cross, 
 V. Bakken, C. Adamo, J. Jaramillo, R. Gomperts, R. E. Stratmann, 
 O. Yazyev, A. J. Austin, R. Cammi, C. Pomelli, J. W. Ochterski, 
 R. L. Martin, K. Morokuma, V. G. Zakrzewski, G. A. Voth, 
 P. Salvador, J. J. Dannenberg, S. Dapprich, A. D. Daniels, 
 O. Farkas, J. B. Foresman, J. V. Ortiz, J. Cioslowski, 
 and D. J. Fox, Gaussian, Inc., Wallingford CT, 2010.
 
 ******************************************
 Gaussian 09:  EM64L-G09RevC.01 23-Sep-2011
                29-Dec-2013 
 ******************************************
 %chk=54_C22H10N6O2S2.chk
 %NProcShared=12
 Will use up to   12 processors via shared memory.
 %Mem=8000MB
 Default route:  MaxDisk=100GB
 --------------------------------------------
 #B3LYP/6-31++G(d,p) opt scf=direct freq test
 --------------------------------------------
 1/14=-1,18=20,19=15,26=3,38=1/1,3;
 2/9=110,12=2,17=6,18=5,40=1/2;
 3/5=1,6=6,7=1111,11=2,16=1,25=1,30=1,71=1,74=-5/1,2,3;
 4//1;
 5/5=2,38=5/2;
 6/7=2,8=2,9=2,10=2,28=1/1;
 7//1,2,3,16;
 1/14=-1,18=20,19=15/3(2);
 2/9=110/2;
 99//99;
 2/9=110/2;
 3/5=1,6=6,7=1111,11=2,16=1,25=1,30=1,71=1,74=-5/1,2,3;
 4/5=5,16=3/1;
 5/5=2,38=5/2;
 7//1,2,3,16;
 1/14=-1,18=20,19=15/3(-5);
 2/9=110/2;
 6/7=2,8=2,9=2,10=2,19=2,28=1/1;
 99/9=1/99;
 ----------------------------------------------------------------------
 Geom opt of No.54 candidate from the CEPDB database with SMILE code of
  c1occ2c1ccc1c3ccccc3c3c4oc(cc4ccc3c21)-c1cncc2nsnc12, HPC, 20131227, 
 Shuo Dai, Gaussian09
 ----------------------------------------------------------------------
 Charge =  0 Multiplicity = 1
 Symbolic Z-Matrix:
 C                     2.42256   0.62432  -1.63146 
 O                     2.24051  -0.90621  -0.90747 
 C                     3.36929  -1.14796  -1.61141 
 C                     3.88151  -0.01531  -0.85633 
 C                     3.9436    0.51402  -2.07395 
 C                     5.55694   0.21592  -2.28019 
 C                     6.56145  -0.03434  -1.20852 
 C                     6.16213  -0.00988   0.14401 
 C                     6.96268   0.06987   1.39552 
 C                     8.3937    0.08582   1.51844 
 C                     9.05017   0.1695    2.77027 
 C                     8.3208    0.25326   3.92964 
 C                     6.95226   0.25098   3.83778 
 C                     6.24217   0.15566   2.61277 
 C                     4.80987   0.1583    2.63829 
 C                     4.00105   0.23245   3.78139 
 O                     4.50365   0.28411   5.01894 
 C                     3.51943   0.37217   5.91091 
 C                     2.30458   0.34516   5.26993 
 C                     2.62403   0.25028   3.89842 
 C                     1.85931   0.20431   2.76325 
 C                     2.61036   0.19659   1.61857 
 C                     4.03599   0.08841   1.47228 
 C                     4.75741  -0.06699   0.28202 
 C                     4.12934   0.44359   7.19426 
 C                     4.73033  -0.66243   7.8045 
 N                     5.48285  -0.67271   8.95142 
 C                     5.7726    0.49508   9.59458 
 C                     5.38471   1.704     8.98418 
 N                     5.6467    2.94331   9.42722 
 S                     5.03141   3.98393   8.28949 
 N                     4.38089   2.909     7.20681 
 C                     4.5714    1.67835   7.72008 
 H                     1.43242   0.6505   -1.08133 
 H                     2.91776  -1.11257  -2.7063 
 H                     5.92973  -0.01534  -3.29405 
 H                     7.62791  -0.13442  -1.45337 
 H                     9.03119   0.02358   0.64099 
 H                     10.13179   0.17082   2.85202 
 H                     8.75963   0.323     4.92227 
 H                     6.46056   0.33149   4.78988 
 H                     1.28364   0.39004   5.6164 
 H                     0.77734   0.20531   2.70697 
 H                     1.93554   0.28052   0.78643 
 H                     4.66013  -1.64309   7.32786 
 H                     6.30158   0.44131   10.53561 
 

 GradGradGradGradGradGradGradGradGradGradGradGradGradGradGradGradGradGrad
 Berny optimization.
 Initialization pass.
                           ----------------------------
                           !    Initial Parameters    !
                           ! (Angstroms and Degrees)  !
 --------------------------                            --------------------------
 ! Name  Definition              Value          Derivative Info.                !
 --------------------------------------------------------------------------------
 ! R1    R(1,2)                  1.7029         estimate D2E/DX2                !
 ! R2    R(1,4)                  1.7716         estimate D2E/DX2                !
 ! R3    R(1,5)                  1.5879         estimate D2E/DX2                !
 ! R4    R(1,34)                 1.133          estimate D2E/DX2                !
 ! R5    R(2,3)                  1.3521         estimate D2E/DX2                !
 ! R6    R(3,4)                  1.4544         estimate D2E/DX2                !
 ! R7    R(3,5)                  1.8182         estimate D2E/DX2                !
 ! R8    R(3,35)                 1.1849         estimate D2E/DX2                !
 ! R9    R(4,5)                  1.3292         estimate D2E/DX2                !
 ! R10   R(4,24)                 1.4373         estimate D2E/DX2                !
 ! R11   R(5,6)                  1.6536         estimate D2E/DX2                !
 ! R12   R(6,7)                  1.49           estimate D2E/DX2                !
 ! R13   R(6,36)                 1.1047         estimate D2E/DX2                !
 ! R14   R(7,8)                  1.4105         estimate D2E/DX2                !
 ! R15   R(7,37)                 1.0988         estimate D2E/DX2                !
 ! R16   R(8,9)                  1.4878         estimate D2E/DX2                !
 ! R17   R(8,24)                 1.4126         estimate D2E/DX2                !
 ! R18   R(9,10)                 1.4364         estimate D2E/DX2                !
 ! R19   R(9,14)                 1.4171         estimate D2E/DX2                !
 ! R20   R(10,11)                1.416          estimate D2E/DX2                !
 ! R21   R(10,38)                1.0864         estimate D2E/DX2                !
 ! R22   R(11,12)                1.3723         estimate D2E/DX2                !
 ! R23   R(11,39)                1.0847         estimate D2E/DX2                !
 ! R24   R(12,13)                1.3716         estimate D2E/DX2                !
 ! R25   R(12,40)                1.0875         estimate D2E/DX2                !
 ! R26   R(13,14)                1.4191         estimate D2E/DX2                !
 ! R27   R(13,41)                1.0746         estimate D2E/DX2                !
 ! R28   R(14,15)                1.4325         estimate D2E/DX2                !
 ! R29   R(15,16)                1.4023         estimate D2E/DX2                !
 ! R30   R(15,23)                1.4012         estimate D2E/DX2                !
 ! R31   R(16,17)                1.3367         estimate D2E/DX2                !
 ! R32   R(16,20)                1.3821         estimate D2E/DX2                !
 ! R33   R(17,18)                1.3312         estimate D2E/DX2                !
 ! R34   R(18,19)                1.3738         estimate D2E/DX2                !
 ! R35   R(18,25)                1.4227         estimate D2E/DX2                !
 ! R36   R(19,20)                1.4114         estimate D2E/DX2                !
 ! R37   R(19,42)                1.0791         estimate D2E/DX2                !
 ! R38   R(20,21)                1.3695         estimate D2E/DX2                !
 ! R39   R(21,22)                1.3691         estimate D2E/DX2                !
 ! R40   R(21,43)                1.0834         estimate D2E/DX2                !
 ! R41   R(22,23)                1.4372         estimate D2E/DX2                !
 ! R42   R(22,44)                1.0747         estimate D2E/DX2                !
 ! R43   R(23,24)                1.4005         estimate D2E/DX2                !
 ! R44   R(25,26)                1.3989         estimate D2E/DX2                !
 ! R45   R(25,33)                1.413          estimate D2E/DX2                !
 ! R46   R(26,27)                1.3718         estimate D2E/DX2                !
 ! R47   R(26,45)                1.0926         estimate D2E/DX2                !
 ! R48   R(27,28)                1.3643         estimate D2E/DX2                !
 ! R49   R(28,29)                1.4087         estimate D2E/DX2                !
 ! R50   R(28,46)                1.0809         estimate D2E/DX2                !
 ! R51   R(29,30)                1.3419         estimate D2E/DX2                !
 ! R52   R(29,33)                1.5034         estimate D2E/DX2                !
 ! R53   R(30,31)                1.6601         estimate D2E/DX2                !
 ! R54   R(31,32)                1.6586         estimate D2E/DX2                !
 ! R55   R(32,33)                1.3469         estimate D2E/DX2                !
 ! A1    A(2,1,4)               65.0083         estimate D2E/DX2                !
 ! A2    A(2,1,5)               99.1167         estimate D2E/DX2                !
 ! A3    A(2,1,34)              73.794          estimate D2E/DX2                !
 ! A4    A(4,1,34)             121.0366         estimate D2E/DX2                !
 ! A5    A(1,2,3)               81.3789         estimate D2E/DX2                !
 ! A6    A(2,3,4)               83.3666         estimate D2E/DX2                !
 ! A7    A(2,3,5)              103.4565         estimate D2E/DX2                !
 ! A8    A(2,3,35)              99.0684         estimate D2E/DX2                !
 ! A9    A(4,3,35)             126.205          estimate D2E/DX2                !
 ! A10   A(5,3,35)              81.8361         estimate D2E/DX2                !
 ! A11   A(1,4,3)               76.349          estimate D2E/DX2                !
 ! A12   A(1,4,24)             149.4746         estimate D2E/DX2                !
 ! A13   A(3,4,24)             126.713          estimate D2E/DX2                !
 ! A14   A(5,4,24)             135.3505         estimate D2E/DX2                !
 ! A15   A(1,5,3)               71.9436         estimate D2E/DX2                !
 ! A16   A(3,5,6)              100.0858         estimate D2E/DX2                !
 ! A17   A(4,5,6)               95.051          estimate D2E/DX2                !
 ! A18   A(5,6,7)              126.7508         estimate D2E/DX2                !
 ! A19   A(5,6,36)             118.7806         estimate D2E/DX2                !
 ! A20   A(7,6,36)             113.4175         estimate D2E/DX2                !
 ! A21   A(6,7,8)              119.7303         estimate D2E/DX2                !
 ! A22   A(6,7,37)             120.6211         estimate D2E/DX2                !
 ! A23   A(8,7,37)             119.3441         estimate D2E/DX2                !
 ! A24   A(7,8,9)              130.9372         estimate D2E/DX2                !
 ! A25   A(7,8,24)             111.994          estimate D2E/DX2                !
 ! A26   A(9,8,24)             117.0681         estimate D2E/DX2                !
 ! A27   A(8,9,10)             127.4922         estimate D2E/DX2                !
 ! A28   A(8,9,14)             116.8861         estimate D2E/DX2                !
 ! A29   A(10,9,14)            115.6175         estimate D2E/DX2                !
 ! A30   A(9,10,11)            122.5607         estimate D2E/DX2                !
 ! A31   A(9,10,38)            120.9885         estimate D2E/DX2                !
 ! A32   A(11,10,38)           116.4482         estimate D2E/DX2                !
 ! A33   A(10,11,12)           120.2717         estimate D2E/DX2                !
 ! A34   A(10,11,39)           121.9374         estimate D2E/DX2                !
 ! A35   A(12,11,39)           117.7908         estimate D2E/DX2                !
 ! A36   A(11,12,13)           118.27           estimate D2E/DX2                !
 ! A37   A(11,12,40)           124.0952         estimate D2E/DX2                !
 ! A38   A(13,12,40)           117.6347         estimate D2E/DX2                !
 ! A39   A(12,13,14)           123.8599         estimate D2E/DX2                !
 ! A40   A(12,13,41)           113.3957         estimate D2E/DX2                !
 ! A41   A(14,13,41)           122.7442         estimate D2E/DX2                !
 ! A42   A(9,14,13)            119.4147         estimate D2E/DX2                !
 ! A43   A(9,14,15)            121.5854         estimate D2E/DX2                !
 ! A44   A(13,14,15)           118.9983         estimate D2E/DX2                !
 ! A45   A(14,15,16)           126.2507         estimate D2E/DX2                !
 ! A46   A(14,15,23)           122.4996         estimate D2E/DX2                !
 ! A47   A(16,15,23)           111.2493         estimate D2E/DX2                !
 ! A48   A(15,16,17)           122.6751         estimate D2E/DX2                !
 ! A49   A(15,16,20)           130.1193         estimate D2E/DX2                !
 ! A50   A(17,16,20)           107.2009         estimate D2E/DX2                !
 ! A51   A(16,17,18)           110.1763         estimate D2E/DX2                !
 ! A52   A(17,18,19)           109.8689         estimate D2E/DX2                !
 ! A53   A(17,18,25)           106.905          estimate D2E/DX2                !
 ! A54   A(19,18,25)           143.2194         estimate D2E/DX2                !
 ! A55   A(18,19,20)           104.747          estimate D2E/DX2                !
 ! A56   A(18,19,42)           133.3158         estimate D2E/DX2                !
 ! A57   A(20,19,42)           121.9342         estimate D2E/DX2                !
 ! A58   A(16,20,19)           107.9779         estimate D2E/DX2                !
 ! A59   A(16,20,21)           119.0598         estimate D2E/DX2                !
 ! A60   A(19,20,21)           132.948          estimate D2E/DX2                !
 ! A61   A(20,21,22)           112.7614         estimate D2E/DX2                !
 ! A62   A(20,21,43)           126.9177         estimate D2E/DX2                !
 ! A63   A(22,21,43)           120.2919         estimate D2E/DX2                !
 ! A64   A(21,22,23)           129.0271         estimate D2E/DX2                !
 ! A65   A(21,22,44)           107.6075         estimate D2E/DX2                !
 ! A66   A(23,22,44)           123.3635         estimate D2E/DX2                !
 ! A67   A(15,23,22)           117.3482         estimate D2E/DX2                !
 ! A68   A(15,23,24)           115.3583         estimate D2E/DX2                !
 ! A69   A(22,23,24)           127.2897         estimate D2E/DX2                !
 ! A70   A(4,24,8)             121.8148         estimate D2E/DX2                !
 ! A71   A(4,24,23)            110.8072         estimate D2E/DX2                !
 ! A72   A(8,24,23)            126.2128         estimate D2E/DX2                !
 ! A73   A(18,25,26)           122.5472         estimate D2E/DX2                !
 ! A74   A(18,25,33)           120.9087         estimate D2E/DX2                !
 ! A75   A(26,25,33)           113.2143         estimate D2E/DX2                !
 ! A76   A(25,26,27)           127.3243         estimate D2E/DX2                !
 ! A77   A(25,26,45)           119.4542         estimate D2E/DX2                !
 ! A78   A(27,26,45)           113.1566         estimate D2E/DX2                !
 ! A79   A(26,27,28)           120.2802         estimate D2E/DX2                !
 ! A80   A(27,28,29)           118.1516         estimate D2E/DX2                !
 ! A81   A(27,28,46)           118.1506         estimate D2E/DX2                !
 ! A82   A(29,28,46)           123.6894         estimate D2E/DX2                !
 ! A83   A(28,29,30)           126.5639         estimate D2E/DX2                !
 ! A84   A(28,29,33)           119.9112         estimate D2E/DX2                !
 ! A85   A(30,29,33)           113.5146         estimate D2E/DX2                !
 ! A86   A(29,30,31)           106.2769         estimate D2E/DX2                !
 ! A87   A(30,31,32)           100.7477         estimate D2E/DX2                !
 ! A88   A(31,32,33)           106.7339         estimate D2E/DX2                !
 ! A89   A(25,33,29)           119.8065         estimate D2E/DX2                !
 ! A90   A(25,33,32)           127.7605         estimate D2E/DX2                !
 ! A91   A(29,33,32)           112.4172         estimate D2E/DX2                !
 ! A92   L(5,1,34,2,-1)        172.9107         estimate D2E/DX2                !
 ! A93   L(1,5,6,3,-1)         172.0294         estimate D2E/DX2                !
 ! A94   L(5,1,34,2,-2)        168.7072         estimate D2E/DX2                !
 ! A95   L(1,5,6,3,-2)         187.7207         estimate D2E/DX2                !
 ! D1    D(4,1,2,3)            -49.0255         estimate D2E/DX2                !
 ! D2    D(5,1,2,3)            -17.0258         estimate D2E/DX2                !
 ! D3    D(34,1,2,3)           174.2671         estimate D2E/DX2                !
 ! D4    D(2,1,4,3)             45.57           estimate D2E/DX2                !
 ! D5    D(2,1,4,24)           -97.4926         estimate D2E/DX2                !
 ! D6    D(34,1,4,3)            95.7889         estimate D2E/DX2                !
 ! D7    D(34,1,4,24)          -47.2737         estimate D2E/DX2                !
 ! D8    D(2,1,5,3)             13.0867         estimate D2E/DX2                !
 ! D9    D(2,1,6,7)            -59.8022         estimate D2E/DX2                !
 ! D10   D(2,1,6,36)           103.5914         estimate D2E/DX2                !
 ! D11   D(1,2,3,4)             57.0491         estimate D2E/DX2                !
 ! D12   D(1,2,3,5)             15.0471         estimate D2E/DX2                !
 ! D13   D(1,2,3,35)           -68.6566         estimate D2E/DX2                !
 ! D14   D(2,3,4,1)            -55.1519         estimate D2E/DX2                !
 ! D15   D(2,3,4,24)           102.4675         estimate D2E/DX2                !
 ! D16   D(35,3,4,1)            41.2508         estimate D2E/DX2                !
 ! D17   D(35,3,4,24)         -161.1298         estimate D2E/DX2                !
 ! D18   D(2,3,5,1)            -16.8292         estimate D2E/DX2                !
 ! D19   D(2,3,5,6)            155.4501         estimate D2E/DX2                !
 ! D20   D(35,3,5,1)            80.6055         estimate D2E/DX2                !
 ! D21   D(35,3,5,6)          -107.1152         estimate D2E/DX2                !
 ! D22   D(24,4,5,6)            36.1961         estimate D2E/DX2                !
 ! D23   D(1,4,24,8)          -135.4274         estimate D2E/DX2                !
 ! D24   D(1,4,24,23)           32.9513         estimate D2E/DX2                !
 ! D25   D(3,4,24,8)            91.3304         estimate D2E/DX2                !
 ! D26   D(3,4,24,23)         -100.2909         estimate D2E/DX2                !
 ! D27   D(5,4,24,8)           -28.0379         estimate D2E/DX2                !
 ! D28   D(5,4,24,23)          140.3408         estimate D2E/DX2                !
 ! D29   D(3,5,6,7)            -73.1754         estimate D2E/DX2                !
 ! D30   D(3,5,6,36)            94.2797         estimate D2E/DX2                !
 ! D31   D(4,5,6,7)            -20.6296         estimate D2E/DX2                !
 ! D32   D(4,5,6,36)           146.8254         estimate D2E/DX2                !
 ! D33   D(5,6,7,8)             -0.9541         estimate D2E/DX2                !
 ! D34   D(5,6,7,37)          -174.5765         estimate D2E/DX2                !
 ! D35   D(36,6,7,8)          -168.9804         estimate D2E/DX2                !
 ! D36   D(36,6,7,37)           17.3972         estimate D2E/DX2                !
 ! D37   D(6,7,8,9)           -165.0611         estimate D2E/DX2                !
 ! D38   D(6,7,8,24)            14.6342         estimate D2E/DX2                !
 ! D39   D(37,7,8,9)             8.6431         estimate D2E/DX2                !
 ! D40   D(37,7,8,24)         -171.6616         estimate D2E/DX2                !
 ! D41   D(7,8,9,10)            -2.9072         estimate D2E/DX2                !
 ! D42   D(7,8,9,14)           176.3136         estimate D2E/DX2                !
 ! D43   D(24,8,9,10)          177.4101         estimate D2E/DX2                !
 ! D44   D(24,8,9,14)           -3.3692         estimate D2E/DX2                !
 ! D45   D(7,8,24,4)            -5.8768         estimate D2E/DX2                !
 ! D46   D(7,8,24,23)         -172.3802         estimate D2E/DX2                !
 ! D47   D(9,8,24,4)           173.8647         estimate D2E/DX2                !
 ! D48   D(9,8,24,23)            7.3613         estimate D2E/DX2                !
 ! D49   D(8,9,10,11)          179.7711         estimate D2E/DX2                !
 ! D50   D(8,9,10,38)           -0.8304         estimate D2E/DX2                !
 ! D51   D(14,9,10,11)           0.5419         estimate D2E/DX2                !
 ! D52   D(14,9,10,38)         179.9404         estimate D2E/DX2                !
 ! D53   D(8,9,14,13)         -179.2205         estimate D2E/DX2                !
 ! D54   D(8,9,14,15)            0.3247         estimate D2E/DX2                !
 ! D55   D(10,9,14,13)           0.0938         estimate D2E/DX2                !
 ! D56   D(10,9,14,15)         179.639          estimate D2E/DX2                !
 ! D57   D(9,10,11,12)          -0.6672         estimate D2E/DX2                !
 ! D58   D(9,10,11,39)         179.3774         estimate D2E/DX2                !
 ! D59   D(38,10,11,12)        179.9088         estimate D2E/DX2                !
 ! D60   D(38,10,11,39)         -0.0466         estimate D2E/DX2                !
 ! D61   D(10,11,12,13)          0.1098         estimate D2E/DX2                !
 ! D62   D(10,11,12,40)       -179.8093         estimate D2E/DX2                !
 ! D63   D(39,11,12,13)       -179.933          estimate D2E/DX2                !
 ! D64   D(39,11,12,40)          0.1479         estimate D2E/DX2                !
 ! D65   D(11,12,13,14)          0.55           estimate D2E/DX2                !
 ! D66   D(11,12,13,41)       -179.3015         estimate D2E/DX2                !
 ! D67   D(40,12,13,14)       -179.5256         estimate D2E/DX2                !
 ! D68   D(40,12,13,41)          0.6229         estimate D2E/DX2                !
 ! D69   D(12,13,14,9)          -0.6572         estimate D2E/DX2                !
 ! D70   D(12,13,14,15)        179.7857         estimate D2E/DX2                !
 ! D71   D(41,13,14,9)         179.1808         estimate D2E/DX2                !
 ! D72   D(41,13,14,15)         -0.3763         estimate D2E/DX2                !
 ! D73   D(9,14,15,16)         179.6719         estimate D2E/DX2                !
 ! D74   D(9,14,15,23)          -0.5523         estimate D2E/DX2                !
 ! D75   D(13,14,15,16)         -0.781          estimate D2E/DX2                !
 ! D76   D(13,14,15,23)        178.9948         estimate D2E/DX2                !
 ! D77   D(14,15,16,17)         -1.4056         estimate D2E/DX2                !
 ! D78   D(14,15,16,20)        179.4948         estimate D2E/DX2                !
 ! D79   D(23,15,16,17)        178.7973         estimate D2E/DX2                !
 ! D80   D(23,15,16,20)         -0.3023         estimate D2E/DX2                !
 ! D81   D(14,15,23,22)       -175.5942         estimate D2E/DX2                !
 ! D82   D(14,15,23,24)          3.749          estimate D2E/DX2                !
 ! D83   D(16,15,23,22)          4.2119         estimate D2E/DX2                !
 ! D84   D(16,15,23,24)       -176.445          estimate D2E/DX2                !
 ! D85   D(15,16,17,18)        178.9528         estimate D2E/DX2                !
 ! D86   D(20,16,17,18)         -1.768          estimate D2E/DX2                !
 ! D87   D(15,16,20,19)       -179.5287         estimate D2E/DX2                !
 ! D88   D(15,16,20,21)         -0.7292         estimate D2E/DX2                !
 ! D89   D(17,16,20,19)          1.2647         estimate D2E/DX2                !
 ! D90   D(17,16,20,21)       -179.9358         estimate D2E/DX2                !
 ! D91   D(16,17,18,19)          1.6055         estimate D2E/DX2                !
 ! D92   D(16,17,18,25)       -179.1098         estimate D2E/DX2                !
 ! D93   D(17,18,19,20)         -0.7529         estimate D2E/DX2                !
 ! D94   D(17,18,19,42)        179.8999         estimate D2E/DX2                !
 ! D95   D(25,18,19,20)       -179.6098         estimate D2E/DX2                !
 ! D96   D(25,18,19,42)          1.0429         estimate D2E/DX2                !
 ! D97   D(17,18,25,26)        -73.1276         estimate D2E/DX2                !
 ! D98   D(17,18,25,33)         84.8616         estimate D2E/DX2                !
 ! D99   D(19,18,25,26)        105.7488         estimate D2E/DX2                !
 ! D100  D(19,18,25,33)        -96.2619         estimate D2E/DX2                !
 ! D101  D(18,19,20,16)         -0.3225         estimate D2E/DX2                !
 ! D102  D(18,19,20,21)       -178.8888         estimate D2E/DX2                !
 ! D103  D(42,19,20,16)        179.1179         estimate D2E/DX2                !
 ! D104  D(42,19,20,21)          0.5516         estimate D2E/DX2                !
 ! D105  D(16,20,21,22)         -2.3726         estimate D2E/DX2                !
 ! D106  D(16,20,21,43)        179.5964         estimate D2E/DX2                !
 ! D107  D(19,20,21,22)        176.0673         estimate D2E/DX2                !
 ! D108  D(19,20,21,43)         -1.9637         estimate D2E/DX2                !
 ! D109  D(20,21,22,23)          7.2479         estimate D2E/DX2                !
 ! D110  D(20,21,22,44)       -173.2465         estimate D2E/DX2                !
 ! D111  D(43,21,22,23)       -174.5752         estimate D2E/DX2                !
 ! D112  D(43,21,22,44)          4.9304         estimate D2E/DX2                !
 ! D113  D(21,22,23,15)         -8.562          estimate D2E/DX2                !
 ! D114  D(21,22,23,24)        172.1841         estimate D2E/DX2                !
 ! D115  D(44,22,23,15)        172.0022         estimate D2E/DX2                !
 ! D116  D(44,22,23,24)         -7.2517         estimate D2E/DX2                !
 ! D117  D(15,23,24,4)        -175.1959         estimate D2E/DX2                !
 ! D118  D(15,23,24,8)          -7.4449         estimate D2E/DX2                !
 ! D119  D(22,23,24,4)           4.0707         estimate D2E/DX2                !
 ! D120  D(22,23,24,8)         171.8217         estimate D2E/DX2                !
 ! D121  D(18,25,26,27)        171.3918         estimate D2E/DX2                !
 ! D122  D(18,25,26,45)         -5.4678         estimate D2E/DX2                !
 ! D123  D(33,25,26,27)         11.872          estimate D2E/DX2                !
 ! D124  D(33,25,26,45)       -164.9876         estimate D2E/DX2                !
 ! D125  D(18,25,33,29)       -171.3122         estimate D2E/DX2                !
 ! D126  D(18,25,33,32)          7.1278         estimate D2E/DX2                !
 ! D127  D(26,25,33,29)        -11.4178         estimate D2E/DX2                !
 ! D128  D(26,25,33,32)        167.0222         estimate D2E/DX2                !
 ! D129  D(25,26,27,28)         -3.2867         estimate D2E/DX2                !
 ! D130  D(45,26,27,28)        173.7394         estimate D2E/DX2                !
 ! D131  D(26,27,28,29)         -5.7033         estimate D2E/DX2                !
 ! D132  D(26,27,28,46)        175.3104         estimate D2E/DX2                !
 ! D133  D(27,28,29,30)       -176.0893         estimate D2E/DX2                !
 ! D134  D(27,28,29,33)          5.1594         estimate D2E/DX2                !
 ! D135  D(46,28,29,30)          2.8365         estimate D2E/DX2                !
 ! D136  D(46,28,29,33)       -175.9148         estimate D2E/DX2                !
 ! D137  D(28,29,30,31)        177.0461         estimate D2E/DX2                !
 ! D138  D(33,29,30,31)         -4.1342         estimate D2E/DX2                !
 ! D139  D(28,29,33,25)          3.8901         estimate D2E/DX2                !
 ! D140  D(28,29,33,32)       -174.7758         estimate D2E/DX2                !
 ! D141  D(30,29,33,25)       -175.0161         estimate D2E/DX2                !
 ! D142  D(30,29,33,32)          6.3179         estimate D2E/DX2                !
 ! D143  D(29,30,31,32)          1.1347         estimate D2E/DX2                !
 ! D144  D(30,31,32,33)          2.4357         estimate D2E/DX2                !
 ! D145  D(31,32,33,25)        176.4814         estimate D2E/DX2                !
 ! D146  D(31,32,33,29)         -4.9829         estimate D2E/DX2                !
 --------------------------------------------------------------------------------
 Trust Radius=3.00D-01 FncErr=1.00D-07 GrdErr=1.00D-06
 Number of steps in this run=    276 maximum allowed number of steps=    276.
 GradGradGradGradGradGradGradGradGradGradGradGradGradGradGradGradGradGrad

                          Input orientation:                          
 ---------------------------------------------------------------------
 Center     Atomic      Atomic             Coordinates (Angstroms)
 Number     Number       Type             X           Y           Z
 ---------------------------------------------------------------------
      1          6           0        2.422560    0.624320   -1.631460
      2          8           0        2.240510   -0.906210   -0.907470
      3          6           0        3.369290   -1.147960   -1.611410
      4          6           0        3.881510   -0.015310   -0.856330
      5          6           0        3.943600    0.514020   -2.073950
      6          6           0        5.556940    0.215920   -2.280190
      7          6           0        6.561450   -0.034340   -1.208520
      8          6           0        6.162130   -0.009880    0.144010
      9          6           0        6.962680    0.069870    1.395520
     10          6           0        8.393700    0.085820    1.518440
     11          6           0        9.050170    0.169500    2.770270
     12          6           0        8.320800    0.253260    3.929640
     13          6           0        6.952260    0.250980    3.837780
     14          6           0        6.242170    0.155660    2.612770
     15          6           0        4.809870    0.158300    2.638290
     16          6           0        4.001050    0.232450    3.781390
     17          8           0        4.503650    0.284110    5.018940
     18          6           0        3.519430    0.372170    5.910910
     19          6           0        2.304580    0.345160    5.269930
     20          6           0        2.624030    0.250280    3.898420
     21          6           0        1.859310    0.204310    2.763250
     22          6           0        2.610360    0.196590    1.618570
     23          6           0        4.035990    0.088410    1.472280
     24          6           0        4.757410   -0.066990    0.282020
     25          6           0        4.129340    0.443590    7.194260
     26          6           0        4.730330   -0.662430    7.804500
     27          7           0        5.482850   -0.672710    8.951420
     28          6           0        5.772600    0.495080    9.594580
     29          6           0        5.384710    1.704000    8.984180
     30          7           0        5.646700    2.943310    9.427220
     31         16           0        5.031410    3.983930    8.289490
     32          7           0        4.380890    2.909000    7.206810
     33          6           0        4.571400    1.678350    7.720080
     34          1           0        1.432420    0.650500   -1.081330
     35          1           0        2.917760   -1.112570   -2.706300
     36          1           0        5.929730   -0.015340   -3.294050
     37          1           0        7.627910   -0.134420   -1.453370
     38          1           0        9.031190    0.023580    0.640990
     39          1           0       10.131790    0.170820    2.852020
     40          1           0        8.759630    0.323000    4.922270
     41          1           0        6.460560    0.331490    4.789880
     42          1           0        1.283640    0.390040    5.616400
     43          1           0        0.777340    0.205310    2.706970
     44          1           0        1.935540    0.280520    0.786430
     45          1           0        4.660130   -1.643090    7.327860
     46          1           0        6.301580    0.441310   10.535610
 ---------------------------------------------------------------------
                    Distance matrix (angstroms):
                    1          2          3          4          5
     1  C    0.000000
     2  O    1.702887   0.000000
     3  C    2.009397   1.352079   0.000000
     4  C    1.771578   1.867940   1.454445   0.000000
     5  C    1.587931   2.505643   1.818228   1.329152   0.000000
     6  C    3.226760   3.760617   2.663315   2.210862   1.653561
     7  C    4.212259   4.418293   3.404755   2.703050   2.811193
     8  C    4.187945   4.157899   3.489510   2.490369   3.180518
     9  C    5.484771   5.343724   4.841197   3.817289   4.620534
    10  C    6.772471   6.688117   6.046724   5.099963   5.735156
    11  C    7.969147   7.813731   7.294328   6.316758   7.047143
    12  C    8.114971   7.855694   7.562017   6.533371   7.434445
    13  C    7.111269   6.786536   6.669961   5.615611   6.638507
    14  C    5.729097   5.434422   5.272244   4.199595   5.232322
    15  C    4.913979   4.506352   4.673493   3.619995   4.804390
    16  C    5.651915   5.136288   5.602405   4.645871   5.862388
    17  O    6.976711   6.454533   6.877437   5.915700   7.118680
    18  C    7.625880   7.054091   7.675848   6.787988   7.997376
    19  C    6.908041   6.303198   7.121507   6.336222   7.526452
    20  C    5.546176   4.957937   5.733124   4.925387   6.122093
    21  C    4.450521   3.853927   4.821444   4.151974   5.276238
    22  C    3.283431   2.780977   3.580022   2.790314   3.938654
    23  C    3.538864   3.142647   3.388546   2.336032   3.572874
    24  C    3.096908   2.907570   2.584657   1.437259   2.559385
    25  C    8.991056   8.427791   8.980564   8.067466   9.270339
    26  C    9.798922   9.064053   9.526150   8.726353   9.979316
    27  N   11.092566  10.380992  10.782689   9.959339  11.195374
    28  C   11.715948  11.168363  11.577983  10.632885  11.811020
    29  C   11.073927  10.702520  11.156259  10.102043  11.214949
    30  N   11.750200  11.542389  11.990681  10.845309  11.877664
    31  S   10.794366  10.783630  11.275050  10.047996  10.982918
    32  N    9.336479   9.218383   9.759265   8.591577   9.594772
    33  C    9.652968   9.303097   9.823940   8.769221   9.882956
    34  H    1.133007   1.762550   2.695720   2.547934   2.703691
    35  H    2.101735   1.933143   1.184870   2.356943   2.024354
    36  H    3.933651   4.483275   3.266490   3.183973   2.390309
    37  H    5.263371   5.469712   4.380421   3.795544   3.792062
    38  H    7.014193   7.026775   6.205072   5.363085   5.787487
    39  H    8.929697   8.807160   8.209311   7.269973   7.916859
    40  H    9.121438   8.831520   8.597003   7.569856   8.495748
    41  H    7.591100   7.197258   7.260939   6.217030   7.313041
    42  H    7.340538   6.719877   7.678321   6.986378   8.138319
    43  H    4.658787   4.054691   5.215165   4.730925   5.742621
    44  H    2.490297   2.090606   3.137807   2.563781   3.502656
    45  H    9.508800   8.614999   9.045550   8.380745   9.672671
    46  H   12.771761  12.216881  12.596595  11.655108  12.828342
                    6          7          8          9         10
     6  C    0.000000
     7  C    1.490016   0.000000
     8  C    2.508782   1.410458   0.000000
     9  C    3.938055   2.636829   1.487790   0.000000
    10  C    4.742755   3.287535   2.622617   1.436378   0.000000
    11  C    6.141006   4.697451   3.907710   2.501495   1.415992
    12  C    6.797228   5.438632   4.365787   2.880952   2.418106
    13  C    6.275166   5.069446   3.786329   2.448988   2.735757
    14  C    4.941076   3.839309   2.475598   1.417107   2.414853
    15  C    4.975227   4.231204   2.842239   2.487346   3.755417
    16  C    6.258100   5.614804   4.237868   3.806581   4.943462
    17  O    7.375050   6.566370   5.157706   4.384279   5.236918
    18  C    8.442155   7.752769   6.355074   5.686484   6.567671
    19  C    8.221853   7.761139   6.425092   6.065042   7.156697
    20  C    6.839471   6.454853   5.165407   5.012079   6.243432
    21  C    6.253710   6.159710   5.041880   5.285182   6.652958
    22  C    4.887027   4.863834   3.851237   4.359874   5.785267
    23  C    4.050997   3.685065   2.508871   2.927755   4.357955
    24  C    2.698927   2.340371   1.412638   2.474233   3.843786
    25  C    9.584105   8.760724   7.351455   6.464740   7.108284
    26  C   10.156562   9.218570   7.820421   6.826029   7.314008
    27  N   11.266952  10.236956   8.858399   7.735176   8.018579
    28  C   11.880009  10.844793   9.472064   8.295883   8.500688
    29  C   11.363542  10.406617   9.038273   7.921372   8.210347
    30  N   12.021238  11.082515   9.755254   8.631145   8.846472
    31  S   11.233531  10.425915   9.142094   8.159442   8.505726
    32  N    9.931714   9.178010   7.847026   6.964007   7.512027
    33  C   10.154575   9.306638   7.923218   6.950215   7.456974
    34  H    4.317151   5.176112   4.930286   6.087339   7.452321
    35  H    2.985251   4.084410   4.457144   5.880856   7.019294
    36  H    1.104702   2.179189   3.445910   4.802740   5.407536
    37  H    2.257274   1.098774   2.171553   2.932651   3.076783
    38  H    4.543204   3.086042   2.911978   2.202315   1.086364
    39  H    6.875381   5.410860   4.808760   3.489247   2.192400
    40  H    7.883154   6.522750   5.448815   3.966241   3.431649
    41  H    7.128518   6.010392   4.667944   3.441257   3.807848
    42  H    8.980398   8.637992   7.342115   7.083067   8.212112
    43  H    6.907710   6.988878   5.967498   6.324293   7.709463
    44  H    4.745827   5.047574   4.284985   5.068284   6.502429
    45  H    9.827248   8.892293   7.518715   6.590040   7.118851
    46  H   12.839393  11.756631  10.402325   9.171492   9.263514
                   11         12         13         14         15
    11  C    0.000000
    12  C    1.372274   0.000000
    13  C    2.355301   1.371621   0.000000
    14  C    2.812448   2.462595   1.419142   0.000000
    15  C    4.242368   3.742089   2.457072   1.432530   0.000000
    16  C    5.149751   4.322343   2.951807   2.528673   1.402272
    17  O    5.073509   3.969655   2.718810   2.971297   2.403558
    18  C    6.363472   5.195452   4.012091   4.282279   3.524346
    19  C    7.195981   6.164392   4.864242   4.754053   3.638258
    20  C    6.524916   5.696856   4.328655   3.840936   2.524735
    21  C    7.190948   6.566103   5.205279   4.385712   2.953563
    22  C    6.542041   6.160632   4.876469   3.765654   2.424694
    23  C    5.180092   4.942205   3.758544   2.484446   1.401197
    24  C    4.967404   5.109348   4.190692   2.772450   2.367597
    25  C    6.622793   5.316230   4.389981   5.053415   4.615341
    26  C    6.685551   5.361390   4.637473   5.468911   5.231601
    27  N    7.186216   5.842059   5.400156   6.437488   6.403053
    28  C    7.577577   6.216377   5.881490   7.005810   7.030664
    29  C    7.375837   6.022761   5.572604   6.612674   6.556672
    30  N    7.974498   6.679114   6.339950   7.386630   7.385536
    31  S    7.820620   6.614097   6.119012   6.953182   6.827927
    32  N    6.999280   5.771974   5.002737   5.670136   5.349930
    33  C    6.843729   5.518724   4.772644   5.585219   5.309615
    34  H    8.549637   8.527450   7.404451   6.084812   5.048267
    35  H    8.321236   8.665681   7.807781   6.399423   5.810321
    36  H    6.822557   7.613873   7.209681   5.917549   6.039611
    37  H    4.467026   5.441249   5.348019   4.305568   4.976818
    38  H    2.134358   3.372332   3.820095   3.418186   4.671927
    39  H    1.084706   2.108968   3.329799   3.897001   5.326225
    40  H    2.176943   1.087543   2.109003   3.420438   4.565555
    41  H    3.288031   2.051006   1.074591   2.195090   2.717372
    42  H    8.274544   7.237782   5.942733   5.802047   4.621379
    43  H    8.273150   7.642055   6.277775   5.465867   4.033389
    44  H    7.386874   7.117026   5.871890   4.679548   3.421417
    45  H    6.582519   5.342710   4.584978   5.288707   5.025882
    46  H    8.241913   6.910243   6.732053   7.928210   8.041950
                   16         17         18         19         20
    16  C    0.000000
    17  O    1.336714   0.000000
    18  C    2.187769   1.331185   0.000000
    19  C    2.259749   2.214189   1.373843   0.000000
    20  C    1.382099   2.188534   2.206063   1.411414   0.000000
    21  C    2.371593   3.476642   3.562575   2.549813   1.369497
    22  C    2.571594   3.892907   4.391061   3.667152   2.280523
    23  C    2.313862   3.582709   4.477588   4.181608   2.811759
    24  C    3.592678   4.756688   5.780126   5.573642   4.210739
    25  C    3.421801   2.213043   1.422701   2.653768   3.628483
    26  C    4.185460   2.950706   2.474340   3.650143   4.530673
    27  N    5.453829   4.163981   3.767160   4.968987   5.878569
    28  C    6.082807   4.753023   4.319873   5.545470   6.513038
    29  C    5.581129   4.302962   3.833801   5.012913   5.966541
    30  N    6.475517   5.273598   4.847729   5.933229   6.852487
    31  S    5.954680   4.966256   4.581325   5.458387   6.246368
    32  N    4.363680   3.419341   2.976067   3.825682   4.593560
    33  C    4.234289   3.040502   2.466950   3.594315   4.520699
    34  H    5.515312   6.839590   7.302363   6.418131   5.135954
    35  H    6.713622   8.009063   8.764860   8.131495   6.750257
    36  H    7.337783   8.439738   9.523182   9.306633   7.920217
    37  H    6.378983   7.199095   8.448009   8.588981   7.336788
    38  H    5.933637   6.303407   7.633680   8.171767   7.191241
    39  H    6.201089   6.031943   7.288392   8.194016   7.580747
    40  H    4.894271   4.257255   5.332872   6.464443   6.220864
    41  H    2.660085   1.970840   3.147794   4.183635   3.939576
    42  H    3.282745   3.276682   2.255175   1.079062   2.183491
    43  H    3.398150   4.385978   4.220442   2.986768   2.198145
    44  H    3.638465   4.950691   5.364457   4.499127   3.187384
    45  H    4.065647   3.011594   2.714814   3.706323   4.414931
    46  H    7.138316   5.804387   5.397498   6.611554   7.590333
                   21         22         23         24         25
    21  C    0.000000
    22  C    1.369098   0.000000
    23  C    2.533372   1.437193   0.000000
    24  C    3.824799   2.542767   1.400470   0.000000
    25  C    4.984390   5.784170   5.733753   6.959470   0.000000
    26  C    5.865850   6.595295   6.414271   7.546058   1.398879
    27  N    7.224448   7.923230   7.655733   8.720760   2.483088
    28  C    7.878163   8.585196   8.315825   9.384578   2.909380
    29  C    7.305990   8.013833   7.801142   8.902668   2.523569
    30  N    8.139714   8.816964   8.603831   9.668890   3.679279
    31  S    7.408581   8.044041   7.914562   8.978007   3.814088
    32  N    5.780912   6.459131   6.399962   7.546589   2.478242
    33  C    5.839383   6.577972   6.469125   7.642352   1.412988
    34  H    3.893856   2.980442   3.689911   3.664570   8.706410
    35  H    5.724549   4.529116   4.489245   3.661640  10.095080
    36  H    7.301195   5.932703   5.129807   3.763679  10.651604
    37  H    7.153417   5.892554   4.637992   3.354981   9.346421
    38  H    7.481478   6.497127   5.064313   4.289785   8.194504
    39  H    8.273024   7.621940   6.250540   5.961997   7.413424
    40  H    7.231174   6.981686   5.854079   6.140177   5.159076
    41  H    5.029404   4.989934   4.116321   4.835319   3.350850
    42  H    2.916566   4.216664   4.983989   6.382129   3.254308
    43  H    1.083433   2.131819   3.486678   4.668564   5.606109
    44  H    1.979757   1.074655   2.217924   2.887584   6.774927
    45  H    5.665081   6.338925   6.138034   7.220624   2.157272
    46  H    8.955418   9.653942   9.348871  10.381664   3.985380
                   26         27         28         29         30
    26  C    0.000000
    27  N    1.371794   0.000000
    28  C    2.372876   1.364311   0.000000
    29  C    2.723940   2.378961   1.408735   0.000000
    30  N    4.058856   3.650867   2.457171   1.341944   0.000000
    31  S    4.681295   4.725066   3.797986   2.409460   1.660091
    32  N    3.637919   4.133597   3.669511   2.370385   2.556105
    33  C    2.347687   2.806140   2.521262   1.503356   2.381328
    34  H    9.568593  10.900135  11.525466  10.864849  11.551916
    35  H   10.675437  11.944689  12.729741  12.275432  13.081268
    36  H   11.181909  12.271242  12.899690  12.410000  13.063860
    37  H    9.715087  10.637231  11.220323  10.833014  11.479758
    38  H    8.383548   9.063045   9.539785   9.259020   9.857862
    39  H    7.375441   7.715366   8.035533   7.904985   8.428285
    40  H    5.051097   5.287984   5.548193   5.458604   6.070497
    41  H    3.615177   4.391213   4.856459   4.542399   5.384134
    42  H    4.216058   5.466732   5.998976   5.466919   6.330705
    43  H    6.508757   7.868030   8.513270   7.929521   8.738940
    44  H    7.612707   8.953162   9.610025   9.007007   9.773761
    45  H    1.092615   2.062632   3.308683   3.804132   5.139620
    46  H    3.338567   2.102622   1.080855   2.200448   2.813788
                   31         32         33         34         35
    31  S    0.000000
    32  N    1.658568   0.000000
    33  C    2.418995   1.346937   0.000000
    34  H   10.577181   9.082266   9.400771   0.000000
    35  H   12.302407  10.797385  10.919394   2.820493   0.000000
    36  H   12.287373  11.009938  11.226073   5.056211   3.259038
    37  H   10.891554   9.736748   9.837712   6.256086   4.971129
    38  H    9.496429   8.547569   8.528863   7.816695   7.061814
    39  H    8.373754   7.715872   7.542453   9.559308   9.196969
    40  H    6.216124   5.574933   5.215936   9.478316   9.715111
    41  H    5.256430   4.100017   3.737516   7.736606   8.416024
    42  H    5.840140   4.297385   4.110301   6.704443   8.613682
    43  H    7.971174   6.367423   6.457245   3.870212   5.968392
    44  H    8.921635   7.355945   7.548324   1.969402   3.886466
    45  H    5.720659   4.562253   3.345695   9.294791  10.198121
    46  H    4.382755   4.567215   3.528597  12.597848  13.755470
                   36         37         38         39         40
    36  H    0.000000
    37  H    2.507209   0.000000
    38  H    5.010500   2.525966   0.000000
    39  H    7.447559   4.989887   2.474198   0.000000
    40  H    8.696593   6.491441   4.300320   2.488356   0.000000
    41  H    8.108760   6.368512   4.890423   4.154401   2.302894
    42  H   10.057167   9.513489   9.214854   9.272519   7.508444
    43  H    7.912525   8.022104   8.510425   9.355638   8.284827
    44  H    5.717640   6.131228   7.101790   8.453237   7.979673
    45  H   10.820648   9.391156   8.160771   7.298115   5.143761
    46  H   13.842193  12.075854  10.272720   8.589600   6.129078
                   41         42         43         44         45
    41  H    0.000000
    42  H    5.242811   0.000000
    43  H    6.054207   2.958927   0.000000
    44  H    6.042021   4.874995   2.244005   0.000000
    45  H    3.685357   4.296906   6.312311   7.342613   0.000000
    46  H    5.748978   7.027160   9.584390  10.683383   4.162781
                   46
    46  H    0.000000
 Stoichiometry    C27H13N3O2S
 Framework group  C1[X(C27H13N3O2S)]
 Deg. of freedom   132
 Full point group                 C1      NOp   1
 Largest Abelian subgroup         C1      NOp   1
 Largest concise Abelian subgroup C1      NOp   1
                         Standard orientation:                         
 ---------------------------------------------------------------------
 Center     Atomic      Atomic             Coordinates (Angstroms)
 Number     Number       Type             X           Y           Z
 ---------------------------------------------------------------------
      1          6           0       -5.313554   -2.082377    1.058139
      2          8           0       -4.917423   -2.284176   -0.585693
      3          6           0       -5.576043   -1.107044   -0.678957
      4          6           0       -4.580544   -0.666609    0.285621
      5          6           0       -5.663800   -0.533616    1.044247
      6          6           0       -5.813375    1.094987    0.800227
      7          6           0       -4.745181    2.030678    0.349016
      8          6           0       -3.444637    1.542263    0.105238
      9          6           0       -2.149881    2.256573   -0.058729
     10          6           0       -1.928464    3.675782   -0.060401
     11          6           0       -0.642497    4.246260   -0.221268
     12          6           0        0.458084    3.440293   -0.370516
     13          6           0        0.274008    2.081111   -0.361247
     14          6           0       -0.991674    1.455575   -0.217321
     15          6           0       -1.064328    0.024919   -0.226605
     16          6           0        0.013012   -0.859058   -0.382458
     17          8           0        1.268198   -0.440559   -0.572649
     18          6           0        2.090575   -1.483139   -0.666342
     19          6           0        1.375010   -2.652170   -0.572651
     20          6           0        0.036639   -2.240902   -0.394571
     21          6           0       -1.135239   -2.927786   -0.220179
     22          6           0       -2.205077   -2.102544    0.000842
     23          6           0       -2.271686   -0.668627   -0.069648
     24          6           0       -3.417055    0.132755    0.015392
     25          6           0        3.401786   -0.960977   -0.845648
     26          6           0        3.823400   -0.381755   -2.047149
     27          7           0        4.994924    0.293201   -2.279061
     28          6           0        5.872574    0.518468   -1.259096
     29          6           0        5.485549    0.149985    0.044348
     30          7           0        6.179531    0.359516    1.173640
     31         16           0        5.228115   -0.197844    2.414631
     32          7           0        3.913965   -0.755599    1.570377
     33          6           0        4.188194   -0.577203    0.263773
     34          1           0       -4.838104   -3.107095    0.970936
     35          1           0       -6.671130   -1.485623   -0.431211
     36          1           0       -6.824919    1.538253    0.774546
     37          1           0       -4.931230    3.112655    0.304121
     38          1           0       -2.755338    4.371020    0.054094
     39          1           0       -0.488158    5.319886   -0.230864
     40          1           0        1.472847    3.811068   -0.495145
     41          1           0        1.187475    1.526043   -0.471804
     42          1           0        1.652780   -3.694465   -0.601636
     43          1           0       -1.264231   -4.003491   -0.213315
     44          1           0       -3.048924   -2.722172    0.243466
     45          1           0        3.160327   -0.402417   -2.915317
     46          1           0        6.818856    0.984839   -1.494250
 ---------------------------------------------------------------------
 Rotational constants (GHZ):      0.2671651      0.0718401      0.0633880
 Standard basis: 6-31++G(d,p) (6D, 7F)
 There are   709 symmetry adapted basis functions of A   symmetry.
 Integral buffers will be    131072 words long.
 Raffenetti 2 integral format.
 Two-electron integral symmetry is turned on.
   709 basis functions,  1184 primitive gaussians,   709 cartesian basis functions
   114 alpha electrons      114 beta electrons
       nuclear repulsion energy      3206.9550605491 Hartrees.
 NAtoms=   46 NActive=   46 NUniq=   46 SFac= 1.00D+00 NAtFMM=   60 NAOKFM=F Big=F
 One-electron integrals computed using PRISM.
 NBasis=   709 RedAO= T  NBF=   709
 NBsUse=   695 1.00D-06 NBFU=   695
 Harris functional with IExCor=  402 diagonalized for initial guess.
 ExpMin= 3.60D-02 ExpMax= 2.19D+04 ExpMxC= 3.30D+03 IAcc=3 IRadAn=         5 AccDes= 0.00D+00
 HarFok:  IExCor=  402 AccDes= 0.00D+00 IRadAn=         5 IDoV= 1
 ScaDFX=  1.000000  1.000000  1.000000  1.000000
 FoFCou: FMM=F IPFlag=           0 FMFlag=      100000 FMFlg1=           0
         NFxFlg=           0 DoJE=T BraDBF=F KetDBF=T FulRan=T
         Omega=  0.000000  0.000000  1.000000  0.000000  0.000000 ICntrl=     500 IOpCl=  0
         NMat0=    1 NMatS0=    1 NMatT0=    0 NMatD0=    1 NMtDS0=    0 NMtDT0=    0
         I1Cent=           4 NGrid=           0.
 Petite list used in FoFCou.
 Initial guess orbital symmetries:
       Occupied  (A) (A) (A) (A) (A) (A) (A) (A) (A) (A) (A) (A)
                 (A) (A) (A) (A) (A) (A) (A) (A) (A) (A) (A) (A)
                 (A) (A) (A) (A) (A) (A) (A) (A) (A) (A) (A) (A)
                 (A) (A) (A) (A) (A) (A) (A) (A) (A) (A) (A) (A)
                 (A) (A) (A) (A) (A) (A) (A) (A) (A) (A) (A) (A)
                 (A) (A) (A) (A) (A) (A) (A) (A) (A) (A) (A) (A)
                 (A) (A) (A) (A) (A) (A) (A) (A) (A) (A) (A) (A)
                 (A) (A) (A) (A) (A) (A) (A) (A) (A) (A) (A) (A)
                 (A) (A) (A) (A) (A) (A) (A) (A) (A) (A) (A) (A)
                 (A) (A) (A) (A) (A) (A)
       Virtual   (A) (A) (A) (A) (A) (A) (A) (A) (A) (A) (A) (A)
                 (A) (A) (A) (A) (A) (A) (A) (A) (A) (A) (A) (A)
                 (A) (A) (A) (A) (A) (A) (A) (A) (A) (A) (A) (A)
                 (A) (A) (A) (A) (A) (A) (A) (A) (A) (A) (A) (A)
                 (A) (A) (A) (A) (A) (A) (A) (A) (A) (A) (A) (A)
                 (A) (A) (A) (A) (A) (A) (A) (A) (A) (A) (A) (A)
                 (A) (A) (A) (A) (A) (A) (A) (A) (A) (A) (A) (A)
                 (A) (A) (A) (A) (A) (A) (A) (A) (A) (A) (A) (A)
                 (A) (A) (A) (A) (A) (A) (A) (A) (A) (A) (A) (A)
                 (A) (A) (A) (A) (A) (A) (A) (A) (A) (A) (A) (A)
                 (A) (A) (A) (A) (A) (A) (A) (A) (A) (A) (A) (A)
                 (A) (A) (A) (A) (A) (A) (A) (A) (A) (A) (A) (A)
                 (A) (A) (A) (A) (A) (A) (A) (A) (A) (A) (A) (A)
                 (A) (A) (A) (A) (A) (A) (A) (A) (A) (A) (A) (A)
                 (A) (A) (A) (A) (A) (A) (A) (A) (A) (A) (A) (A)
                 (A) (A) (A) (A) (A) (A) (A) (A) (A) (A) (A) (A)
                 (A) (A) (A) (A) (A) (A) (A) (A) (A) (A) (A) (A)
                 (A) (A) (A) (A) (A) (A) (A) (A) (A) (A) (A) (A)
                 (A) (A) (A) (A) (A) (A) (A) (A) (A) (A) (A) (A)
                 (A) (A) (A) (A) (A) (A) (A) (A) (A) (A) (A) (A)
                 (A) (A) (A) (A) (A) (A) (A) (A) (A) (A) (A) (A)
                 (A) (A) (A) (A) (A) (A) (A) (A) (A) (A) (A) (A)
                 (A) (A) (A) (A) (A) (A) (A) (A) (A) (A) (A) (A)
                 (A) (A) (A) (A) (A) (A) (A) (A) (A) (A) (A) (A)
                 (A) (A) (A) (A) (A) (A) (A) (A) (A) (A) (A) (A)
                 (A) (A) (A) (A) (A) (A) (A) (A) (A) (A) (A) (A)
                 (A) (A) (A) (A) (A) (A) (A) (A) (A) (A) (A) (A)
                 (A) (A) (A) (A) (A) (A) (A) (A) (A) (A) (A) (A)
                 (A) (A) (A) (A) (A) (A) (A) (A) (A) (A) (A) (A)
                 (A) (A) (A) (A) (A) (A) (A) (A) (A) (A) (A) (A)
                 (A) (A) (A) (A) (A) (A) (A) (A) (A) (A) (A) (A)
                 (A) (A) (A) (A) (A) (A) (A) (A) (A) (A) (A) (A)
                 (A) (A) (A) (A) (A) (A) (A) (A) (A) (A) (A) (A)
                 (A) (A) (A) (A) (A) (A) (A) (A) (A) (A) (A) (A)
                 (A) (A) (A) (A) (A) (A) (A) (A) (A) (A) (A) (A)
                 (A) (A) (A) (A) (A) (A) (A) (A) (A) (A) (A) (A)
                 (A) (A) (A) (A) (A) (A) (A) (A) (A) (A) (A) (A)
                 (A) (A) (A) (A) (A) (A) (A) (A) (A) (A) (A) (A)
                 (A) (A) (A) (A) (A) (A) (A) (A) (A) (A) (A) (A)
                 (A) (A) (A) (A) (A) (A) (A) (A) (A) (A) (A) (A)
                 (A) (A) (A) (A) (A) (A) (A) (A) (A) (A) (A) (A)
                 (A) (A) (A) (A) (A) (A) (A) (A) (A) (A) (A) (A)
                 (A) (A) (A) (A) (A) (A) (A) (A) (A) (A) (A) (A)
                 (A) (A) (A) (A) (A) (A) (A) (A) (A) (A) (A) (A)
                 (A) (A) (A) (A) (A) (A) (A) (A) (A) (A) (A) (A)
                 (A) (A) (A) (A) (A) (A) (A) (A) (A) (A) (A) (A)
                 (A) (A) (A) (A) (A) (A) (A) (A) (A) (A) (A) (A)
                 (A) (A) (A) (A) (A) (A) (A) (A) (A) (A) (A) (A)
                 (A) (A) (A) (A) (A)
 The electronic state of the initial guess is 1-A.
 Requested convergence on RMS density matrix=1.00D-08 within 128 cycles.
 Requested convergence on MAX density matrix=1.00D-06.
 Requested convergence on             energy=1.00D-06.
 No special actions if energy rises.
 EnCoef did     2 forward-backward iterations
 EnCoef did     2 forward-backward iterations
 EnCoef did     2 forward-backward iterations
 Restarting incremental Fock formation.
 SCF Done:  E(RB3LYP) =  -1748.97630830     A.U. after   25 cycles
             Convg  =    0.4900D-08             -V/T =  2.0075

 **********************************************************************

            Population analysis using the SCF density.

 **********************************************************************

 Orbital symmetries:
       Occupied  (A) (A) (A) (A) (A) (A) (A) (A) (A) (A) (A) (A)
                 (A) (A) (A) (A) (A) (A) (A) (A) (A) (A) (A) (A)
                 (A) (A) (A) (A) (A) (A) (A) (A) (A) (A) (A) (A)
                 (A) (A) (A) (A) (A) (A) (A) (A) (A) (A) (A) (A)
                 (A) (A) (A) (A) (A) (A) (A) (A) (A) (A) (A) (A)
                 (A) (A) (A) (A) (A) (A) (A) (A) (A) (A) (A) (A)
                 (A) (A) (A) (A) (A) (A) (A) (A) (A) (A) (A) (A)
                 (A) (A) (A) (A) (A) (A) (A) (A) (A) (A) (A) (A)
                 (A) (A) (A) (A) (A) (A) (A) (A) (A) (A) (A) (A)
                 (A) (A) (A) (A) (A) (A)
       Virtual   (A) (A) (A) (A) (A) (A) (A) (A) (A) (A) (A) (A)
                 (A) (A) (A) (A) (A) (A) (A) (A) (A) (A) (A) (A)
                 (A) (A) (A) (A) (A) (A) (A) (A) (A) (A) (A) (A)
                 (A) (A) (A) (A) (A) (A) (A) (A) (A) (A) (A) (A)
                 (A) (A) (A) (A) (A) (A) (A) (A) (A) (A) (A) (A)
                 (A) (A) (A) (A) (A) (A) (A) (A) (A) (A) (A) (A)
                 (A) (A) (A) (A) (A) (A) (A) (A) (A) (A) (A) (A)
                 (A) (A) (A) (A) (A) (A) (A) (A) (A) (A) (A) (A)
                 (A) (A) (A) (A) (A) (A) (A) (A) (A) (A) (A) (A)
                 (A) (A) (A) (A) (A) (A) (A) (A) (A) (A) (A) (A)
                 (A) (A) (A) (A) (A) (A) (A) (A) (A) (A) (A) (A)
                 (A) (A) (A) (A) (A) (A) (A) (A) (A) (A) (A) (A)
                 (A) (A) (A) (A) (A) (A) (A) (A) (A) (A) (A) (A)
                 (A) (A) (A) (A) (A) (A) (A) (A) (A) (A) (A) (A)
                 (A) (A) (A) (A) (A) (A) (A) (A) (A) (A) (A) (A)
                 (A) (A) (A) (A) (A) (A) (A) (A) (A) (A) (A) (A)
                 (A) (A) (A) (A) (A) (A) (A) (A) (A) (A) (A) (A)
                 (A) (A) (A) (A) (A) (A) (A) (A) (A) (A) (A) (A)
                 (A) (A) (A) (A) (A) (A) (A) (A) (A) (A) (A) (A)
                 (A) (A) (A) (A) (A) (A) (A) (A) (A) (A) (A) (A)
                 (A) (A) (A) (A) (A) (A) (A) (A) (A) (A) (A) (A)
                 (A) (A) (A) (A) (A) (A) (A) (A) (A) (A) (A) (A)
                 (A) (A) (A) (A) (A) (A) (A) (A) (A) (A) (A) (A)
                 (A) (A) (A) (A) (A) (A) (A) (A) (A) (A) (A) (A)
                 (A) (A) (A) (A) (A) (A) (A) (A) (A) (A) (A) (A)
                 (A) (A) (A) (A) (A) (A) (A) (A) (A) (A) (A) (A)
                 (A) (A) (A) (A) (A) (A) (A) (A) (A) (A) (A) (A)
                 (A) (A) (A) (A) (A) (A) (A) (A) (A) (A) (A) (A)
                 (A) (A) (A) (A) (A) (A) (A) (A) (A) (A) (A) (A)
                 (A) (A) (A) (A) (A) (A) (A) (A) (A) (A) (A) (A)
                 (A) (A) (A) (A) (A) (A) (A) (A) (A) (A) (A) (A)
                 (A) (A) (A) (A) (A) (A) (A) (A) (A) (A) (A) (A)
                 (A) (A) (A) (A) (A) (A) (A) (A) (A) (A) (A) (A)
                 (A) (A) (A) (A) (A) (A) (A) (A) (A) (A) (A) (A)
                 (A) (A) (A) (A) (A) (A) (A) (A) (A) (A) (A) (A)
                 (A) (A) (A) (A) (A) (A) (A) (A) (A) (A) (A) (A)
                 (A) (A) (A) (A) (A) (A) (A) (A) (A) (A) (A) (A)
                 (A) (A) (A) (A) (A) (A) (A) (A) (A) (A) (A) (A)
                 (A) (A) (A) (A) (A) (A) (A) (A) (A) (A) (A) (A)
                 (A) (A) (A) (A) (A) (A) (A) (A) (A) (A) (A) (A)
                 (A) (A) (A) (A) (A) (A) (A) (A) (A) (A) (A) (A)
                 (A) (A) (A) (A) (A) (A) (A) (A) (A) (A) (A) (A)
                 (A) (A) (A) (A) (A) (A) (A) (A) (A) (A) (A) (A)
                 (A) (A) (A) (A) (A) (A) (A) (A) (A) (A) (A) (A)
                 (A) (A) (A) (A) (A) (A) (A) (A) (A) (A) (A) (A)
                 (A) (A) (A) (A) (A) (A) (A) (A) (A) (A) (A) (A)
                 (A) (A) (A) (A) (A) (A) (A) (A) (A) (A) (A) (A)
                 (A) (A) (A) (A) (A) (A) (A) (A) (A) (A) (A) (A)
                 (A) (A) (A) (A) (A)
 The electronic state is 1-A.
 Alpha  occ. eigenvalues --  -89.00549 -19.23284 -19.14416 -14.40688 -14.40081
 Alpha  occ. eigenvalues --  -14.37436 -10.30118 -10.28021 -10.27563 -10.27158
 Alpha  occ. eigenvalues --  -10.27061 -10.26364 -10.26261 -10.26098 -10.26012
 Alpha  occ. eigenvalues --  -10.25538 -10.25222 -10.24487 -10.24381 -10.23210
 Alpha  occ. eigenvalues --  -10.23173 -10.23125 -10.22006 -10.21880 -10.21595
 Alpha  occ. eigenvalues --  -10.21515 -10.20853 -10.20804 -10.20418 -10.20042
 Alpha  occ. eigenvalues --  -10.19845 -10.19496 -10.19446  -8.05796  -6.02353
 Alpha  occ. eigenvalues --   -6.01766  -6.01568  -1.15807  -1.09745  -1.03989
 Alpha  occ. eigenvalues --   -0.96036  -0.92221  -0.91834  -0.89751  -0.87389
 Alpha  occ. eigenvalues --   -0.85020  -0.84540  -0.82494  -0.80284  -0.78908
 Alpha  occ. eigenvalues --   -0.77696  -0.76496  -0.74854  -0.72895  -0.69571
 Alpha  occ. eigenvalues --   -0.69396  -0.67251  -0.65399  -0.65193  -0.64592
 Alpha  occ. eigenvalues --   -0.63669  -0.62065  -0.60725  -0.59944  -0.58266
 Alpha  occ. eigenvalues --   -0.56019  -0.54934  -0.54614  -0.54141  -0.53598
 Alpha  occ. eigenvalues --   -0.52723  -0.51505  -0.49731  -0.49604  -0.49231
 Alpha  occ. eigenvalues --   -0.48465  -0.48334  -0.47386  -0.47001  -0.46386
 Alpha  occ. eigenvalues --   -0.44940  -0.44543  -0.43779  -0.43466  -0.43245
 Alpha  occ. eigenvalues --   -0.42082  -0.41491  -0.40991  -0.40919  -0.40034
 Alpha  occ. eigenvalues --   -0.39955  -0.39350  -0.38831  -0.38113  -0.37124
 Alpha  occ. eigenvalues --   -0.36528  -0.36457  -0.35360  -0.35060  -0.34261
 Alpha  occ. eigenvalues --   -0.33863  -0.33188  -0.32546  -0.30913  -0.30283
 Alpha  occ. eigenvalues --   -0.29442  -0.28297  -0.27288  -0.27133  -0.26113
 Alpha  occ. eigenvalues --   -0.23551  -0.22472  -0.19282  -0.17202
 Alpha virt. eigenvalues --   -0.12743  -0.10000  -0.07102  -0.05546  -0.05068
 Alpha virt. eigenvalues --   -0.04522  -0.03977  -0.03452  -0.02463  -0.02308
 Alpha virt. eigenvalues --   -0.01247  -0.00934  -0.00494  -0.00035   0.00588
 Alpha virt. eigenvalues --    0.01007   0.01299   0.01427   0.01614   0.01851
 Alpha virt. eigenvalues --    0.01995   0.02444   0.02864   0.03275   0.03327
 Alpha virt. eigenvalues --    0.04155   0.04359   0.04764   0.05285   0.05420
 Alpha virt. eigenvalues --    0.05660   0.05891   0.06181   0.06590   0.06808
 Alpha virt. eigenvalues --    0.06994   0.07424   0.07721   0.08172   0.08279
 Alpha virt. eigenvalues --    0.08671   0.08910   0.09193   0.09324   0.09475
 Alpha virt. eigenvalues --    0.09689   0.09803   0.09922   0.10133   0.10636
 Alpha virt. eigenvalues --    0.10892   0.11057   0.11410   0.11583   0.11802
 Alpha virt. eigenvalues --    0.11917   0.12120   0.12367   0.12486   0.12544
 Alpha virt. eigenvalues --    0.12577   0.12814   0.13176   0.13349   0.13593
 Alpha virt. eigenvalues --    0.13838   0.14224   0.14360   0.14535   0.14851
 Alpha virt. eigenvalues --    0.15094   0.15322   0.15583   0.15874   0.16160
 Alpha virt. eigenvalues --    0.16420   0.16623   0.17129   0.17347   0.17562
 Alpha virt. eigenvalues --    0.17902   0.17978   0.18108   0.18479   0.18550
 Alpha virt. eigenvalues --    0.18787   0.19186   0.19230   0.19337   0.19644
 Alpha virt. eigenvalues --    0.20088   0.20184   0.20415   0.20590   0.20988
 Alpha virt. eigenvalues --    0.21189   0.21282   0.21737   0.21865   0.22000
 Alpha virt. eigenvalues --    0.22309   0.22371   0.22905   0.22988   0.23095
 Alpha virt. eigenvalues --    0.23366   0.23514   0.23661   0.23832   0.24045
 Alpha virt. eigenvalues --    0.24377   0.24406   0.24830   0.24942   0.25198
 Alpha virt. eigenvalues --    0.25442   0.25683   0.25954   0.26255   0.26428
 Alpha virt. eigenvalues --    0.26722   0.26817   0.27132   0.27417   0.27657
 Alpha virt. eigenvalues --    0.27950   0.28118   0.28529   0.28684   0.28783
 Alpha virt. eigenvalues --    0.29082   0.29326   0.29618   0.29705   0.30164
 Alpha virt. eigenvalues --    0.30336   0.30664   0.31154   0.31345   0.31697
 Alpha virt. eigenvalues --    0.31767   0.31986   0.32152   0.32412   0.32517
 Alpha virt. eigenvalues --    0.32794   0.33052   0.33135   0.33512   0.33746
 Alpha virt. eigenvalues --    0.33907   0.34164   0.34883   0.35171   0.35520
 Alpha virt. eigenvalues --    0.35703   0.36003   0.36069   0.36746   0.36959
 Alpha virt. eigenvalues --    0.37040   0.37292   0.37328   0.37620   0.37903
 Alpha virt. eigenvalues --    0.38576   0.39141   0.39491   0.39861   0.40074
 Alpha virt. eigenvalues --    0.40538   0.41291   0.41540   0.41994   0.42307
 Alpha virt. eigenvalues --    0.42994   0.43447   0.43673   0.44298   0.45007
 Alpha virt. eigenvalues --    0.45460   0.46216   0.46522   0.46731   0.47834
 Alpha virt. eigenvalues --    0.48483   0.48793   0.49450   0.50040   0.50330
 Alpha virt. eigenvalues --    0.51560   0.52018   0.53142   0.54299   0.55425
 Alpha virt. eigenvalues --    0.56419   0.57617   0.59707   0.61884   0.62403
 Alpha virt. eigenvalues --    0.63898   0.64738   0.65793   0.66177   0.66857
 Alpha virt. eigenvalues --    0.67108   0.67865   0.68205   0.68633   0.69711
 Alpha virt. eigenvalues --    0.70094   0.70235   0.70482   0.71130   0.72197
 Alpha virt. eigenvalues --    0.72448   0.73074   0.73530   0.73935   0.74088
 Alpha virt. eigenvalues --    0.74324   0.74723   0.74919   0.75021   0.75363
 Alpha virt. eigenvalues --    0.75762   0.76211   0.76368   0.76553   0.77199
 Alpha virt. eigenvalues --    0.78034   0.78180   0.79487   0.79689   0.80488
 Alpha virt. eigenvalues --    0.80876   0.81144   0.82013   0.82442   0.82883
 Alpha virt. eigenvalues --    0.83145   0.83837   0.84128   0.84588   0.85216
 Alpha virt. eigenvalues --    0.86053   0.86615   0.86791   0.87515   0.88480
 Alpha virt. eigenvalues --    0.89247   0.90498   0.90620   0.91075   0.91903
 Alpha virt. eigenvalues --    0.92128   0.92708   0.93220   0.93806   0.94549
 Alpha virt. eigenvalues --    0.95013   0.95336   0.95834   0.96699   0.97035
 Alpha virt. eigenvalues --    0.97325   0.98108   0.98700   0.99994   1.00478
 Alpha virt. eigenvalues --    1.01093   1.01137   1.02399   1.02958   1.03235
 Alpha virt. eigenvalues --    1.03568   1.03978   1.04217   1.04536   1.05791
 Alpha virt. eigenvalues --    1.06770   1.08176   1.08542   1.09737   1.10089
 Alpha virt. eigenvalues --    1.10989   1.11259   1.12332   1.12631   1.13376
 Alpha virt. eigenvalues --    1.14307   1.14797   1.15713   1.15924   1.16354
 Alpha virt. eigenvalues --    1.17062   1.17422   1.17988   1.18296   1.18818
 Alpha virt. eigenvalues --    1.20077   1.20164   1.20503   1.21178   1.21297
 Alpha virt. eigenvalues --    1.21881   1.22882   1.23376   1.23675   1.23704
 Alpha virt. eigenvalues --    1.23855   1.24380   1.25458   1.25755   1.26924
 Alpha virt. eigenvalues --    1.27122   1.27909   1.28782   1.29391   1.29589
 Alpha virt. eigenvalues --    1.30182   1.31121   1.31716   1.31867   1.32630
 Alpha virt. eigenvalues --    1.33472   1.34063   1.34585   1.34915   1.35555
 Alpha virt. eigenvalues --    1.35888   1.36524   1.37109   1.37865   1.38648
 Alpha virt. eigenvalues --    1.39702   1.40364   1.40845   1.41446   1.42784
 Alpha virt. eigenvalues --    1.42865   1.43702   1.44096   1.45016   1.46680
 Alpha virt. eigenvalues --    1.47603   1.48125   1.49003   1.49821   1.50567
 Alpha virt. eigenvalues --    1.51717   1.51883   1.52927   1.53641   1.55245
 Alpha virt. eigenvalues --    1.55532   1.56606   1.58316   1.59551   1.60986
 Alpha virt. eigenvalues --    1.63912   1.65201   1.65575   1.66254   1.67421
 Alpha virt. eigenvalues --    1.69259   1.69650   1.70355   1.71625   1.72861
 Alpha virt. eigenvalues --    1.73408   1.74012   1.74736   1.75192   1.75937
 Alpha virt. eigenvalues --    1.76610   1.78073   1.78658   1.79933   1.80971
 Alpha virt. eigenvalues --    1.82000   1.82338   1.83373   1.83912   1.84486
 Alpha virt. eigenvalues --    1.85271   1.85524   1.86358   1.87001   1.87939
 Alpha virt. eigenvalues --    1.88939   1.90535   1.91356   1.91637   1.92152
 Alpha virt. eigenvalues --    1.93000   1.93775   1.94605   1.94976   1.95898
 Alpha virt. eigenvalues --    1.96575   1.97616   1.99244   1.99698   1.99839
 Alpha virt. eigenvalues --    2.00675   2.01528   2.01975   2.03226   2.03436
 Alpha virt. eigenvalues --    2.04062   2.05272   2.06038   2.06656   2.07062
 Alpha virt. eigenvalues --    2.08106   2.08851   2.10378   2.11921   2.12708
 Alpha virt. eigenvalues --    2.13340   2.13869   2.15915   2.16746   2.16977
 Alpha virt. eigenvalues --    2.18425   2.19467   2.20637   2.21319   2.22379
 Alpha virt. eigenvalues --    2.23213   2.23305   2.24435   2.24902   2.26272
 Alpha virt. eigenvalues --    2.26532   2.27408   2.28860   2.29386   2.30730
 Alpha virt. eigenvalues --    2.30851   2.31730   2.32886   2.34249   2.34631
 Alpha virt. eigenvalues --    2.35781   2.36026   2.37672   2.37868   2.38797
 Alpha virt. eigenvalues --    2.39685   2.40203   2.40824   2.41177   2.42000
 Alpha virt. eigenvalues --    2.42855   2.43270   2.43887   2.44073   2.45001
 Alpha virt. eigenvalues --    2.45475   2.47069   2.47686   2.48129   2.48799
 Alpha virt. eigenvalues --    2.49337   2.50146   2.50664   2.51461   2.52340
 Alpha virt. eigenvalues --    2.52816   2.53824   2.54604   2.55031   2.56117
 Alpha virt. eigenvalues --    2.56482   2.57436   2.58460   2.58689   2.59291
 Alpha virt. eigenvalues --    2.60134   2.61190   2.61393   2.62350   2.62514
 Alpha virt. eigenvalues --    2.63123   2.63791   2.64882   2.65349   2.66638
 Alpha virt. eigenvalues --    2.67296   2.68447   2.68938   2.69710   2.70972
 Alpha virt. eigenvalues --    2.72066   2.72273   2.74375   2.75733   2.76859
 Alpha virt. eigenvalues --    2.77956   2.78672   2.80076   2.81076   2.82678
 Alpha virt. eigenvalues --    2.83058   2.83892   2.86304   2.86446   2.88354
 Alpha virt. eigenvalues --    2.89269   2.90885   2.92039   2.93375   2.95579
 Alpha virt. eigenvalues --    2.96283   2.97962   3.00605   3.01929   3.05787
 Alpha virt. eigenvalues --    3.08094   3.09051   3.11422   3.13545   3.15024
 Alpha virt. eigenvalues --    3.18394   3.19255   3.20094   3.20894   3.21981
 Alpha virt. eigenvalues --    3.23232   3.26650   3.27592   3.31775   3.32813
 Alpha virt. eigenvalues --    3.33852   3.38580   3.41515   3.42409   3.44983
 Alpha virt. eigenvalues --    3.48556   3.51902   3.54653   3.58270   3.60420
 Alpha virt. eigenvalues --    3.68045   3.78111   3.87246   3.95099   4.10145
 Alpha virt. eigenvalues --    4.22612   4.26211   4.26757   4.30605   4.32675
 Alpha virt. eigenvalues --    4.33534   4.35461   4.38241   4.39946   4.41348
 Alpha virt. eigenvalues --    4.42678   4.44784   4.47006   4.48192   4.48632
 Alpha virt. eigenvalues --    4.50765   4.51676   4.53663   4.55193   4.56712
 Alpha virt. eigenvalues --    4.58506   4.59898   4.62611   4.71875   4.73471
 Alpha virt. eigenvalues --    4.75126   4.78066   4.80055   4.88487   4.96562
 Alpha virt. eigenvalues --    5.05085
          Condensed to atoms (all electrons):
              1          2          3          4          5          6
     1  C   15.510361   0.338197   1.507145  -3.717301  -3.031331  -2.544235
     2  O    0.338197   9.189506  -0.041971  -0.665766  -0.113418  -0.039153
     3  C    1.507145  -0.041971   7.773420  -0.769633  -1.672673   0.180146
     4  C   -3.717301  -0.665766  -0.769633  17.182399  -4.417909   0.469232
     5  C   -3.031331  -0.113418  -1.672673  -4.417909  17.581541   0.074991
     6  C   -2.544235  -0.039153   0.180146   0.469232   0.074991   8.270093
     7  C   -0.228236   0.004971  -0.323494   1.115533   0.361683   0.563892
     8  C    0.052650   0.154606   0.531149  -1.309318  -0.833670  -0.467181
     9  C    0.089869   0.049043   0.186773  -0.251622  -0.491968   0.132720
    10  C    0.024583   0.004315   0.027910  -0.144416   0.002528  -0.105675
    11  C   -0.036644  -0.000698  -0.010881  -0.268951  -0.005397  -0.230180
    12  C    0.019973   0.000848   0.006436   0.167701   0.045507   0.009019
    13  C   -0.011674  -0.009757  -0.058035   0.574223   0.096371   0.022990
    14  C    0.301496   0.045569   0.127557  -0.081754  -0.078641  -0.087705
    15  C   -0.525363  -0.126662  -0.070772   0.199936  -0.018664   0.337865
    16  C   -0.022734   0.019217  -0.140508  -1.093620   0.169173  -0.188662
    17  O   -0.002850  -0.000046  -0.000152   0.001173   0.000141   0.000102
    18  C   -0.074137  -0.013502  -0.030388  -0.354656   0.014194  -0.014316
    19  C   -0.075450  -0.025818  -0.046572   0.045714   0.015545  -0.005834
    20  C   -0.449261  -0.246133  -0.263319   0.148392   0.058050  -0.012046
    21  C   -1.438289  -0.603151  -0.581618   0.966070   0.819183   0.088597
    22  C   -1.115526  -0.487489  -0.932495   1.077969   0.970265   0.110849
    23  C    0.845554   0.562621   0.075556  -3.055960  -1.155026  -0.642165
    24  C    0.650483   0.531687   0.576937  -1.308664  -1.483677   0.332414
    25  C   -0.008263  -0.001293  -0.003415   0.018385   0.006866   0.000740
    26  C    0.000808   0.000017  -0.000287   0.007175   0.000609  -0.000103
    27  N   -0.000001  -0.000000  -0.000001  -0.000069   0.000002  -0.000001
    28  C   -0.000027  -0.000000  -0.000001   0.000008  -0.000011   0.000014
    29  C   -0.000036  -0.000005  -0.000015  -0.000143   0.000015   0.000001
    30  N   -0.000000   0.000000  -0.000000   0.000003   0.000000   0.000000
    31  S   -0.000020  -0.000001  -0.000008   0.000102   0.000051   0.000003
    32  N    0.000082   0.000004   0.000035   0.000015  -0.000067   0.000023
    33  C   -0.002926  -0.000305  -0.000829  -0.010184   0.000935  -0.000232
    34  H    0.645144  -0.140502  -0.070554  -0.018742  -0.149548  -0.074746
    35  H    0.027065  -0.136790   0.329508   0.075598  -0.028263  -0.135662
    36  H    0.114894   0.004524   0.103841   0.013806  -0.105367   0.221252
    37  H   -0.036218  -0.003708  -0.051995  -0.030196   0.084721  -0.103090
    38  H    0.006864   0.000612   0.007455   0.022824  -0.004844   0.006954
    39  H   -0.000596  -0.000023  -0.000548  -0.001788  -0.000919  -0.002885
    40  H    0.000658   0.000037   0.000391   0.002197   0.000369   0.000994
    41  H   -0.008562  -0.000602  -0.002152  -0.024268  -0.002914  -0.000874
    42  H    0.000744   0.000064  -0.000391   0.000449  -0.000997  -0.000217
    43  H    0.029176  -0.002123   0.017839  -0.032745  -0.002600  -0.000324
    44  H   -0.497947  -0.005533  -0.214077   0.419382   0.257128   0.038868
    45  H    0.000057  -0.000004  -0.000016   0.001365   0.000144   0.000025
    46  H   -0.000000  -0.000000  -0.000000   0.000000  -0.000000   0.000000
              7          8          9         10         11         12
     1  C   -0.228236   0.052650   0.089869   0.024583  -0.036644   0.019973
     2  O    0.004971   0.154606   0.049043   0.004315  -0.000698   0.000848
     3  C   -0.323494   0.531149   0.186773   0.027910  -0.010881   0.006436
     4  C    1.115533  -1.309318  -0.251622  -0.144416  -0.268951   0.167701
[...]
 931,0.00180269,0.00121743,0.00163898,-0.00052950,0.00006498,-0.0003413
 1,0.00010356,0.00003004,0.00014227,-0.00011128,0.00001115,-0.00003792,
 0.00001952,0.00000217,0.00003059,-0.00000049,-0.00000536,-0.00004227,-
 0.00000230,-0.00000418,-0.00002377,-0.00001050,-0.00000103,-0.00001647
 ,0.00003114,-0.00000812,-0.00004204,0.00002423,-0.00000596,0.00000980,
 -0.00001964,0.00000563,0.00000832,0.00000128,-0.00000263,0.00000935,0.
 00000388,0.00000318,0.00000766,0.00000134,0.00000161,0.00000533,-0.000
 00794,0.00000822,0.00002277,-0.00000237,0.00000111,0.00000619,-0.00000
 886,-0.00000034,0.00000235,-0.00000600,0.00000058,-0.00000272,0.000034
 50,-0.00001204,-0.00000689,-0.00017301,-0.00002913,-0.00064753,0.34808
 924,-0.00002254,0.00003297,0.00005666,-0.00004706,-0.00007055,0.000000
 07,0.00006090,0.00001817,-0.00004072,0.00004390,0.00029271,-0.00004310
 ,-0.00000315,-0.00003279,-0.00000517,-0.00000260,-0.00000160,-0.000012
 62,0.00001052,-0.00004949,0.00003091,-0.00007045,-0.00064974,-0.000017
 21,0.00000281,0.00017636,-0.00003852,0.00001493,0.00004581,-0.00000203
 ,-0.00000303,0.00000011,-0.00000698,0.00000823,0.00007411,0.00000172,0
 .00001815,0.00002173,-0.00000227,-0.00016282,-0.00099085,0.00014274,-0
 .00014246,-0.00069097,0.00002691,0.00048725,0.00524072,-0.00071571,-0.
 00007822,0.00020732,-0.00005560,0.00000264,-0.00025737,0.00009341,-0.0
 0044484,-0.00242956,0.00038091,-0.00064390,0.00270530,0.00003348,0.047
 72424,-0.04386147,-0.00853468,0.00530388,0.00302199,-0.00019929,0.0011
 0394,0.00820410,-0.00194278,0.00026672,0.00017322,0.00011336,0.0000226
 0,0.00017671,-0.00004747,0.00000958,-0.00000378,0.00000884,0.00000042,
 0.00000568,-0.00000585,0.00000016,0.00000469,0.00000481,0.00000054,-0.
 00001068,0.00000482,0.00000280,-0.00000525,0.00000503,-0.00000149,0.00
 001353,-0.00000263,-0.00000507,-0.00002299,0.00000598,-0.00000143,0.00
 000933,-0.00000112,-0.00000627,-0.00000241,-0.00000028,0.00000413,-0.0
 0000688,-0.00000503,0.00000026,0.00000751,-0.00000249,0.00000739,0.000
 02624,-0.00001317,0.00000019,0.00000025,-0.00000112,-0.00000019,-0.000
 01311,0.00000175,0.00000140,0.00000027,0.00000079,-0.00000575,-0.00003
 885,0.00000561,0.00008466,0.00017415,0.00002492,-0.05263388,0.03342468
 ,0.00008047,-0.00001454,0.00003242,-0.00016317,0.00003001,-0.00003257,
 0.00007087,-0.00000530,0.00004367,-0.00001960,-0.00003308,0.00001949,-
 0.00002415,0.00000216,-0.00004366,-0.00001197,-0.00000209,-0.00003114,
 0.00012180,-0.00000039,0.00008853,0.00022400,-0.00000710,-0.00045256,-
 0.00020264,-0.00001112,-0.00014429,0.00007580,-0.00001144,0.00004710,-
 0.00002015,-0.00000726,-0.00008032,-0.00004602,0.00000744,0.00007985,0
 .00011348,-0.00002026,-0.00000193,-0.00012272,0.00017614,0.00021692,-0
 .00008572,-0.00001782,-0.00095742,-0.00133922,-0.00089772,-0.00326557,
 -0.00190718,0.00011295,-0.00114063,-0.00043554,0.00017560,0.00060787,0
 .00090045,0.00038432,0.00155031,-0.02494640,0.00439003,0.00804903,0.03
 272755,-0.00834758,-0.06332431,0.02927749,-0.00462720,0.00159593,0.000
 73498,-0.00180862,-0.00482930,0.00125500,-0.00012364,0.00069495,0.0000
 8199,-0.00003830,-0.00002110,-0.00005103,0.00001094,0.00002301,0.00001
 844,-0.00000429,-0.00000520,-0.00000422,-0.00000070,-0.00000803,0.0000
 1429,-0.00000115,-0.00000321,0.00001643,0.00000019,0.00001603,0.000009
 07,-0.00001037,-0.00005799,0.00001700,0.00000502,0.00003510,-0.0000450
 7,0.00000677,0.00001065,0.00000137,0.00000363,-0.00001641,-0.00000157,
 -0.00000651,-0.00001442,-0.00000570,-0.00000079,-0.00000512,0.00001509
 ,-0.00001199,-0.00004851,-0.00000195,0.00000016,-0.00000084,0.00000357
 ,0.00000156,0.00000326,0.00000313,-0.00000012,0.00000304,0.00004282,-0
 .00000186,-0.00000471,0.00025149,-0.00010848,-0.00037903,-0.03640892,0
 .01000917,0.06079306,0.00019151,-0.00025394,0.00140724,-0.00067836,-0.
 00001051,-0.00034170,0.00032806,0.00046784,0.00108210,0.00025156,-0.00
 000966,-0.00099880,0.00081760,-0.00020318,0.00006484,-0.00020480,-0.00
 000784,-0.00016812,0.00013421,-0.00003630,-0.00019630,-0.00013589,-0.0
 0001616,0.00004240,0.00001419,-0.00002353,-0.00007352,0.00001561,0.000
 00837,0.00005769,-0.00002746,0.00000864,0.00003440,-0.00002860,-0.0000
 1528,-0.00014206,-0.00044490,0.00012362,0.00027913,-0.00025718,-0.0001
 2202,-0.00155473,-0.00401029,0.00155843,0.00266279,-0.00060583,0.00013
 573,0.00095901,0.00015836,-0.00007471,-0.00010818,-0.00003192,-0.00006
 794,0.00017034,0.00059728,0.00004936,0.00019295,-0.00026082,0.00163337
 ,0.00292798,0.01141754,0.00034418,0.01182479,-0.16172150,0.00123214,-0
 .13804883,-0.01491726,-0.00053131,-0.02438975,-0.00015944,-0.00053363,
 -0.00148711,0.00008529,-0.00004104,-0.00002702,-0.00000725,0.00000727,
 0.00004279,0.00000940,0.00000169,-0.00000836,0.00000162,0.00000154,0.0
 0000279,-0.00000013,0.00000089,-0.00000313,0.00000086,-0.00000076,0.00
 000415,0.00000551,0.00000029,-0.00000168,-0.00000768,-0.00000079,0.000
 00389,-0.00000440,0.00000100,-0.00000844,-0.00004930,-0.00001730,-0.00
 002131,-0.00002922,-0.00001035,-0.00005744,0.00019799,-0.00000883,-0.0
 0003634,0.00003277,0.00000078,0.00000798,-0.00004849,0.00000956,0.0000
 1653,-0.00000454,0.00000145,0.00000609,-0.00005680,0.00000239,0.000008
 76,0.00000733,0.00000280,0.00000702,-0.00000445,0.00000987,-0.00001400
 ,0.00075040,-0.00090249,-0.00024377,0.16867659,-0.00007355,0.00007035,
 0.00050711,0.00000754,-0.00044053,0.00016390,0.00006913,-0.00029090,-0
 .00102184,0.00029237,0.00097433,-0.00014178,-0.00017939,-0.00057008,0.
 00004717,0.00002233,-0.00011537,0.00002977,-0.00001989,0.00006463,0.00
 002496,-0.00006528,-0.00027129,0.00002969,-0.00000311,-0.00007831,0.00
 004022,-0.00000936,0.00002401,-0.00001574,0.00000622,0.00000164,0.0000
 0184,0.00000904,-0.00001081,0.00002040,0.00009491,0.00012934,-0.000068
 81,0.00011674,0.00026141,0.00023821,0.00141445,0.00389176,-0.00091101,
 0.00008220,-0.00052797,-0.00008706,-0.00007028,-0.00023016,0.00008472,
 -0.00005548,-0.00063108,-0.00001009,-0.00010541,0.00076318,-0.00014353
 ,0.00166108,0.00775635,-0.00190622,-0.00341139,0.00361310,-0.00445038,
 0.00116876,-0.03667647,-0.00515044,0.00285932,0.00238623,0.00420647,-0
 .00019843,-0.00239731,0.00047358,-0.00004926,-0.00015867,0.00004075,0.
 00000016,0.00000340,-0.00001336,0.00000210,0.00002846,-0.00000293,-0.0
 0000107,0.00000394,-0.00000298,0.00000106,0.00001063,-0.00000364,-0.00
 000289,-0.00000389,-0.00000216,0.00000167,0.00000432,-0.00000096,0.000
 00056,-0.00001418,0.00000088,0.00000212,0.00001038,0.00000207,-0.00007
 092,-0.00006861,0.00014581,0.00004976,-0.00011819,-0.00008714,-0.00000
 892,0.00016932,-0.00001422,-0.00000174,0.00003005,-0.00000568,0.000009
 23,-0.00000010,-0.00000257,0.00000025,-0.00000007,-0.00000081,0.000002
 61,-0.00004835,0.00000430,0.00000197,0.00001923,-0.00000427,0.00001170
 ,0.00007009,-0.00000952,-0.00084753,-0.00489493,0.00080502,-0.00271167
 ,0.02727282,0.00040777,-0.00002375,-0.00076668,-0.00019690,0.00014297,
 0.00043753,0.00035216,-0.00023495,-0.00054164,0.00139206,-0.00049596,-
 0.00125642,0.00024729,0.00001999,-0.00015167,0.00007428,-0.00000617,-0
 .00007863,-0.00006777,0.00000577,0.00002716,-0.00034419,0.00008767,-0.
 00000134,0.00009145,0.00001628,0.00014865,-0.00008628,0.00000539,-0.00
 003108,0.00001504,0.00000434,0.00005592,0.00005227,-0.00000807,-0.0000
 1654,0.00005056,-0.00003539,-0.00006520,0.00032828,-0.00004212,0.00030
 738,0.00152934,-0.00074057,0.00014650,0.00053978,-0.00002626,-0.000074
 05,-0.00007621,0.00008002,0.00029459,0.00027285,-0.00002546,-0.0005226
 5,-0.00103274,0.00003855,-0.00014109,0.00315581,-0.00193906,-0.0033967
 9,-0.01788763,-0.00004003,-0.01764018,-0.13854671,-0.00507825,-0.23870
 843,0.00242430,0.00022591,0.00691140,0.00116012,0.00008052,-0.00048437
 ,-0.00008782,0.00005020,0.00011855,-0.00001348,-0.00000525,-0.00005260
 ,-0.00000686,-0.00000311,-0.00000148,-0.00001115,0.00000022,-0.0000158
 8,-0.00000350,-0.00000331,-0.00001436,-0.00001767,-0.00000010,-0.00001
 964,0.00001396,-0.00000183,-0.00000006,0.00001180,-0.00000112,-0.00000
 549,-0.00000063,0.00000052,0.00001404,-0.00000635,0.00002312,0.0000724
 5,-0.00002179,0.00002787,0.00010246,-0.00003742,-0.00001429,0.00001326
 ,-0.00001089,-0.00000274,-0.00000522,0.00001477,-0.00000235,-0.0000002
 5,-0.00000296,0.00000054,0.00000094,0.00001201,0.00000403,-0.00000318,
 -0.00000020,-0.00000299,-0.00000397,0.00000111,-0.00001156,-0.00001865
 ,0.00018742,0.00074093,0.00095881,0.14612121,0.00718938,0.25440965,-0.
 00001072,0.00000813,-0.00002382,0.00003174,-0.00000308,0.00002521,-0.0
 0001295,-0.00000915,-0.00002144,-0.00000384,0.00000737,0.00003025,-0.0
 0001800,0.00000451,0.00001862,0.00000538,0.00000065,0.00002218,0.00001
 842,-0.00000655,-0.00003087,-0.00004747,0.00000903,0.00001718,0.000012
 15,0.00000737,0.00000758,-0.00002129,-0.00000334,-0.00000992,-0.000063
 75,0.00001625,0.00001319,0.00008824,-0.00001235,0.00011576,-0.00006636
 ,-0.00002000,-0.00004483,0.00005280,-0.00001150,-0.00000201,0.00002549
 ,0.00002574,0.00013751,-0.00016389,-0.00020873,-0.00158567,0.00092836,
 -0.00006924,0.00057542,-0.00130164,0.00003244,0.00224232,0.00037925,-0
 .00004971,0.00003758,0.00036422,-0.00005410,0.00005907,0.00004475,0.00
 000465,-0.00000646,0.00008694,-0.00001303,0.00000880,-0.00009605,0.000
 01464,0.00000863,0.00003218,-0.00001367,-0.00006239,-0.01591193,0.0060
 8461,0.02178538,-0.19171924,0.04007419,0.13958115,0.01314973,-0.003754
 53,-0.01316764,0.00116955,0.00021266,-0.00425407,-0.00046572,-0.000086
 35,-0.00065206,0.00039099,-0.00007397,0.00015111,-0.00053677,-0.000098
 01,0.00014136,-0.00073259,0.00040053,0.00126500,-0.00378231,0.00127964
 ,-0.00322420,0.00000244,-0.00000010,-0.00000272,0.00000244,-0.00000097
 ,-0.00000303,-0.00000164,0.00000125,0.00000549,-0.00000568,0.00000115,
 0.00000180,-0.00000741,0.00000159,0.00000267,-0.00001128,0.00000530,0.
 00001543,-0.00005975,0.00001853,0.00001460,0.00037234,-0.00003148,-0.0
 0021898,0.00006850,-0.00000203,0.00009033,0.00002595,-0.00000494,0.000
 02822,0.00000323,-0.00000089,0.00000079,0.19749194,0.00000417,0.000001
 88,0.00000244,-0.00000402,-0.00000655,-0.00000159,-0.00000005,0.000004
 33,0.00000196,0.00000293,0.00001546,-0.00000555,0.00000139,-0.00000459
 ,-0.00000182,-0.00000168,-0.00000488,-0.00000156,-0.00000167,-0.000002
 59,0.00000374,0.00000205,0.00000028,-0.00000286,0.00001162,0.00005188,
 -0.00000319,-0.00000385,-0.00003310,0.00000878,0.00000838,0.00003290,-
 0.00000602,-0.00002085,-0.00008874,0.00001453,0.00000182,-0.00016470,-
 0.00001726,-0.00002688,-0.00001959,0.00001666,0.00000588,0.00007932,-0
 .00001699,-0.00006447,-0.00018597,0.00020414,-0.00035874,-0.00001400,-
 0.00030014,-0.00026771,-0.00295148,0.00001343,-0.00001462,0.00001725,0
 .00002699,-0.00004460,-0.00004234,-0.00003181,0.00000754,0.00007728,0.
 00000277,-0.00000402,-0.00000780,-0.00000464,0.00000498,-0.00000438,-0
 .00000251,-0.00000175,-0.00000275,0.00000778,0.00270975,0.00571935,-0.
 00289352,0.04005318,-0.05188960,-0.04012314,-0.00032058,-0.00110883,-0
 .00195867,0.00050070,0.00609100,-0.00056780,-0.00006952,-0.00046129,0.
 00013306,-0.00006237,-0.00022666,0.00001798,-0.00012275,-0.00127749,0.
 00017442,0.00020235,0.00082939,-0.00023042,0.00142001,0.00730165,-0.00
 052898,-0.00000016,-0.00000046,0.00000166,-0.00000059,-0.00000061,-0.0
 0000075,0.00000065,0.00000263,-0.00000058,0.00000076,0.00000117,-0.000
 00089,0.00000096,0.00000178,0.00000008,0.00000156,0.00001059,-0.000000
 27,0.00001480,0.00004895,-0.00000959,0.00001372,0.00033796,-0.00006292
 ,-0.00000942,-0.00002196,-0.00000785,-0.00000833,-0.00003030,-0.000000
 20,-0.00000067,-0.00000312,0.00000002,-0.04367908,0.03739783,-0.000004
 25,0.00000277,-0.00000905,0.00001569,0.00000022,0.00001158,-0.00000464
 ,-0.00000465,-0.00000818,-0.00000079,-0.00000095,0.00000950,-0.0000045
 7,0.00000183,0.00000655,0.00000245,0.00000136,0.00000632,0.00001056,-0
 .00000212,-0.00000566,-0.00004054,0.00000573,-0.00000381,0.00004298,-0
 .00000845,0.00003791,-0.00001784,0.00001011,0.00002466,-0.00004787,0.0
 0000252,-0.00000097,0.00004812,0.00002484,0.00015865,0.00012735,-0.000
 04261,-0.00035091,-0.00012104,0.00003417,0.00010456,-0.00002063,0.0000
 0672,0.00010966,-0.00043951,0.00003298,-0.00047274,-0.00171274,0.00003
 977,-0.00172433,-0.00013196,0.00036632,-0.00025660,0.00031805,-0.00001
 475,0.00026860,0.00012718,-0.00004095,-0.00022417,0.00002084,-0.000002
 20,0.00008841,0.00007803,-0.00001464,-0.00003331,-0.00006829,0.0000088
 9,-0.00001327,0.00002879,-0.00000580,-0.00001586,-0.00487138,0.0010647
 3,0.00917903,0.13943105,-0.04010229,-0.19405323,0.01394135,-0.00598306
 ,-0.03180559,-0.00199046,-0.00090304,-0.00322837,-0.00051588,0.0001137
 1,-0.00019468,0.00024491,0.00000326,0.00007776,-0.00005328,0.00020425,
 0.00022921,-0.00030480,0.00000228,0.00054929,-0.00210589,-0.00069622,-
 0.00038287,0.00000080,-0.00000010,0.,0.00000091,0.00000012,0.00000041,
 -0.00000007,0.00000009,0.00000348,-0.00000170,-0.00000038,-0.00000398,
 -0.00000259,0.00000083,0.00000520,-0.00001313,0.00000399,0.00002717,-0
 .00001408,-0.00000520,-0.00000563,0.00013603,-0.00011573,-0.00040407,0
 .00003165,0.00000095,0.00002176,0.00000180,0.00000375,0.00000003,0.000
 00343,-0.00000025,-0.00000066,-0.14275141,0.04624507,0.22286020,-0.000
 00470,0.00000275,-0.00000771,0.00001355,-0.00000170,0.00000791,-0.0000
 0573,-0.00000251,-0.00000678,-0.00000248,0.00000109,0.00000534,-0.0000
 0659,0.00000225,0.00000603,-0.00000183,0.00000144,0.00001104,0.0000108
 0,-0.00000267,-0.00001023,0.00001179,0.00000022,0.00001761,0.00000044,
 0.,-0.00000525,0.00000295,-0.00000038,-0.00000129,-0.00000382,-0.00000
 064,-0.00000731,-0.00000111,0.00000029,0.00000916,0.00000364,-0.000001
 20,-0.00000783,-0.00000709,0.00000130,0.00001580,0.00001893,-0.0000043
 8,-0.00003437,0.00008400,-0.00001125,0.00003844,0.00006739,-0.00001907
 ,-0.00012842,0.00032297,-0.00030879,0.00023040,-0.00009596,-0.00000897
 ,-0.00009186,0.00000727,0.00005268,0.00011554,-0.00003334,0.00000645,-
 0.00005686,-0.00004590,0.00000742,0.00004566,0.00004623,-0.00000606,0.
 00000912,-0.00002409,0.00000289,-0.00000265,-0.00073045,0.00008506,0.0
 0048367,0.00004525,0.00231793,0.00399787,0.01225841,0.00031320,0.02425
 895,-0.11281643,-0.00338639,-0.11477160,-0.00804234,-0.00137202,-0.028
 32267,0.00268446,-0.00057587,0.00031999,-0.00055557,-0.00009894,-0.000
 62621,-0.00167023,0.00013497,-0.00117362,-0.00384392,0.00152950,0.0025
 3275,0.00000103,-0.00000004,-0.00000053,0.00000101,-0.00000022,-0.0000
 0080,0.00000010,0.00000009,0.00000145,-0.00000201,0.00000039,0.0000014
 1,-0.00000038,0.00000033,0.00000203,-0.00000296,0.00000101,0.00000248,
 -0.00000190,0.00000028,-0.00000260,0.00000743,-0.00000221,-0.00001148,
 0.00000167,-0.00001087,0.00004772,0.00000515,0.00000035,0.00000191,-0.
 00000043,-0.00000081,0.00000274,0.00029326,0.00011920,0.00062738,0.112
 01157,0.00000188,0.00000005,0.00000132,-0.00000297,-0.00000208,-0.0000
 0139,-0.00000032,0.00000198,0.00000124,0.00000028,-0.00000036,-0.00000
 175,0.00000224,0.00000152,-0.00000140,0.00000005,0.00000006,-0.0000024
 3,-0.00000255,-0.00000006,0.00000308,0.00000078,0.00000093,-0.00000329
 ,0.00000046,0.00000574,-0.00000086,-0.00000036,0.00000048,-0.00000038,
 0.00000012,-0.00000212,0.00000109,-0.00000084,-0.00000643,-0.00000152,
 -0.00000203,0.00000202,0.00000333,0.00000042,-0.00001523,-0.00000060,-
 0.00000024,0.00002155,0.00000128,-0.00000654,-0.00002514,0.00001367,-0
 .00001213,0.00004856,-0.00000576,-0.00033630,-0.00187205,0.00023047,-0
 .00000561,-0.00007752,0.00000267,0.00002798,0.00025864,-0.00004459,0.0
 0001293,0.00005233,-0.00000163,-0.00000111,-0.00003302,-0.00000191,-0.
 00000523,-0.00000178,-0.00000205,0.00000197,-0.00000286,0.00000212,-0.
 00000705,-0.00057522,-0.00006814,0.00205062,0.01167814,-0.00210030,-0.
 00278952,-0.00675235,-0.00655941,-0.00324528,-0.03889070,-0.01344216,0
 .00228787,0.00697975,0.00342084,-0.00066377,-0.00134128,0.00023820,-0.
 00012537,-0.00064705,0.00015211,0.00031456,0.00021815,0.00020154,0.001
 29250,0.00399452,-0.00083974,-0.00000005,-0.00000005,0.00000051,-0.000
 00023,0.00000003,-0.00000007,-0.00000012,-0.00000044,-0.00000021,0.000
 00045,0.00000006,-0.00000017,0.00000024,0.00000054,-0.00000053,0.00000
 097,0.00000129,-0.00000082,-0.00000010,0.00000252,0.00000047,-0.000001
 24,0.00000327,0.00000353,-0.00001649,-0.00010835,0.00000744,0.00000003
 ,0.00000594,-0.00000118,-0.00000131,-0.00000861,0.00000045,-0.00000345
 ,0.00053090,-0.00023786,0.00123388,0.02655373,-0.00000010,-0.00000136,
 0.00000337,-0.00000573,0.00000012,-0.00000470,0.00000060,0.00000209,0.
 00000347,-0.00000002,-0.00000120,-0.00000568,0.00000548,-0.00000110,-0
 .00000250,-0.00000191,-0.00000046,-0.00000565,-0.00000420,0.00000235,0
 .00000992,0.00001470,-0.00000370,-0.00000324,-0.00000186,-0.00000182,-
 0.00000608,0.00000027,-0.00000020,-0.00000406,-0.00000049,0.00000048,-
 0.00000142,0.00000018,-0.00000049,-0.00000784,-0.00001323,0.00000470,0
 .00001912,0.00001064,0.00000087,-0.00000264,-0.00000600,-0.00000378,-0
 .00000830,0.00008152,0.00000778,0.00012431,-0.00007276,-0.00001350,-0.
 00014776,0.00001291,0.00026196,0.00013600,-0.00006610,-0.00000084,-0.0
 0016395,-0.00008494,-0.00001599,0.00005014,-0.00000123,-0.00000882,-0.
 00002537,-0.00002340,0.00000764,0.00000504,0.00001630,-0.00000330,-0.0
 0001034,-0.00001137,0.00000421,0.00001256,-0.00024658,0.00003972,-0.00
 054000,0.00189153,-0.00178806,0.00035363,-0.00022821,-0.00292517,-0.02
 969641,-0.11365241,-0.01360626,-0.27820280,0.00055446,-0.00086650,0.00
 069332,-0.00036933,0.00034078,0.00078084,-0.00083659,0.00018296,-0.000
 21520,0.00024288,-0.00000848,0.00045239,0.00066296,-0.00056236,0.00063
 466,-0.00000031,0.00000016,0.00000086,-0.00000020,0.00000061,0.0000004
 3,0.00000021,-0.00000012,-0.00000142,0.00000100,-0.00000031,0.00000063
 ,0.00000088,-0.00000059,-0.00000214,0.00000261,-0.00000084,-0.00000222
 ,-0.00000518,0.00000086,0.00000374,-0.00000445,0.00000264,0.00001834,0
 .00000231,0.00001397,0.00000295,-0.00000164,-0.00000073,-0.00000077,0.
 00000025,0.00000118,-0.00000110,-0.00034112,-0.00009397,-0.00058198,0.
 11247767,0.01903483,0.30633789\\0.00001777,-0.00001597,-0.00000188,-0.
 00001511,0.00001630,-0.00001772,0.00000939,-0.00001711,0.00005130,0.00
 001045,0.00000214,-0.00001106,-0.00001449,0.00001500,-0.00001553,0.000
 00327,-0.00000061,0.00000849,-0.00000090,-0.00000133,-0.00000864,-0.00
 000536,-0.00000330,0.00001595,-0.00000207,0.00000223,0.00000268,0.0000
 0233,0.00000108,-0.00000293,-0.00000129,-0.00000259,-0.00000052,-0.000
 00362,0.00000342,-0.00000089,0.00000297,-0.00000116,-0.00000158,0.0000
 0182,-0.00000203,-0.00000247,-0.00000464,0.00000126,0.00000149,-0.0000
 0853,-0.00000045,-0.00001247,0.00001113,0.00000436,0.00000744,0.000001
 62,-0.00000550,0.00000148,-0.00000073,0.00000621,0.00000450,-0.0000022
 7,-0.00000746,-0.00001108,0.00000787,0.00000631,0.00001110,-0.00000028
 ,-0.00000149,-0.00000304,-0.00000212,0.00000304,0.00000515,0.00000077,
 -0.00000571,-0.00000893,0.00000414,0.00000033,-0.00000531,-0.00000643,
 -0.00000244,-0.00000628,0.00000523,0.00000359,0.00000571,0.00000623,-0
 .00001049,0.00000102,-0.00000504,-0.00000011,-0.00000134,0.00000320,0.
 00000235,0.00000041,0.00000552,-0.00000155,-0.00000228,-0.00000259,-0.
 00000094,0.00000808,0.00000490,0.00000534,-0.00000081,-0.00001117,-0.0
 0000013,0.00000790,-0.00000746,0.00000417,-0.00001571,-0.00000338,0.00
 000006,-0.00000106,0.00000061,0.00000224,-0.00000090,-0.00000265,0.000
 00152,-0.00000241,-0.00000015,0.00000182,-0.00000120,0.00000021,-0.000
 00361,-0.00000106,-0.00000188,0.00000079,0.00000031,0.00000112,-0.0000
 0287,0.00000053,-0.00000114,-0.00000268,0.00000084,-0.00000024,0.00000
 199,0.00000106,0.00000191,0.00000111,0.00000155,0.00000113,0.00000286,
 0.00000011\\\@


 HO!  SUCH BUGS AND GOBLINS IN MY LIFE!

                            -- HAMLET, ACT 5, SCENE 2
 Job cpu time:  1 days  8 hours  2 minutes 40.3 seconds.
 File lengths (MBytes):  RWF=   2289 Int=      0 D2E=      0 Chk=     36 Scr=      1
 Normal termination of Gaussian 09 at Sun Dec 29 21:14:12 2013.
