 Entering Gaussian System, Link 0=g09
 Initial command:
 /opt/gaussian/g09/l1.exe /panfs/panfs.cluster/home/shuo/Gau-31843.inp -scrdir=/panfs/panfs.cluster/home/shuo/
 Default is to use a total of  12 processors:
                               12 via shared-memory
                                1 via Linda
 Entering Link 1 = /opt/gaussian/g09/l1.exe PID=     31844.
  
 Copyright (c) 1988,1990,1992,1993,1995,1998,2003,2009,2011,
            Gaussian, Inc.  All Rights Reserved.
  
 This is part of the Gaussian(R) 09 program.  It is based on
 the Gaussian(R) 03 system (copyright 2003, Gaussian, Inc.),
 the Gaussian(R) 98 system (copyright 1998, Gaussian, Inc.),
 the Gaussian(R) 94 system (copyright 1995, Gaussian, Inc.),
 the Gaussian 92(TM) system (copyright 1992, Gaussian, Inc.),
 the Gaussian 90(TM) system (copyright 1990, Gaussian, Inc.),
 the Gaussian 88(TM) system (copyright 1988, Gaussian, Inc.),
 the Gaussian 86(TM) system (copyright 1986, Carnegie Mellon
 University), and the Gaussian 82(TM) system (copyright 1983,
 Carnegie Mellon University). Gaussian is a federally registered
 trademark of Gaussian, Inc.
  
 This software contains proprietary and confidential information,
 including trade secrets, belonging to Gaussian, Inc.
  
 This software is provided under written license and may be
 used, copied, transmitted, or stored only in accord with that
 written license.
  
 The following legend is applicable only to US Government
 contracts under FAR:
  
                    RESTRICTED RIGHTS LEGEND
  
 Use, reproduction and disclosure by the US Government is
 subject to restrictions as set forth in subparagraphs (a)
 and (c) of the Commercial Computer Software - Restricted
 Rights clause in FAR 52.227-19.
  
 Gaussian, Inc.
 340 Quinnipiac St., Bldg. 40, Wallingford CT 06492
  
  
 ---------------------------------------------------------------
 Warning -- This program may not be used in any manner that
 competes with the business of Gaussian, Inc. or will provide
 assistance to any competitor of Gaussian, Inc.  The licensee
 of this program is prohibited from giving any competitor of
 Gaussian, Inc. access to this program.  By using this program,
 the user acknowledges that Gaussian, Inc. is engaged in the
 business of creating and licensing software in the field of
 computational chemistry and represents and warrants to the
 licensee that it is not a competitor of Gaussian, Inc. and that
 it will not use this program in any manner prohibited above.
 ---------------------------------------------------------------
  

 Cite this work as:
 Gaussian 09, Revision C.01,
 M. J. Frisch, G. W. Trucks, H. B. Schlegel, G. E. Scuseria, 
 M. A. Robb, J. R. Cheeseman, G. Scalmani, V. Barone, B. Mennucci, 
 G. A. Petersson, H. Nakatsuji, M. Caricato, X. Li, H. P. Hratchian, 
 A. F. Izmaylov, J. Bloino, G. Zheng, J. L. Sonnenberg, M. Hada, 
 M. Ehara, K. Toyota, R. Fukuda, J. Hasegawa, M. Ishida, T. Nakajima, 
 Y. Honda, O. Kitao, H. Nakai, T. Vreven, J. A. Montgomery, Jr., 
 J. E. Peralta, F. Ogliaro, M. Bearpark, J. J. Heyd, E. Brothers, 
 K. N. Kudin, V. N. Staroverov, T. Keith, R. Kobayashi, J. Normand, 
 K. Raghavachari, A. Rendell, J. C. Burant, S. S. Iyengar, J. Tomasi, 
 M. Cossi, N. Rega, J. M. Millam, M. Klene, J. E. Knox, J. B. Cross, 
 V. Bakken, C. Adamo, J. Jaramillo, R. Gomperts, R. E. Stratmann, 
 O. Yazyev, A. J. Austin, R. Cammi, C. Pomelli, J. W. Ochterski, 
 R. L. Martin, K. Morokuma, V. G. Zakrzewski, G. A. Voth, 
 P. Salvador, J. J. Dannenberg, S. Dapprich, A. D. Daniels, 
 O. Farkas, J. B. Foresman, J. V. Ortiz, J. Cioslowski, 
 and D. J. Fox, Gaussian, Inc., Wallingford CT, 2010.
 
 ******************************************
 Gaussian 09:  EM64L-G09RevC.01 23-Sep-2011
                29-Dec-2013 
 ******************************************
 %chk=32_C24H12N4OS2Si.chk
 %NProcShared=12
 Will use up to   12 processors via shared memory.
 %Mem=8000MB
 Default route:  MaxDisk=100GB
 --------------------------------------------
 #B3LYP/6-31++G(d,p) opt scf=direct freq test
 --------------------------------------------
 1/14=-1,18=20,19=15,26=3,38=1/1,3;
 2/9=110,12=2,17=6,18=5,40=1/2;
 3/5=1,6=6,7=1111,11=2,16=1,25=1,30=1,71=1,74=-5/1,2,3;
 4//1;
 5/5=2,38=5/2;
 6/7=2,8=2,9=2,10=2,28=1/1;
 7//1,2,3,16;
 1/14=-1,18=20,19=15/3(2);
 2/9=110/2;
 99//99;
 2/9=110/2;
 3/5=1,6=6,7=1111,11=2,16=1,25=1,30=1,71=1,74=-5/1,2,3;
 4/5=5,16=3/1;
 5/5=2,38=5/2;
 7//1,2,3,16;
 1/14=-1,18=20,19=15/3(-5);
 2/9=110/2;
 6/7=2,8=2,9=2,10=2,19=2,28=1/1;
 99/9=1/99;
 ----------------------------------------------------------------------
 Geom opt of No.32 candidate from the CEPDB database with SMILE code of
  c1c[nH]c(c1)-c1ncc(s1)-c1ncc(-c2ccc[Se]2)c2nsnc12, HPC, 20131227, Shu
 o Dai, Gaussian09
 ----------------------------------------------------------------------
 Charge =  0 Multiplicity = 1
 Symbolic Z-Matrix:
 C                    -1.144     0.       -0.002 
 C                    -0.328     1.082     0.001 
 N                     0.901     0.643     0.001 
 H                     1.71843   1.21902   0.00302 
 C                     0.901    -0.643    -0.002 
 C                    -0.328    -1.082     0.003 
 C                     2.08135  -1.47478  -0.00973 
 N                     3.31051  -1.03632  -0.02062 
 C                     4.12589  -2.11868  -0.03678 
 C                     3.30951  -3.20032  -0.02358 
 S                     2.08081  -2.76078  -0.00729 
 C                     3.72289  -4.58388  -0.02691 
 N                     5.03521  -4.90331  -0.04236 
 C                     5.45265  -6.19663  -0.05344 
 C                     4.5762   -7.22558  -0.03734 
 C                     5.06957  -8.62304  -0.03796 
 C                     5.32718  -9.11652   1.40698 
 C                     5.7238   -10.60156   1.19293 
 C                     4.80473  -11.07822   0.04869 
 Se                    4.38892  -9.81996  -0.73362 
 C                     3.20427  -6.96674  -0.02014 
 N                     2.09645  -7.72546  -0.00687 
 S                     1.04748  -6.92853   0.00732 
 N                     1.42869  -5.65963   0.00186 
 C                     2.76001  -5.61473  -0.01468 
 H                    -2.17599   0.       -0.00706 
 H                    -0.62388   2.07067   0.00293 
 H                    -0.62387  -2.07066   0.00955 
 H                     5.15772  -2.11913  -0.05535 
 H                     6.46453  -6.39827  -0.07469 
 H                     5.89197  -8.4179   -0.691 
 H                     4.44426  -9.03517   2.00593 
 H                     6.07156  -8.54789   1.92414 
 H                     5.55079  -11.17231   2.08131 
 H                     6.76167  -10.71899   0.96066 
 H                     3.94078  -11.56696   0.44821 
 H                     5.30835  -11.77799  -0.58501 
 

 GradGradGradGradGradGradGradGradGradGradGradGradGradGradGradGradGradGrad
 Berny optimization.
 Initialization pass.
                           ----------------------------
                           !    Initial Parameters    !
                           ! (Angstroms and Degrees)  !
 --------------------------                            --------------------------
 ! Name  Definition              Value          Derivative Info.                !
 --------------------------------------------------------------------------------
 ! R1    R(1,2)                  1.3552         estimate D2E/DX2                !
 ! R2    R(1,6)                  1.3552         estimate D2E/DX2                !
 ! R3    R(1,26)                 1.032          estimate D2E/DX2                !
 ! R4    R(2,3)                  1.3051         estimate D2E/DX2                !
 ! R5    R(2,27)                 1.032          estimate D2E/DX2                !
 ! R6    R(3,4)                  1.0            estimate D2E/DX2                !
 ! R7    R(3,5)                  1.286          estimate D2E/DX2                !
 ! R8    R(5,6)                  1.3051         estimate D2E/DX2                !
 ! R9    R(5,7)                  1.444          estimate D2E/DX2                !
 ! R10   R(6,28)                 1.032          estimate D2E/DX2                !
 ! R11   R(7,8)                  1.3051         estimate D2E/DX2                !
 ! R12   R(7,11)                 1.286          estimate D2E/DX2                !
 ! R13   R(8,9)                  1.3552         estimate D2E/DX2                !
 ! R14   R(9,10)                 1.3552         estimate D2E/DX2                !
 ! R15   R(9,11)                 2.1437         estimate D2E/DX2                !
 ! R16   R(9,29)                 1.032          estimate D2E/DX2                !
 ! R17   R(10,11)                1.3051         estimate D2E/DX2                !
 ! R18   R(10,12)                1.444          estimate D2E/DX2                !
 ! R19   R(12,13)                1.3507         estimate D2E/DX2                !
 ! R20   R(12,25)                1.4107         estimate D2E/DX2                !
 ! R21   R(13,14)                1.3591         estimate D2E/DX2                !
 ! R22   R(14,15)                1.3517         estimate D2E/DX2                !
 ! R23   R(14,30)                1.032          estimate D2E/DX2                !
 ! R24   R(15,16)                1.482          estimate D2E/DX2                !
 ! R25   R(15,21)                1.3962         estimate D2E/DX2                !
 ! R26   R(16,17)                1.5485         estimate D2E/DX2                !
 ! R27   R(16,20)                1.5427         estimate D2E/DX2                !
 ! R28   R(16,31)                1.07           estimate D2E/DX2                !
 ! R29   R(17,18)                1.5519         estimate D2E/DX2                !
 ! R30   R(17,32)                1.07           estimate D2E/DX2                !
 ! R31   R(17,33)                1.07           estimate D2E/DX2                !
 ! R32   R(18,19)                1.5431         estimate D2E/DX2                !
 ! R33   R(18,34)                1.07           estimate D2E/DX2                !
 ! R34   R(18,35)                1.07           estimate D2E/DX2                !
 ! R35   R(19,20)                1.5389         estimate D2E/DX2                !
 ! R36   R(19,36)                1.07           estimate D2E/DX2                !
 ! R37   R(19,37)                1.07           estimate D2E/DX2                !
 ! R38   R(21,22)                1.3428         estimate D2E/DX2                !
 ! R39   R(21,23)                2.1573         estimate D2E/DX2                !
 ! R40   R(21,25)                1.4231         estimate D2E/DX2                !
 ! R41   R(22,23)                1.3174         estimate D2E/DX2                !
 ! R42   R(23,24)                1.3249         estimate D2E/DX2                !
 ! R43   R(23,25)                2.1585         estimate D2E/DX2                !
 ! R44   R(24,25)                1.3322         estimate D2E/DX2                !
 ! A1    A(2,1,6)              105.9552         estimate D2E/DX2                !
 ! A2    A(2,1,26)             127.0223         estimate D2E/DX2                !
 ! A3    A(6,1,26)             127.0226         estimate D2E/DX2                !
 ! A4    A(1,2,3)              107.3653         estimate D2E/DX2                !
 ! A5    A(1,2,27)             126.3171         estimate D2E/DX2                !
 ! A6    A(3,2,27)             126.3176         estimate D2E/DX2                !
 ! A7    A(2,3,4)              125.1719         estimate D2E/DX2                !
 ! A8    A(2,3,5)              109.6567         estimate D2E/DX2                !
 ! A9    A(4,3,5)              125.1714         estimate D2E/DX2                !
 ! A10   A(3,5,6)              109.656          estimate D2E/DX2                !
 ! A11   A(3,5,7)              125.1721         estimate D2E/DX2                !
 ! A12   A(6,5,7)              125.1718         estimate D2E/DX2                !
 ! A13   A(1,6,5)              107.3642         estimate D2E/DX2                !
 ! A14   A(1,6,28)             126.3179         estimate D2E/DX2                !
 ! A15   A(5,6,28)             126.3179         estimate D2E/DX2                !
 ! A16   A(5,7,8)              125.1971         estimate D2E/DX2                !
 ! A17   A(5,7,11)             125.1465         estimate D2E/DX2                !
 ! A18   A(8,7,11)             109.6564         estimate D2E/DX2                !
 ! A19   A(7,8,9)              107.364          estimate D2E/DX2                !
 ! A20   A(8,9,10)             105.955          estimate D2E/DX2                !
 ! A21   A(8,9,11)              70.4323         estimate D2E/DX2                !
 ! A22   A(8,9,29)             127.0223         estimate D2E/DX2                !
 ! A23   A(10,9,29)            127.0226         estimate D2E/DX2                !
 ! A24   A(11,9,29)            162.5447         estimate D2E/DX2                !
 ! A25   A(9,10,12)            126.3171         estimate D2E/DX2                !
 ! A26   A(11,10,12)           126.3173         estimate D2E/DX2                !
 ! A27   A(7,11,9)              72.5452         estimate D2E/DX2                !
 ! A28   A(7,11,10)            109.6564         estimate D2E/DX2                !
 ! A29   A(10,12,13)           120.3148         estimate D2E/DX2                !
 ! A30   A(10,12,25)           120.3148         estimate D2E/DX2                !
 ! A31   A(13,12,25)           119.3704         estimate D2E/DX2                !
 ! A32   A(12,13,14)           121.5714         estimate D2E/DX2                !
 ! A33   A(13,14,15)           121.6774         estimate D2E/DX2                !
 ! A34   A(13,14,30)           119.1614         estimate D2E/DX2                !
 ! A35   A(15,14,30)           119.1612         estimate D2E/DX2                !
 ! A36   A(14,15,16)           120.1278         estimate D2E/DX2                !
 ! A37   A(14,15,21)           119.7446         estimate D2E/DX2                !
 ! A38   A(16,15,21)           120.1276         estimate D2E/DX2                !
 ! A39   A(15,16,17)           110.8244         estimate D2E/DX2                !
 ! A40   A(15,16,20)           125.7974         estimate D2E/DX2                !
 ! A41   A(15,16,31)            94.3211         estimate D2E/DX2                !
 ! A42   A(17,16,20)           104.2962         estimate D2E/DX2                !
 ! A43   A(17,16,31)           120.1821         estimate D2E/DX2                !
 ! A44   A(20,16,31)           102.2776         estimate D2E/DX2                !
 ! A45   A(16,17,18)           102.6367         estimate D2E/DX2                !
 ! A46   A(16,17,32)           111.1515         estimate D2E/DX2                !
 ! A47   A(16,17,33)           113.4151         estimate D2E/DX2                !
 ! A48   A(18,17,32)           111.1518         estimate D2E/DX2                !
 ! A49   A(18,17,33)           113.4156         estimate D2E/DX2                !
 ! A50   A(32,17,33)           105.2537         estimate D2E/DX2                !
 ! A51   A(17,18,19)           104.2198         estimate D2E/DX2                !
 ! A52   A(17,18,34)           110.768          estimate D2E/DX2                !
 ! A53   A(17,18,35)           112.5102         estimate D2E/DX2                !
 ! A54   A(19,18,34)           110.7677         estimate D2E/DX2                !
 ! A55   A(19,18,35)           112.51           estimate D2E/DX2                !
 ! A56   A(34,18,35)           106.172          estimate D2E/DX2                !
 ! A57   A(18,19,20)           106.5783         estimate D2E/DX2                !
 ! A58   A(18,19,36)           110.1896         estimate D2E/DX2                !
 ! A59   A(18,19,37)           111.152          estimate D2E/DX2                !
 ! A60   A(20,19,36)           110.1892         estimate D2E/DX2                !
 ! A61   A(20,19,37)           111.1518         estimate D2E/DX2                !
 ! A62   A(36,19,37)           107.6049         estimate D2E/DX2                !
 ! A63   A(16,20,19)           106.6145         estimate D2E/DX2                !
 ! A64   A(15,21,22)           134.9121         estimate D2E/DX2                !
 ! A65   A(15,21,25)           118.8749         estimate D2E/DX2                !
 ! A66   A(22,21,25)           106.213          estimate D2E/DX2                !
 ! A67   A(21,23,24)            74.2917         estimate D2E/DX2                !
 ! A68   A(22,23,24)           110.4991         estimate D2E/DX2                !
 ! A69   A(22,23,25)            74.7144         estimate D2E/DX2                !
 ! A70   A(12,25,21)           118.7589         estimate D2E/DX2                !
 ! A71   A(12,25,24)           134.9812         estimate D2E/DX2                !
 ! A72   A(21,25,24)           106.2599         estimate D2E/DX2                !
 ! A73   L(15,21,23,4,-1)      189.6686         estimate D2E/DX2                !
 ! A74   L(12,25,23,1,-1)      170.5419         estimate D2E/DX2                !
 ! A75   L(15,21,23,4,-2)      180.0171         estimate D2E/DX2                !
 ! A76   L(12,25,23,1,-2)      180.0586         estimate D2E/DX2                !
 ! D1    D(6,1,2,3)              0.2958         estimate D2E/DX2                !
 ! D2    D(6,1,2,27)          -179.7041         estimate D2E/DX2                !
 ! D3    D(26,1,2,3)          -179.7041         estimate D2E/DX2                !
 ! D4    D(26,1,2,27)            0.296          estimate D2E/DX2                !
 ! D5    D(2,1,6,5)             -0.4885         estimate D2E/DX2                !
 ! D6    D(2,1,6,28)           179.5117         estimate D2E/DX2                !
 ! D7    D(26,1,6,5)           179.5115         estimate D2E/DX2                !
 ! D8    D(26,1,6,28)           -0.4884         estimate D2E/DX2                !
 ! D9    D(1,2,3,4)           -179.9913         estimate D2E/DX2                !
 ! D10   D(1,2,3,5)              0.009          estimate D2E/DX2                !
 ! D11   D(27,2,3,4)             0.0086         estimate D2E/DX2                !
 ! D12   D(27,2,3,5)          -179.9911         estimate D2E/DX2                !
 ! D13   D(2,3,5,6)             -0.3286         estimate D2E/DX2                !
 ! D14   D(2,3,5,7)            179.6712         estimate D2E/DX2                !
 ! D15   D(4,3,5,6)            179.6718         estimate D2E/DX2                !
 ! D16   D(4,3,5,7)             -0.3284         estimate D2E/DX2                !
 ! D17   D(3,5,6,1)              0.5105         estimate D2E/DX2                !
 ! D18   D(3,5,6,28)          -179.4897         estimate D2E/DX2                !
 ! D19   D(7,5,6,1)           -179.4893         estimate D2E/DX2                !
 ! D20   D(7,5,6,28)             0.5105         estimate D2E/DX2                !
 ! D21   D(3,5,7,8)             -0.3161         estimate D2E/DX2                !
 ! D22   D(3,5,7,11)           179.7037         estimate D2E/DX2                !
 ! D23   D(6,5,7,8)            179.6837         estimate D2E/DX2                !
 ! D24   D(6,5,7,11)            -0.2965         estimate D2E/DX2                !
 ! D25   D(5,7,8,9)           -179.4717         estimate D2E/DX2                !
 ! D26   D(11,7,8,9)             0.511          estimate D2E/DX2                !
 ! D27   D(5,7,11,9)           179.6596         estimate D2E/DX2                !
 ! D28   D(5,7,11,10)          179.6533         estimate D2E/DX2                !
 ! D29   D(8,7,11,9)            -0.3232         estimate D2E/DX2                !
 ! D30   D(8,7,11,10)           -0.3294         estimate D2E/DX2                !
 ! D31   D(7,8,9,10)            -0.4885         estimate D2E/DX2                !
 ! D32   D(7,8,9,11)            -0.3064         estimate D2E/DX2                !
 ! D33   D(7,8,9,29)           179.5112         estimate D2E/DX2                !
 ! D34   D(8,9,10,12)         -179.704          estimate D2E/DX2                !
 ! D35   D(29,9,10,12)           0.2963         estimate D2E/DX2                !
 ! D36   D(8,9,11,7)             0.3111         estimate D2E/DX2                !
 ! D37   D(29,9,11,7)         -179.2033         estimate D2E/DX2                !
 ! D38   D(12,10,11,7)        -179.9908         estimate D2E/DX2                !
 ! D39   D(9,10,12,13)           0.1078         estimate D2E/DX2                !
 ! D40   D(9,10,12,25)        -179.8629         estimate D2E/DX2                !
 ! D41   D(11,10,12,13)       -179.8914         estimate D2E/DX2                !
 ! D42   D(11,10,12,25)          0.1378         estimate D2E/DX2                !
 ! D43   D(10,12,13,14)       -179.6243         estimate D2E/DX2                !
 ! D44   D(25,12,13,14)          0.3467         estimate D2E/DX2                !
 ! D45   D(10,12,23,22)        179.8804         estimate D2E/DX2                !
 ! D46   D(13,12,23,22)         -0.1036         estimate D2E/DX2                !
 ! D47   D(10,12,25,21)        179.9201         estimate D2E/DX2                !
 ! D48   D(10,12,25,24)         -0.0658         estimate D2E/DX2                !
 ! D49   D(13,12,25,21)         -0.0509         estimate D2E/DX2                !
 ! D50   D(13,12,25,24)        179.9632         estimate D2E/DX2                !
 ! D51   D(12,13,14,15)         -0.6081         estimate D2E/DX2                !
 ! D52   D(12,13,14,30)        179.3917         estimate D2E/DX2                !
 ! D53   D(13,14,15,16)       -179.4537         estimate D2E/DX2                !
 ! D54   D(13,14,15,21)          0.5471         estimate D2E/DX2                !
 ! D55   D(30,14,15,16)          0.5466         estimate D2E/DX2                !
 ! D56   D(30,14,15,21)       -179.4526         estimate D2E/DX2                !
 ! D57   D(14,15,16,17)         87.6886         estimate D2E/DX2                !
 ! D58   D(14,15,16,20)       -145.4401         estimate D2E/DX2                !
 ! D59   D(14,15,16,31)        -36.9335         estimate D2E/DX2                !
 ! D60   D(21,15,16,17)        -92.3122         estimate D2E/DX2                !
 ! D61   D(21,15,16,20)         34.5591         estimate D2E/DX2                !
 ! D62   D(21,15,16,31)        143.0658         estimate D2E/DX2                !
 ! D63   D(14,15,21,22)        179.7132         estimate D2E/DX2                !
 ! D64   D(14,15,21,25)         -0.2445         estimate D2E/DX2                !
 ! D65   D(16,15,21,22)         -0.286          estimate D2E/DX2                !
 ! D66   D(16,15,21,25)        179.7563         estimate D2E/DX2                !
 ! D67   D(14,15,23,24)         -0.233          estimate D2E/DX2                !
 ! D68   D(16,15,23,24)        179.7896         estimate D2E/DX2                !
 ! D69   D(15,16,17,18)        175.8869         estimate D2E/DX2                !
 ! D70   D(15,16,17,32)         56.9889         estimate D2E/DX2                !
 ! D71   D(15,16,17,33)        -61.3681         estimate D2E/DX2                !
 ! D72   D(20,16,17,18)         37.9228         estimate D2E/DX2                !
 ! D73   D(20,16,17,32)        -80.9752         estimate D2E/DX2                !
 ! D74   D(20,16,17,33)        160.6678         estimate D2E/DX2                !
 ! D75   D(31,16,17,18)        -75.7845         estimate D2E/DX2                !
 ! D76   D(31,16,17,32)        165.3174         estimate D2E/DX2                !
 ! D77   D(31,16,17,33)         46.9604         estimate D2E/DX2                !
 ! D78   D(15,16,20,19)       -153.1613         estimate D2E/DX2                !
 ! D79   D(17,16,20,19)        -23.6609         estimate D2E/DX2                !
 ! D80   D(31,16,20,19)        102.2422         estimate D2E/DX2                !
 ! D81   D(16,17,18,19)        -37.9052         estimate D2E/DX2                !
 ! D82   D(16,17,18,34)       -157.0688         estimate D2E/DX2                !
 ! D83   D(16,17,18,35)         84.2718         estimate D2E/DX2                !
 ! D84   D(32,17,18,19)         80.9927         estimate D2E/DX2                !
 ! D85   D(32,17,18,34)        -38.1709         estimate D2E/DX2                !
 ! D86   D(32,17,18,35)       -156.8304         estimate D2E/DX2                !
 ! D87   D(33,17,18,19)       -160.6499         estimate D2E/DX2                !
 ! D88   D(33,17,18,34)         80.1865         estimate D2E/DX2                !
 ! D89   D(33,17,18,35)        -38.4729         estimate D2E/DX2                !
 ! D90   D(17,18,19,20)         23.5878         estimate D2E/DX2                !
 ! D91   D(17,18,19,36)        -95.959          estimate D2E/DX2                !
 ! D92   D(17,18,19,37)        144.8445         estimate D2E/DX2                !
 ! D93   D(34,18,19,20)        142.7516         estimate D2E/DX2                !
 ! D94   D(34,18,19,36)         23.2048         estimate D2E/DX2                !
 ! D95   D(34,18,19,37)        -95.9917         estimate D2E/DX2                !
 ! D96   D(35,18,19,20)        -98.5892         estimate D2E/DX2                !
 ! D97   D(35,18,19,36)        141.8639         estimate D2E/DX2                !
 ! D98   D(35,18,19,37)         22.6674         estimate D2E/DX2                !
 ! D99   D(18,19,20,16)          0.0053         estimate D2E/DX2                !
 ! D100  D(36,19,20,16)        119.5524         estimate D2E/DX2                !
 ! D101  D(37,19,20,16)       -121.2515         estimate D2E/DX2                !
 ! D102  D(15,21,25,12)          0.0025         estimate D2E/DX2                !
 ! D103  D(15,21,25,24)        179.9921         estimate D2E/DX2                !
 ! D104  D(22,21,25,12)       -179.9663         estimate D2E/DX2                !
 ! D105  D(22,21,25,24)          0.0233         estimate D2E/DX2                !
 --------------------------------------------------------------------------------
 Trust Radius=3.00D-01 FncErr=1.00D-07 GrdErr=1.00D-06
 Number of steps in this run=    222 maximum allowed number of steps=    222.
 GradGradGradGradGradGradGradGradGradGradGradGradGradGradGradGradGradGrad

                          Input orientation:                          
 ---------------------------------------------------------------------
 Center     Atomic      Atomic             Coordinates (Angstroms)
 Number     Number       Type             X           Y           Z
 ---------------------------------------------------------------------
      1          6           0       -1.144000    0.000000   -0.002000
      2          6           0       -0.328000    1.082000    0.001000
      3          7           0        0.901000    0.643000    0.001000
      4          1           0        1.718430    1.219020    0.003020
      5          6           0        0.901000   -0.643000   -0.002000
      6          6           0       -0.328000   -1.082000    0.003000
      7          6           0        2.081350   -1.474780   -0.009730
      8          7           0        3.310510   -1.036320   -0.020620
      9          6           0        4.125890   -2.118680   -0.036780
     10          6           0        3.309510   -3.200320   -0.023580
     11         16           0        2.080810   -2.760780   -0.007290
     12          6           0        3.722890   -4.583880   -0.026910
     13          7           0        5.035210   -4.903310   -0.042360
     14          6           0        5.452650   -6.196630   -0.053440
     15          6           0        4.576200   -7.225580   -0.037340
     16          6           0        5.069570   -8.623040   -0.037960
     17          6           0        5.327180   -9.116520    1.406980
     18          6           0        5.723800  -10.601560    1.192930
     19          6           0        4.804730  -11.078220    0.048690
     20         34           0        4.388920   -9.819960   -0.733620
     21          6           0        3.204270   -6.966740   -0.020140
     22          7           0        2.096450   -7.725460   -0.006870
     23         16           0        1.047480   -6.928530    0.007320
     24          7           0        1.428690   -5.659630    0.001860
     25          6           0        2.760010   -5.614730   -0.014680
     26          1           0       -2.175990    0.000000   -0.007060
     27          1           0       -0.623880    2.070670    0.002930
     28          1           0       -0.623870   -2.070660    0.009550
     29          1           0        5.157720   -2.119130   -0.055350
     30          1           0        6.464530   -6.398270   -0.074690
     31          1           0        5.891970   -8.417900   -0.691000
     32          1           0        4.444260   -9.035170    2.005930
     33          1           0        6.071560   -8.547890    1.924140
     34          1           0        5.550790  -11.172310    2.081310
     35          1           0        6.761670  -10.718990    0.960660
     36          1           0        3.940780  -11.566960    0.448210
     37          1           0        5.308350  -11.777990   -0.585010
 ---------------------------------------------------------------------
                    Distance matrix (angstroms):
                    1          2          3          4          5
     1  C    0.000000
     2  C    1.355208   0.000000
     3  N    2.143708   1.305052   0.000000
     4  H    3.111196   2.051013   0.999997   0.000000
     5  C    2.143706   2.118036   1.286003   2.033552   0.000000
     6  C    1.355214   2.164001   2.118034   3.079378   1.305062
     7  C    3.546536   3.513148   2.424527   2.718167   1.444003
     8  N    4.573507   4.210285   2.937060   2.760767   2.441472
     9  C    5.679943   5.484790   4.245965   4.115542   3.546654
    10  C    5.484183   5.618750   4.535706   4.697106   3.513015
    11  S    4.245154   4.535349   3.602463   3.996277   2.424247
    12  C    6.685746   6.965105   5.940043   6.139414   4.847084
    13  N    7.888391   8.036780   6.917740   6.963190   5.936629
    14  C    9.050782   9.295017   8.215900   8.302978   7.180736
    15  C    9.215799   9.647203   8.684648   8.915141   7.539145
    16  C   10.628573  11.105093  10.160610  10.397017   9.003294
    17  C   11.268200  11.745963  10.808149  11.037100   9.663169
    18  C   12.688089  13.211758  12.293097  12.537344  11.129249
    19  C   12.574455  13.199172  12.354286  12.678700  11.141611
    20  Se  11.295135  11.901333  11.053451  11.381267   9.844666
    21  C    8.212384   8.789744   7.950701   8.319551   6.730161
    22  N    8.377546   9.135063   8.453419   8.952470   7.182643
    23  S    7.266856   8.127766   7.572949   8.175131   6.287243
    24  N    6.216925   6.966745   6.324682   6.884750   5.044308
    25  C    6.838614   7.374432   6.528043   6.912694   5.307935
    26  H    1.032002   2.141461   3.143466   4.080762   3.143460
    27  H    2.135000   1.031997   2.088900   2.492333   3.112762
    28  H    2.135018   3.166524   3.112756   4.038367   2.088917
    29  H    6.648702   6.351656   5.074663   4.793263   4.505715
    30  H    9.941472  10.104387   8.974301   8.975222   8.005079
    31  H   10.992754  11.376071  10.367669  10.524748   9.264641
    32  H   10.811787  11.364477  10.499591  10.797695   9.328183
    33  H   11.350804  11.721246  10.719404  10.864298   9.640124
    34  H   13.190182  13.749763  12.866615  13.135880  11.697312
    35  H   13.353766  13.800280  12.820422  12.994900  11.696142
    36  H   12.643269  13.357345  12.590607  12.985312  11.347945
    37  H   13.442238  14.053156  13.192768  13.496502  11.989689
                    6          7          8          9         10
     6  C    0.000000
     7  C    2.441189   0.000000
     8  N    3.638873   1.305067   0.000000
     9  C    4.573120   2.143708   1.355215   0.000000
    10  C    4.209450   2.118031   2.164002   1.355211   0.000000
    11  S    2.936115   1.286002   2.118042   2.143715   1.305053
    12  C    5.354789   3.515886   3.571453   2.497943   1.443999
    13  N    6.585476   4.525613   4.234227   2.929344   2.424576
    14  C    7.718714   5.802020   5.587364   4.288385   3.683994
    15  C    7.861067   6.268711   6.317372   5.126715   4.219883
    16  C    9.273765   7.747766   7.787998   6.572460   5.701220
    17  C    9.925005   8.422510   8.449534   7.245502   6.412403
    18  C   11.342938   9.900098   9.939340   8.719218   7.879533
    19  C   11.237056   9.982298  10.152697   8.985627   8.018866
    20  Se   9.957102   8.688551   8.878269   7.737214   6.744547
    21  C    6.863500   5.605594   5.931372   4.934911   3.767892
    22  N    7.072031   6.250699   6.798435   5.962844   4.684942
    23  S    6.006153   5.550907   6.311911   5.710798   4.360881
    24  N    4.903127   4.235454   4.991668   4.451371   3.096181
    25  C    5.484684   4.195210   4.611391   3.753463   2.476167
    26  H    2.141470   4.505544   5.583532   6.648562   6.350829
    27  H    3.166524   4.459669   5.013319   6.333447   6.576899
    28  H    1.032003   2.770137   4.068183   4.750229   4.092518
    29  H    5.583204   3.143457   2.141464   1.031997   2.141462
    30  H    8.625962   6.592211   6.221035   4.877045   4.492621
    31  H    9.642878   7.949331   7.848635   6.574741   5.859837
    32  H    9.488894   8.173477   8.329099   7.218854   6.281086
    33  H   10.019215   8.348084   8.235847   6.997541   6.326060
    34  H   11.861446  10.509593  10.591282   9.406639   8.544385
    35  H   12.002171  10.406847  10.326060   9.050279   8.331659
    36  H   11.329390  10.272258  10.559897   9.462530   8.403675
    37  H   12.104478  10.812059  10.940447   9.746848   8.825360
                   11         12         13         14         15
    11  S    0.000000
    12  C    2.453672   0.000000
    13  N    3.649677   1.350725   0.000000
    14  C    4.814198   2.365108   1.359064   0.000000
    15  C    5.114911   2.776117   2.367204   1.351726   0.000000
    16  C    6.580252   4.257756   3.719891   2.456513   1.481995
    17  C    7.275611   5.017431   4.465084   3.267159   2.495132
    18  C    8.728673   6.457873   5.871129   4.585888   3.771974
    19  C    8.752296   6.584265   6.179881   4.925460   3.860371
    20  Se   7.462369   5.325370   5.006893   3.837015   2.692710
    21  C    4.353439   2.438654   2.758728   2.376845   1.396240
    22  N    4.964705   3.537688   4.074568   3.688302   2.529816
    23  S    4.293964   3.557580   4.472804   4.465970   3.541482
    24  N    2.971309   2.534052   3.685236   4.060010   3.515758
    25  C    2.933666   1.410652   2.383992   2.755072   2.427735
    26  H    5.073682   7.470551   8.720384   9.828353   9.889489
    27  H    5.536999   7.948480   8.981300  10.260392  10.651888
    28  H    2.791387   5.021148   6.328648   7.345182   7.322303
    29  H    3.143469   2.852111   2.786904   4.088153   5.139486
    30  H    5.696743   3.287991   2.068552   1.031994   2.061947
    31  H    6.855320   4.454844   3.675203   2.352345   1.892128
    32  H    7.000494   4.946392   4.649407   3.648995   2.732577
    33  H    7.290209   5.003621   4.268970   3.134054   2.798573
    34  H    9.335783   7.154944   6.638988   5.415181   4.584232
    35  H    9.283344   6.917301   6.148890   4.815981   4.239834
    36  H    9.011980   7.002615   6.770721   5.601593   4.414419
    37  H    9.594835   7.387853   6.901471   5.608473   4.643320
                   16         17         18         19         20
    16  C    0.000000
    17  C    1.548463   0.000000
    18  C    2.420258   1.551924   0.000000
    19  C    2.470943   2.442575   1.543107   0.000000
    20  Se   1.542675   2.440764   2.470708   1.538871   0.000000
    21  C    2.494592   3.341403   4.586010   4.412536   3.170696
    22  N    3.105811   3.790994   4.782169   4.310321   3.189124
    23  S    4.364702   5.006214   6.063397   5.598086   4.480467
    24  N    4.694613   5.396543   6.655020   6.384431   5.158705
    25  C    3.792695   4.568809   5.925441   5.833920   4.566638
    26  H   11.263033  11.891510  13.275531  13.094293  11.834591
    27  H   12.114969  12.749106  14.223029  14.225513  12.925082
    28  H    8.680507   9.328020  10.699045  10.517004   9.259158
    29  H    6.504531   7.150566   8.592454   8.966645   7.768776
    30  H    2.626188   3.298150   4.452324   4.967101   4.055898
    31  H    1.069993   2.282231   2.888918   2.967581   2.055906
    32  H    2.176775   1.070003   2.179855   2.852154   2.850279
    33  H    2.204420   1.069998   2.207525   3.394811   3.393100
    34  H    3.349874   2.175085   1.070003   2.167257   3.332060
    35  H    2.872882   2.196559   1.070006   2.188687   3.051030
    36  H    3.190171   2.974223   2.160038   1.069997   2.156284
    37  H    3.210917   3.324425   2.172017   1.069994   2.168252
                   21         22         23         24         25
    21  C    0.000000
    22  N    1.342795   0.000000
    23  S    2.157303   1.317436   0.000000
    24  N    2.204927   2.171090   1.324937   0.000000
    25  C    1.423140   2.212590   2.158544   1.332180   0.000000
    26  H    8.802433   8.828164   7.641694   6.710083   7.475918
    27  H    9.814787  10.166831   9.153090   7.998161   8.397404
    28  H    6.215073   6.275123   5.137345   4.134461   4.900170
    29  H    5.226522   6.387853   6.326795   5.142381   4.239090
    30  H    3.309899   4.565759   5.443559   5.090298   3.786952
    31  H    3.127243   3.918352   5.116147   5.292351   4.257270
    32  H    3.149752   3.358410   4.468835   4.950175   4.314971
    33  H    3.808098   4.495185   5.615862   5.795986   4.829991
    34  H    5.254433   5.307894   6.526171   7.190651   6.562646
    35  H    5.262741   5.626865   6.923035   7.413305   6.558814
    36  H    4.682288   4.285531   5.484579   6.434778   6.085846
    37  H    5.281511   5.203225   6.482525   7.268460   6.693660
                   26         27         28         29         30
    26  H    0.000000
    27  H    2.587821   0.000000
    28  H    2.587853   4.141335   0.000000
    29  H    7.633895   7.140358   5.782157   0.000000
    30  H   10.751791  11.044208   8.305463   4.474278   0.000000
    31  H   11.679931  12.367212   9.123289   6.373200   2.187823
    32  H   11.380428  12.370842   8.841712   7.251862   3.919657
    33  H   12.034037  12.699361   9.510465   6.788405   2.961522
    34  H   13.743541  14.758819  11.191901   9.310203   5.317397
    35  H   13.989818  14.799966  11.412468   8.806959   4.452961
    36  H   13.092620  14.388167  10.545528   9.539183   5.775647
    37  H   13.966761  15.077215  11.391970   9.674544   5.526171
                   31         32         33         34         35
    31  H    0.000000
    32  H    3.122550   0.000000
    33  H    2.624520   1.700658   0.000000
    34  H    3.922866   2.407791   2.680202   0.000000
    35  H    2.963001   3.049300   2.473504   1.711019   0.000000
    36  H    3.875761   3.014953   3.979118   2.326993   2.989829
    37  H    3.412045   3.870747   4.160753   2.744975   2.371227
                   36         37
    36  H    0.000000
    37  H    1.726941   0.000000
 Stoichiometry    C16H13N5S2Se
 Framework group  C1[X(C16H13N5S2Se)]
 Deg. of freedom   105
 Full point group                 C1      NOp   1
 Largest Abelian subgroup         C1      NOp   1
 Largest concise Abelian subgroup C1      NOp   1
                         Standard orientation:                         
 ---------------------------------------------------------------------
 Center     Atomic      Atomic             Coordinates (Angstroms)
 Number     Number       Type             X           Y           Z
 ---------------------------------------------------------------------
      1          6           0       -6.701488   -1.730526    0.127854
      2          6           0       -7.391716   -0.566600    0.054026
      3          7           0       -6.518187    0.400989   -0.008250
      4          1           0       -6.739933    1.374129   -0.070074
      5          6           0       -5.328874   -0.087300    0.021970
      6          6           0       -5.390423   -1.387803    0.111912
      7          6           0       -4.110595    0.685811   -0.034961
      8          7           0       -4.048480    1.985873   -0.130776
      9          6           0       -2.737294    2.326507   -0.167787
     10          6           0       -2.047561    1.163424   -0.077780
     11         16           0       -2.921494    0.197378    0.000719
     12          6           0       -0.610765    1.019582   -0.070130
     13          7           0        0.183898    2.108440   -0.155902
     14          6           0        1.538792    2.002089   -0.158560
     15          6           0        2.156942    0.803756   -0.063422
     16          6           0        3.637019    0.728636   -0.057500
     17          6           0        4.189805    0.873318    1.381678
     18          6           0        5.714307    0.661749    1.182681
     19          6           0        5.806756   -0.441975    0.108239
     20         34           0        4.485780   -0.399172   -0.679996
     21          6           0        1.395634   -0.362997    0.029232
     22          7           0        1.675857   -1.672475    0.128425
     23         16           0        0.539781   -2.337145    0.184834
     24          7           0       -0.488689   -1.504089    0.123780
     25          6           0       -0.023734   -0.259489    0.026372
     26          1           0       -7.094072   -2.683251    0.184619
     27          1           0       -8.418612   -0.464290    0.048140
     28          1           0       -4.588659   -2.035666    0.161704
     29          1           0       -2.344329    3.277372   -0.248110
     30          1           0        2.110234    2.858008   -0.235166
     31          1           0        3.760880    1.522874   -0.763707
     32          1           0        3.778031    0.128434    2.030136
     33          1           0        3.946536    1.809834    1.838464
     34          1           0        6.175350    0.343398    2.094273
     35          1           0        6.217991    1.559852    0.891773
     36          1           0        5.929646   -1.398732    0.571280
     37          1           0        6.646198   -0.284122   -0.536204
 ---------------------------------------------------------------------
 Rotational constants (GHZ):      0.6665203      0.0748325      0.0689923
 Standard basis: 6-31++G(d,p) (6D, 7F)
 There are   557 symmetry adapted basis functions of A   symmetry.
 Integral buffers will be    131072 words long.
 Raffenetti 2 integral format.
 Two-electron integral symmetry is turned on.
   557 basis functions,   975 primitive gaussians,   557 cartesian basis functions
   105 alpha electrons      105 beta electrons
       nuclear repulsion energy      2865.2434696413 Hartrees.
 NAtoms=   37 NActive=   37 NUniq=   37 SFac= 1.00D+00 NAtFMM=   60 NAOKFM=F Big=F
 One-electron integrals computed using PRISM.
 NBasis=   557 RedAO= T  NBF=   557
 NBsUse=   552 1.00D-06 NBFU=   552
 Harris functional with IExCor=  402 diagonalized for initial guess.
 ExpMin= 3.00D-02 ExpMax= 5.61D+05 ExpMxC= 5.42D+03 IAcc=3 IRadAn=         5 AccDes= 0.00D+00
 HarFok:  IExCor=  402 AccDes= 0.00D+00 IRadAn=         5 IDoV= 1
 ScaDFX=  1.000000  1.000000  1.000000  1.000000
 FoFCou: FMM=F IPFlag=           0 FMFlag=      100000 FMFlg1=           0
         NFxFlg=           0 DoJE=T BraDBF=F KetDBF=T FulRan=T
         Omega=  0.000000  0.000000  1.000000  0.000000  0.000000 ICntrl=     500 IOpCl=  0
         NMat0=    1 NMatS0=    1 NMatT0=    0 NMatD0=    1 NMtDS0=    0 NMtDT0=    0
         I1Cent=           4 NGrid=           0.
 Petite list used in FoFCou.
 Initial guess orbital symmetries:
       Occupied  (A) (A) (A) (A) (A) (A) (A) (A) (A) (A) (A) (A)
                 (A) (A) (A) (A) (A) (A) (A) (A) (A) (A) (A) (A)
                 (A) (A) (A) (A) (A) (A) (A) (A) (A) (A) (A) (A)
                 (A) (A) (A) (A) (A) (A) (A) (A) (A) (A) (A) (A)
                 (A) (A) (A) (A) (A) (A) (A) (A) (A) (A) (A) (A)
                 (A) (A) (A) (A) (A) (A) (A) (A) (A) (A) (A) (A)
                 (A) (A) (A) (A) (A) (A) (A) (A) (A) (A) (A) (A)
                 (A) (A) (A) (A) (A) (A) (A) (A) (A) (A) (A) (A)
                 (A) (A) (A) (A) (A) (A) (A) (A) (A)
       Virtual   (A) (A) (A) (A) (A) (A) (A) (A) (A) (A) (A) (A)
                 (A) (A) (A) (A) (A) (A) (A) (A) (A) (A) (A) (A)
                 (A) (A) (A) (A) (A) (A) (A) (A) (A) (A) (A) (A)
                 (A) (A) (A) (A) (A) (A) (A) (A) (A) (A) (A) (A)
                 (A) (A) (A) (A) (A) (A) (A) (A) (A) (A) (A) (A)
                 (A) (A) (A) (A) (A) (A) (A) (A) (A) (A) (A) (A)
                 (A) (A) (A) (A) (A) (A) (A) (A) (A) (A) (A) (A)
                 (A) (A) (A) (A) (A) (A) (A) (A) (A) (A) (A) (A)
                 (A) (A) (A) (A) (A) (A) (A) (A) (A) (A) (A) (A)
                 (A) (A) (A) (A) (A) (A) (A) (A) (A) (A) (A) (A)
                 (A) (A) (A) (A) (A) (A) (A) (A) (A) (A) (A) (A)
                 (A) (A) (A) (A) (A) (A) (A) (A) (A) (A) (A) (A)
                 (A) (A) (A) (A) (A) (A) (A) (A) (A) (A) (A) (A)
                 (A) (A) (A) (A) (A) (A) (A) (A) (A) (A) (A) (A)
                 (A) (A) (A) (A) (A) (A) (A) (A) (A) (A) (A) (A)
                 (A) (A) (A) (A) (A) (A) (A) (A) (A) (A) (A) (A)
                 (A) (A) (A) (A) (A) (A) (A) (A) (A) (A) (A) (A)
                 (A) (A) (A) (A) (A) (A) (A) (A) (A) (A) (A) (A)
                 (A) (A) (A) (A) (A) (A) (A) (A) (A) (A) (A) (A)
                 (A) (A) (A) (A) (A) (A) (A) (A) (A) (A) (A) (A)
                 (A) (A) (A) (A) (A) (A) (A) (A) (A) (A) (A) (A)
                 (A) (A) (A) (A) (A) (A) (A) (A) (A) (A) (A) (A)
                 (A) (A) (A) (A) (A) (A) (A) (A) (A) (A) (A) (A)
                 (A) (A) (A) (A) (A) (A) (A) (A) (A) (A) (A) (A)
                 (A) (A) (A) (A) (A) (A) (A) (A) (A) (A) (A) (A)
                 (A) (A) (A) (A) (A) (A) (A) (A) (A) (A) (A) (A)
                 (A) (A) (A) (A) (A) (A) (A) (A) (A) (A) (A) (A)
                 (A) (A) (A) (A) (A) (A) (A) (A) (A) (A) (A) (A)
                 (A) (A) (A) (A) (A) (A) (A) (A) (A) (A) (A) (A)
                 (A) (A) (A) (A) (A) (A) (A) (A) (A) (A) (A) (A)
                 (A) (A) (A) (A) (A) (A) (A) (A) (A) (A) (A) (A)
                 (A) (A) (A) (A) (A) (A) (A) (A) (A) (A) (A) (A)
                 (A) (A) (A) (A) (A) (A) (A) (A) (A) (A) (A) (A)
                 (A) (A) (A) (A) (A) (A) (A) (A) (A) (A) (A) (A)
                 (A) (A) (A) (A) (A) (A) (A) (A) (A) (A) (A) (A)
                 (A) (A) (A) (A) (A) (A) (A) (A) (A) (A) (A) (A)
                 (A) (A) (A) (A) (A) (A) (A) (A) (A) (A) (A) (A)
                 (A) (A) (A)
 The electronic state of the initial guess is 1-A.
 Requested convergence on RMS density matrix=1.00D-08 within 128 cycles.
 Requested convergence on MAX density matrix=1.00D-06.
 Requested convergence on             energy=1.00D-06.
 No special actions if energy rises.
 EnCoef did     1 forward-backward iterations
 SCF Done:  E(RB3LYP) =  -4086.17836110     A.U. after   16 cycles
             Convg  =    0.6312D-08             -V/T =  2.0027

 **********************************************************************

            Population analysis using the SCF density.

 **********************************************************************

 Orbital symmetries:
       Occupied  (A) (A) (A) (A) (A) (A) (A) (A) (A) (A) (A) (A)
                 (A) (A) (A) (A) (A) (A) (A) (A) (A) (A) (A) (A)
                 (A) (A) (A) (A) (A) (A) (A) (A) (A) (A) (A) (A)
                 (A) (A) (A) (A) (A) (A) (A) (A) (A) (A) (A) (A)
                 (A) (A) (A) (A) (A) (A) (A) (A) (A) (A) (A) (A)
                 (A) (A) (A) (A) (A) (A) (A) (A) (A) (A) (A) (A)
                 (A) (A) (A) (A) (A) (A) (A) (A) (A) (A) (A) (A)
                 (A) (A) (A) (A) (A) (A) (A) (A) (A) (A) (A) (A)
                 (A) (A) (A) (A) (A) (A) (A) (A) (A)
       Virtual   (A) (A) (A) (A) (A) (A) (A) (A) (A) (A) (A) (A)
                 (A) (A) (A) (A) (A) (A) (A) (A) (A) (A) (A) (A)
                 (A) (A) (A) (A) (A) (A) (A) (A) (A) (A) (A) (A)
                 (A) (A) (A) (A) (A) (A) (A) (A) (A) (A) (A) (A)
                 (A) (A) (A) (A) (A) (A) (A) (A) (A) (A) (A) (A)
                 (A) (A) (A) (A) (A) (A) (A) (A) (A) (A) (A) (A)
                 (A) (A) (A) (A) (A) (A) (A) (A) (A) (A) (A) (A)
                 (A) (A) (A) (A) (A) (A) (A) (A) (A) (A) (A) (A)
                 (A) (A) (A) (A) (A) (A) (A) (A) (A) (A) (A) (A)
                 (A) (A) (A) (A) (A) (A) (A) (A) (A) (A) (A) (A)
                 (A) (A) (A) (A) (A) (A) (A) (A) (A) (A) (A) (A)
                 (A) (A) (A) (A) (A) (A) (A) (A) (A) (A) (A) (A)
                 (A) (A) (A) (A) (A) (A) (A) (A) (A) (A) (A) (A)
                 (A) (A) (A) (A) (A) (A) (A) (A) (A) (A) (A) (A)
                 (A) (A) (A) (A) (A) (A) (A) (A) (A) (A) (A) (A)
                 (A) (A) (A) (A) (A) (A) (A) (A) (A) (A) (A) (A)
                 (A) (A) (A) (A) (A) (A) (A) (A) (A) (A) (A) (A)
                 (A) (A) (A) (A) (A) (A) (A) (A) (A) (A) (A) (A)
                 (A) (A) (A) (A) (A) (A) (A) (A) (A) (A) (A) (A)
                 (A) (A) (A) (A) (A) (A) (A) (A) (A) (A) (A) (A)
                 (A) (A) (A) (A) (A) (A) (A) (A) (A) (A) (A) (A)
                 (A) (A) (A) (A) (A) (A) (A) (A) (A) (A) (A) (A)
                 (A) (A) (A) (A) (A) (A) (A) (A) (A) (A) (A) (A)
                 (A) (A) (A) (A) (A) (A) (A) (A) (A) (A) (A) (A)
                 (A) (A) (A) (A) (A) (A) (A) (A) (A) (A) (A) (A)
                 (A) (A) (A) (A) (A) (A) (A) (A) (A) (A) (A) (A)
                 (A) (A) (A) (A) (A) (A) (A) (A) (A) (A) (A) (A)
                 (A) (A) (A) (A) (A) (A) (A) (A) (A) (A) (A) (A)
                 (A) (A) (A) (A) (A) (A) (A) (A) (A) (A) (A) (A)
                 (A) (A) (A) (A) (A) (A) (A) (A) (A) (A) (A) (A)
                 (A) (A) (A) (A) (A) (A) (A) (A) (A) (A) (A) (A)
                 (A) (A) (A) (A) (A) (A) (A) (A) (A) (A) (A) (A)
                 (A) (A) (A) (A) (A) (A) (A) (A) (A) (A) (A) (A)
                 (A) (A) (A) (A) (A) (A) (A) (A) (A) (A) (A) (A)
                 (A) (A) (A) (A) (A) (A) (A) (A) (A) (A) (A) (A)
                 (A) (A) (A) (A) (A) (A) (A) (A) (A) (A) (A) (A)
                 (A) (A) (A) (A) (A) (A) (A) (A) (A) (A) (A) (A)
                 (A) (A) (A)
 The electronic state is 1-A.
 Alpha  occ. eigenvalues -- -453.84334 -88.97195 -88.87030 -57.44830 -52.11952
 Alpha  occ. eigenvalues --  -52.11735 -52.11492 -14.38326 -14.35370 -14.35026
 Alpha  occ. eigenvalues --  -14.34914 -14.33229 -10.26481 -10.25496 -10.25163
 Alpha  occ. eigenvalues --  -10.23407 -10.22111 -10.21806 -10.21032 -10.20938
 Alpha  occ. eigenvalues --  -10.20777 -10.20655 -10.20283 -10.19599 -10.19322
 Alpha  occ. eigenvalues --  -10.18903 -10.15466 -10.14919  -8.04574  -7.97543
 Alpha  occ. eigenvalues --   -7.70142  -6.00997  -6.00373  -6.00165  -5.93755
 Alpha  occ. eigenvalues --   -5.93025  -5.92901  -5.74586  -5.73870  -5.73053
 Alpha  occ. eigenvalues --   -2.10616  -2.10305  -2.09446  -2.08886  -2.08870
 Alpha  occ. eigenvalues --   -1.17080  -1.08997  -1.02954  -0.97286  -0.96394
 Alpha  occ. eigenvalues --   -0.93962  -0.87847  -0.84771  -0.83658  -0.81458
 Alpha  occ. eigenvalues --   -0.79670  -0.76383  -0.76056  -0.73466  -0.69710
 Alpha  occ. eigenvalues --   -0.68569  -0.64723  -0.63541  -0.62625  -0.60940
 Alpha  occ. eigenvalues --   -0.59460  -0.59052  -0.57306  -0.56179  -0.55073
 Alpha  occ. eigenvalues --   -0.54473  -0.52713  -0.51728  -0.51316  -0.50687
 Alpha  occ. eigenvalues --   -0.50388  -0.47408  -0.45463  -0.45389  -0.44692
 Alpha  occ. eigenvalues --   -0.44467  -0.44368  -0.44223  -0.42111  -0.41195
 Alpha  occ. eigenvalues --   -0.39872  -0.39601  -0.38202  -0.38128  -0.37900
 Alpha  occ. eigenvalues --   -0.36615  -0.35938  -0.34565  -0.33222  -0.32654
 Alpha  occ. eigenvalues --   -0.31682  -0.30032  -0.29255  -0.27819  -0.27644
 Alpha  occ. eigenvalues --   -0.26732  -0.25859  -0.25609  -0.20475  -0.17520
 Alpha virt. eigenvalues --   -0.07349  -0.03457  -0.01829  -0.00766  -0.00469
 Alpha virt. eigenvalues --   -0.00172   0.00021   0.00295   0.01046   0.01612
 Alpha virt. eigenvalues --    0.01847   0.02148   0.02521   0.02764   0.02950
 Alpha virt. eigenvalues --    0.03616   0.03788   0.03930   0.04247   0.04667
 Alpha virt. eigenvalues --    0.05137   0.05679   0.05984   0.06224   0.06611
 Alpha virt. eigenvalues --    0.06930   0.06980   0.07222   0.07720   0.08268
 Alpha virt. eigenvalues --    0.08676   0.09073   0.09275   0.09822   0.09878
 Alpha virt. eigenvalues --    0.10094   0.10290   0.10500   0.10822   0.11048
 Alpha virt. eigenvalues --    0.11375   0.11579   0.11698   0.11888   0.12165
 Alpha virt. eigenvalues --    0.12454   0.12695   0.12955   0.13131   0.13448
 Alpha virt. eigenvalues --    0.13787   0.13974   0.14122   0.14277   0.14508
 Alpha virt. eigenvalues --    0.14534   0.14701   0.14962   0.15348   0.15522
 Alpha virt. eigenvalues --    0.15715   0.15910   0.16447   0.16642   0.16834
 Alpha virt. eigenvalues --    0.16906   0.17177   0.17349   0.17411   0.17757
 Alpha virt. eigenvalues --    0.18032   0.18123   0.18586   0.18730   0.18949
 Alpha virt. eigenvalues --    0.19256   0.19847   0.20006   0.20334   0.20686
 Alpha virt. eigenvalues --    0.21040   0.21367   0.21660   0.22067   0.22306
 Alpha virt. eigenvalues --    0.22709   0.22956   0.23600   0.23968   0.24053
 Alpha virt. eigenvalues --    0.24282   0.24676   0.24709   0.24941   0.25037
 Alpha virt. eigenvalues --    0.25839   0.26215   0.26260   0.26991   0.27457
 Alpha virt. eigenvalues --    0.27609   0.27843   0.28257   0.28419   0.28761
 Alpha virt. eigenvalues --    0.28891   0.29268   0.29441   0.29896   0.30262
 Alpha virt. eigenvalues --    0.30493   0.30989   0.31374   0.32035   0.32277
 Alpha virt. eigenvalues --    0.32620   0.33328   0.33734   0.33942   0.34417
 Alpha virt. eigenvalues --    0.34774   0.35176   0.35221   0.35705   0.36047
 Alpha virt. eigenvalues --    0.36891   0.37205   0.38048   0.38373   0.38621
 Alpha virt. eigenvalues --    0.39001   0.39669   0.40043   0.40165   0.40592
 Alpha virt. eigenvalues --    0.41096   0.41393   0.41994   0.42701   0.43480
 Alpha virt. eigenvalues --    0.44258   0.44463   0.45524   0.46204   0.46587
 Alpha virt. eigenvalues --    0.47375   0.49100   0.50115   0.50474   0.52518
 Alpha virt. eigenvalues --    0.52930   0.53285   0.55901   0.56714   0.57583
 Alpha virt. eigenvalues --    0.58433   0.59155   0.59565   0.63011   0.63742
 Alpha virt. eigenvalues --    0.65703   0.66347   0.66978   0.68244   0.69146
 Alpha virt. eigenvalues --    0.69560   0.69690   0.70717   0.71065   0.71610
 Alpha virt. eigenvalues --    0.71679   0.72182   0.72252   0.72941   0.73280
 Alpha virt. eigenvalues --    0.74196   0.74340   0.75219   0.75372   0.76224
 Alpha virt. eigenvalues --    0.76317   0.76778   0.77783   0.78266   0.78888
 Alpha virt. eigenvalues --    0.79105   0.79137   0.80299   0.80524   0.81277
 Alpha virt. eigenvalues --    0.81603   0.81937   0.83132   0.83913   0.84667
 Alpha virt. eigenvalues --    0.85038   0.86086   0.87434   0.87762   0.88555
 Alpha virt. eigenvalues --    0.88801   0.89488   0.90433   0.91388   0.92707
 Alpha virt. eigenvalues --    0.93229   0.94300   0.95549   0.96172   0.96598
 Alpha virt. eigenvalues --    0.96823   0.97485   0.98032   0.98197   0.99626
 Alpha virt. eigenvalues --    1.00381   1.00887   1.01019   1.02266   1.02604
 Alpha virt. eigenvalues --    1.03219   1.03365   1.04618   1.04946   1.06051
 Alpha virt. eigenvalues --    1.07129   1.07829   1.08459   1.10083   1.11030
 Alpha virt. eigenvalues --    1.11775   1.12367   1.13228   1.14059   1.14884
 Alpha virt. eigenvalues --    1.15617   1.16698   1.17163   1.17937   1.19959
 Alpha virt. eigenvalues --    1.20433   1.21735   1.22400   1.23281   1.24525
 Alpha virt. eigenvalues --    1.24965   1.25244   1.26187   1.26625   1.28466
 Alpha virt. eigenvalues --    1.29205   1.30351   1.30738   1.31706   1.32570
 Alpha virt. eigenvalues --    1.32839   1.33349   1.33796   1.34802   1.35618
 Alpha virt. eigenvalues --    1.35655   1.37032   1.37237   1.38299   1.39819
 Alpha virt. eigenvalues --    1.40145   1.41187   1.43337   1.43601   1.45342
 Alpha virt. eigenvalues --    1.45726   1.45936   1.48846   1.50630   1.51641
 Alpha virt. eigenvalues --    1.52659   1.55362   1.56828   1.57526   1.59573
 Alpha virt. eigenvalues --    1.62072   1.63292   1.65211   1.65222   1.68423
 Alpha virt. eigenvalues --    1.69026   1.70984   1.72804   1.74148   1.74944
 Alpha virt. eigenvalues --    1.77269   1.77689   1.77921   1.78673   1.80031
 Alpha virt. eigenvalues --    1.81168   1.81851   1.83734   1.83998   1.84919
 Alpha virt. eigenvalues --    1.87294   1.88722   1.90497   1.90742   1.93208
 Alpha virt. eigenvalues --    1.94278   1.94938   1.95749   1.97876   1.98681
 Alpha virt. eigenvalues --    1.99133   2.00407   2.00532   2.01938   2.04288
 Alpha virt. eigenvalues --    2.05891   2.06114   2.06975   2.08371   2.08790
 Alpha virt. eigenvalues --    2.09611   2.09955   2.11276   2.11684   2.14125
 Alpha virt. eigenvalues --    2.17370   2.17655   2.18098   2.19525   2.20325
 Alpha virt. eigenvalues --    2.20963   2.22946   2.23671   2.24269   2.26083
 Alpha virt. eigenvalues --    2.26467   2.27356   2.28109   2.31702   2.32154
 Alpha virt. eigenvalues --    2.32848   2.33422   2.34617   2.37083   2.38759
 Alpha virt. eigenvalues --    2.39958   2.41154   2.42508   2.44179   2.45317
 Alpha virt. eigenvalues --    2.45656   2.46004   2.47813   2.48657   2.49739
 Alpha virt. eigenvalues --    2.51423   2.52246   2.53123   2.53378   2.53755
 Alpha virt. eigenvalues --    2.54798   2.55591   2.56024   2.56457   2.60979
 Alpha virt. eigenvalues --    2.61452   2.62126   2.63315   2.65472   2.66572
 Alpha virt. eigenvalues --    2.68180   2.68573   2.69324   2.70189   2.71205
 Alpha virt. eigenvalues --    2.71750   2.72718   2.74837   2.75535   2.75973
 Alpha virt. eigenvalues --    2.79414   2.79907   2.81267   2.81428   2.82392
 Alpha virt. eigenvalues --    2.83977   2.84327   2.84700   2.86284   2.86893
 Alpha virt. eigenvalues --    2.88208   2.88781   2.89909   2.90957   2.94817
 Alpha virt. eigenvalues --    2.98267   3.00313   3.01547   3.02418   3.04986
 Alpha virt. eigenvalues --    3.07806   3.12937   3.14562   3.19331   3.20970
 Alpha virt. eigenvalues --    3.27382   3.33036   3.37279   3.38170   3.39384
 Alpha virt. eigenvalues --    3.39785   3.43530   3.48221   3.48741   3.49368
 Alpha virt. eigenvalues --    3.50810   3.54774   3.60161   3.67877   3.74705
 Alpha virt. eigenvalues --    3.85214   3.99575   3.99877   4.08389   4.23619
 Alpha virt. eigenvalues --    4.33612   4.34886   4.37177   4.37838   4.40465
 Alpha virt. eigenvalues --    4.41649   4.42319   4.46391   4.49907   4.52952
 Alpha virt. eigenvalues --    4.54860   4.58269   4.61709   4.65704   4.73376
 Alpha virt. eigenvalues --    4.75320   4.76957   4.88504   4.90403   5.00004
 Alpha virt. eigenvalues --    8.59861  84.90403
          Condensed to atoms (all electrons):
              1          2          3          4          5          6
     1  C    9.693215  -1.924245  -0.028310   0.074656   1.290667  -3.548805
     2  C   -1.924245   7.015509   0.140584  -0.133087  -1.286032   1.670037
     3  N   -0.028310   0.140584   7.057878   0.307075  -0.352674   0.074490
     4  H    0.074656  -0.133087   0.307075   0.460550  -0.041473   0.177678
     5  C    1.290667  -1.286032  -0.352674  -0.041473  14.144464  -5.585548
     6  C   -3.548805   1.670037   0.074490   0.177678  -5.585548  17.269398
     7  C    0.550901  -0.226414  -0.318915  -0.166348   4.343958  -2.210469
     8  N    0.073590  -0.015180  -0.019967   0.033354  -0.471349  -0.111095
     9  C    0.104636  -0.060271  -0.087732   0.009248  -0.170675   0.295224
    10  C   -0.238145   0.259323   0.016503  -0.011708  -1.343497  -1.338042
    11  S   -0.007318   0.057888   0.424946  -0.006732  -2.625677  -2.214337
    12  C   -0.072397  -0.015136  -0.003000  -0.002816   0.335173  -0.125304
    13  N    0.002008  -0.000219  -0.000916   0.000034  -0.016437  -0.005758
    14  C   -0.004730  -0.000325  -0.000638  -0.000132   0.037163  -0.012862
    15  C    0.004993  -0.000902   0.001328   0.000248  -0.061304   0.016908
    16  C   -0.000109   0.000169   0.000055   0.000018  -0.003360  -0.003103
    17  C    0.000085  -0.000039   0.000002   0.000002  -0.001012   0.000703
    18  C    0.000002   0.000000   0.000000  -0.000000  -0.000013  -0.000013
    19  C   -0.000000  -0.000000   0.000000   0.000000  -0.000004   0.000009
    20  Se   0.000047   0.000032   0.000002   0.000002  -0.000162   0.000051
    21  C    0.015357   0.000076  -0.001282   0.000032  -0.098512  -0.010791
    22  N   -0.002158   0.000527   0.000113   0.000006   0.000322   0.001239
    23  S    0.009062  -0.001375  -0.000523   0.000137  -0.007587  -0.033818
    24  N   -0.011195   0.003611   0.001662   0.000169   0.007400  -0.020362
    25  C    0.150198  -0.023788   0.004135   0.000465  -0.801319   0.024368
    26  H    0.667653  -0.181531   0.028257   0.000956   0.110107  -0.388516
    27  H   -0.275501   0.514129  -0.092880  -0.018677   0.049822   0.040891
    28  H   -0.329587   0.102652   0.078738   0.005728  -0.671007   1.161773
    29  H    0.005857  -0.002222  -0.000100   0.000275   0.009426   0.015831
    30  H   -0.000096  -0.000012  -0.000013  -0.000018   0.000821  -0.000068
    31  H   -0.000047   0.000032  -0.000002  -0.000002   0.000507  -0.000330
    32  H   -0.000027   0.000003   0.000000  -0.000001   0.000056  -0.000104
    33  H    0.000008  -0.000001  -0.000001   0.000001   0.000007   0.000058
    34  H    0.000000   0.000000   0.000000   0.000000  -0.000001   0.000001
    35  H   -0.000000  -0.000000   0.000000  -0.000000  -0.000002  -0.000001
    36  H    0.000000  -0.000000  -0.000000  -0.000000  -0.000006   0.000002
    37  H   -0.000000   0.000000  -0.000000  -0.000000   0.000004  -0.000001
              7          8          9         10         11         12
     1  C    0.550901   0.073590   0.104636  -0.238145  -0.007318  -0.072397
     2  C   -0.226414  -0.015180  -0.060271   0.259323   0.057888  -0.015136
     3  N   -0.318915  -0.019967  -0.087732   0.016503   0.424946  -0.003000
     4  H   -0.166348   0.033354   0.009248  -0.011708  -0.006732  -0.002816
     5  C    4.343958  -0.471349  -0.170675  -1.343497  -2.625677   0.335173
     6  C   -2.210469  -0.111095   0.295224  -1.338042  -2.214337  -0.125304
     7  C   25.242527  -0.443069  -1.393799  -9.376909  -5.772439   3.012100
     8  N   -0.443069   7.254202   0.275012   0.622100   0.088882  -0.130051
     9  C   -1.393799   0.275012  14.285007  -4.399252  -0.376747  -0.431455
    10  C   -9.376909   0.622100  -4.399252  24.934035   1.149603   4.376815
    11  S   -5.772439   0.088882  -0.376747   1.149603  27.878393   0.713508
    12  C    3.012100  -0.130051  -0.431455   4.376815   0.713508  26.576280
    13  N   -0.154439   0.009181  -0.086737  -0.731378   0.259631  -0.318105
    14  C    0.523871  -0.033798   0.329622   0.913434   0.377052   3.666718
    15  C   -0.242386   0.028745  -0.055571   0.407882  -0.442348  -1.513630
    16  C   -0.234900   0.003215  -0.017353   0.122242  -0.220457   0.518299
    17  C    0.039781  -0.000106   0.005694   0.087904   0.007430  -0.262018
    18  C   -0.002297   0.000016   0.000488  -0.013337  -0.002788  -0.049612
    19  C    0.001517  -0.000014  -0.000840   0.006379   0.001041   0.020702
    20  Se  -0.013987  -0.000003  -0.013525   0.038503  -0.013171   0.220556
    21  C   -1.195620   0.039432  -0.081178  -2.733455  -0.995982 -12.156934
    22  N   -0.033056  -0.001923  -0.135850  -0.098984  -0.140014   0.254987
    23  S   -0.155089   0.005567   0.002920  -0.202035   0.053085  -1.100802
    24  N    0.177687  -0.004168  -0.048617  -0.287993   0.326828  -0.582659
    25  C   -5.160673   0.131684  -2.976253  -5.145126  -3.193794 -16.199634
    26  H    0.041658   0.000628  -0.001762   0.001553  -0.010076   0.000363
    27  H    0.036816  -0.003838  -0.001259   0.007961  -0.020544  -0.000274
    28  H   -0.297487  -0.002410   0.057811   0.002519   0.005667  -0.031257
    29  H   -0.023800  -0.086563   0.500624  -0.214364   0.140699  -0.111896
    30  H    0.018876  -0.001446   0.000728   0.013730   0.001433   0.034666
    31  H   -0.019253   0.000138  -0.002098  -0.044604  -0.004965   0.084798
    32  H   -0.001476  -0.000026  -0.000793  -0.015107  -0.004370  -0.067102
    33  H    0.000819   0.000025   0.000727   0.008822   0.003036   0.021547
    34  H   -0.000088   0.000001   0.000077   0.000732  -0.000119   0.006793
    35  H    0.000074   0.000000   0.000142  -0.001283  -0.000094  -0.013708
    36  H    0.000459  -0.000000   0.000220   0.000094   0.000960  -0.019966
    37  H   -0.000208  -0.000000  -0.000068  -0.001294  -0.000357   0.005160
             13         14         15         16         17         18
     1  C    0.002008  -0.004730   0.004993  -0.000109   0.000085   0.000002
     2  C   -0.000219  -0.000325  -0.000902   0.000169  -0.000039   0.000000
     3  N   -0.000916  -0.000638   0.001328   0.000055   0.000002   0.000000
     4  H    0.000034  -0.000132   0.000248   0.000018   0.000002  -0.000000
     5  C   -0.016437   0.037163  -0.061304  -0.003360  -0.001012  -0.000013
     6  C   -0.005758  -0.012862   0.016908  -0.003103   0.000703  -0.000013
     7  C   -0.154439   0.523871  -0.242386  -0.234900   0.039781  -0.002297
     8  N    0.009181  -0.033798   0.028745   0.003215  -0.000106   0.000016
     9  C   -0.086737   0.329622  -0.055571  -0.017353   0.005694   0.000488
    10  C   -0.731378   0.913434   0.407882   0.122242   0.087904  -0.013337
    11  S    0.259631   0.377052  -0.442348  -0.220457   0.007430  -0.002788
    12  C   -0.318105   3.666718  -1.513630   0.518299  -0.262018  -0.049612
    13  N    7.233703  -1.173811   0.908327   0.026949   0.022266   0.010220
    14  C   -1.173811  19.051343  -8.653676  -3.472249   0.168278  -0.225335
    15  C    0.908327  -8.653676  15.503959  -0.404581   0.341022  -0.002928
    16  C    0.026949  -3.472249  -0.404581  14.108737  -3.474973   0.696599
    17  C    0.022266   0.168278   0.341022  -3.474973   9.239978  -0.689762
    18  C    0.010220  -0.225335  -0.002928   0.696599  -0.689762   6.063755
    19  C    0.000532   0.080490   0.040257  -0.694081   0.274541   0.093630
    20  Se  -0.010282  -0.248005  -0.395183   0.063029   0.234042  -0.160093
    21  C    0.356985  -3.089674   0.602151  -0.179237   0.147308   0.028028
    22  N   -0.013240  -0.074101  -0.073035  -0.151918   0.083249  -0.004781
    23  S    0.036285   0.346986  -0.185638  -0.398586   0.064346   0.009910
    24  N    0.025262   0.136927  -0.257508  -0.314515   0.064902   0.000521
    25  C    0.921525  -3.870538   1.603703  -0.614656  -0.022388  -0.023093
    26  H    0.000000   0.000055  -0.000068  -0.000005   0.000000  -0.000000
    27  H    0.000005   0.000005  -0.000041   0.000002  -0.000001   0.000000
    28  H   -0.001015  -0.001995   0.003990  -0.000643   0.000145  -0.000006
    29  H   -0.007937   0.015392  -0.019318  -0.000130  -0.000803  -0.000016
    30  H   -0.172940   1.222750  -0.663805  -0.250089   0.079760  -0.015025
    31  H    0.007321  -0.168972  -0.217418   1.230608  -0.658366   0.001812
    32  H    0.000291   0.007908   0.024447   0.145578   0.213221   0.045961
    33  H    0.004907  -0.073774  -0.048169  -0.048534   0.435757  -0.075040
    34  H   -0.000231  -0.006562  -0.026641  -0.025382   0.010398   0.345258
    35  H    0.000600  -0.000065   0.055948   0.047428  -0.098231   0.452376
    36  H    0.000912   0.000258   0.067724  -0.080052   0.049748  -0.025281
    37  H   -0.000348   0.000545  -0.050699   0.086926  -0.016118  -0.034081
             19         20         21         22         23         24
     1  C   -0.000000   0.000047   0.015357  -0.002158   0.009062  -0.011195
     2  C   -0.000000   0.000032   0.000076   0.000527  -0.001375   0.003611
     3  N    0.000000   0.000002  -0.001282   0.000113  -0.000523   0.001662
     4  H    0.000000   0.000002   0.000032   0.000006   0.000137   0.000169
     5  C   -0.000004  -0.000162  -0.098512   0.000322  -0.007587   0.007400
     6  C    0.000009   0.000051  -0.010791   0.001239  -0.033818  -0.020362
     7  C    0.001517  -0.013987  -1.195620  -0.033056  -0.155089   0.177687
     8  N   -0.000014  -0.000003   0.039432  -0.001923   0.005567  -0.004168
     9  C   -0.000840  -0.013525  -0.081178  -0.135850   0.002920  -0.048617
    10  C    0.006379   0.038503  -2.733455  -0.098984  -0.202035  -0.287993
    11  S    0.001041  -0.013171  -0.995982  -0.140014   0.053085   0.326828
    12  C    0.020702   0.220556 -12.156934   0.254987  -1.100802  -0.582659
    13  N    0.000532  -0.010282   0.356985  -0.013240   0.036285   0.025262
    14  C    0.080490  -0.248005  -3.089674  -0.074101   0.346986   0.136927
    15  C    0.040257  -0.395183   0.602151  -0.073035  -0.185638  -0.257508
    16  C   -0.694081   0.063029  -0.179237  -0.151918  -0.398586  -0.314515
    17  C    0.274541   0.234042   0.147308   0.083249   0.064346   0.064902
    18  C    0.093630  -0.160093   0.028028  -0.004781   0.009910   0.000521
    19  C    5.231443   0.352572   0.008799   0.010129   0.002049   0.005140
    20  Se   0.352572  35.731397  -0.266233   0.015543  -0.121342  -0.116512
    21  C    0.008799  -0.266233  15.528234   0.420550   0.176988   0.330777
    22  N    0.010129   0.015543   0.420550   8.344132  -0.480420  -0.848524
    23  S    0.002049  -0.121342   0.176988  -0.480420  16.958050  -0.046777
    24  N    0.005140  -0.116512   0.330777  -0.848524  -0.046777   8.698237
    25  C    0.013068  -0.228888   8.674862   0.135576  -0.090632   0.025017
    26  H    0.000000   0.000007  -0.000220   0.000017   0.000635  -0.000017
    27  H   -0.000000   0.000001   0.000041   0.000003  -0.000023  -0.000006
    28  H    0.000006  -0.000561   0.007355  -0.003253  -0.023837   0.001597
    29  H   -0.000025   0.000065  -0.003265   0.000594  -0.001426  -0.002401
    30  H    0.012124  -0.004737  -0.065777  -0.003157   0.004137   0.008472
    31  H   -0.071482  -0.373373  -0.031168  -0.015015  -0.022538  -0.016669
    32  H   -0.038362  -0.227245   0.100483   0.002100   0.009019   0.003751
    33  H    0.043468   0.141912  -0.033701   0.000242  -0.004898  -0.000856
    34  H   -0.006852   0.084882  -0.010722  -0.000762  -0.002057  -0.000779
    35  H   -0.051497  -0.109705   0.020245   0.001077   0.002911   0.001014
    36  H    0.434600  -0.363634   0.046207   0.013585   0.017293   0.008302
    37  H    0.359826  -0.114208  -0.010740  -0.005811  -0.005004  -0.001287
             25         26         27         28         29         30
     1  C    0.150198   0.667653  -0.275501  -0.329587   0.005857  -0.000096
     2  C   -0.023788  -0.181531   0.514129   0.102652  -0.002222  -0.000012
     3  N    0.004135   0.028257  -0.092880   0.078738  -0.000100  -0.000013
     4  H    0.000465   0.000956  -0.018677   0.005728   0.000275  -0.000018
     5  C   -0.801319   0.110107   0.049822  -0.671007   0.009426   0.000821
     6  C    0.024368  -0.388516   0.040891   1.161773   0.015831  -0.000068
     7  C   -5.160673   0.041658   0.036816  -0.297487  -0.023800   0.018876
     8  N    0.131684   0.000628  -0.003838  -0.002410  -0.086563  -0.001446
     9  C   -2.976253  -0.001762  -0.001259   0.057811   0.500624   0.000728
    10  C   -5.145126   0.001553   0.007961   0.002519  -0.214364   0.013730
    11  S   -3.193794  -0.010076  -0.020544   0.005667   0.140699   0.001433
    12  C  -16.199634   0.000363  -0.000274  -0.031257  -0.111896   0.034666
    13  N    0.921525   0.000000   0.000005  -0.001015  -0.007937  -0.172940
    14  C   -3.870538   0.000055   0.000005  -0.001995   0.015392   1.222750
    15  C    1.603703  -0.000068  -0.000041   0.003990  -0.019318  -0.663805
    16  C   -0.614656  -0.000005   0.000002  -0.000643  -0.000130  -0.250089
    17  C   -0.022388   0.000000  -0.000001   0.000145  -0.000803   0.079760
    18  C   -0.023093  -0.000000   0.000000  -0.000006  -0.000016  -0.015025
    19  C    0.013068   0.000000  -0.000000   0.000006  -0.000025   0.012124
    20  Se  -0.228888   0.000007   0.000001  -0.000561   0.000065  -0.004737
    21  C    8.674862  -0.000220   0.000041   0.007355  -0.003265  -0.065777
    22  N    0.135576   0.000017   0.000003  -0.003253   0.000594  -0.003157
    23  S   -0.090632   0.000635  -0.000023  -0.023837  -0.001426   0.004137
    24  N    0.025017  -0.000017  -0.000006   0.001597  -0.002401   0.008472
    25  C   32.911743  -0.000352  -0.000551   0.048995  -0.029352  -0.039608
    26  H   -0.000352   0.659674  -0.006773  -0.028172   0.000107  -0.000001
    27  H   -0.000551  -0.006773   0.659030  -0.008619  -0.000048   0.000000
    28  H    0.048995  -0.028172  -0.008619   0.771044   0.000580   0.000061
    29  H   -0.029352   0.000107  -0.000048   0.000580   0.633443  -0.002065
    30  H   -0.039608  -0.000001   0.000000   0.000061  -0.002065   0.732972
    31  H    0.051420  -0.000001   0.000001  -0.000024   0.001058  -0.071402
    32  H    0.028964  -0.000001   0.000000   0.000069  -0.000028   0.001965
    33  H   -0.025517   0.000000   0.000000  -0.000015  -0.000003  -0.012034
    34  H   -0.003701   0.000000   0.000000  -0.000002   0.000011  -0.001379
    35  H    0.006857  -0.000000  -0.000000   0.000002  -0.000019   0.002690
    36  H    0.014805  -0.000000  -0.000000   0.000016  -0.000017   0.002089
    37  H   -0.007201   0.000000   0.000000  -0.000001   0.000021  -0.003369
             31         32         33         34         35         36
     1  C   -0.000047  -0.000027   0.000008   0.000000  -0.000000   0.000000
     2  C    0.000032   0.000003  -0.000001   0.000000  -0.000000  -0.000000
     3  N   -0.000002   0.000000  -0.000001   0.000000   0.000000  -0.000000
     4  H   -0.000002  -0.000001   0.000001   0.000000  -0.000000  -0.000000
     5  C    0.000507   0.000056   0.000007  -0.000001  -0.000002  -0.000006
     6  C   -0.000330  -0.000104   0.000058   0.000001  -0.000001   0.000002
     7  C   -0.019253  -0.001476   0.000819  -0.000088   0.000074   0.000459
     8  N    0.000138  -0.000026   0.000025   0.000001   0.000000  -0.000000
     9  C   -0.002098  -0.000793   0.000727   0.000077   0.000142   0.000220
    10  C   -0.044604  -0.015107   0.008822   0.000732  -0.001283   0.000094
    11  S   -0.004965  -0.004370   0.003036  -0.000119  -0.000094   0.000960
    12  C    0.084798  -0.067102   0.021547   0.006793  -0.013708  -0.019966
    13  N    0.007321   0.000291   0.004907  -0.000231   0.000600   0.000912
    14  C   -0.168972   0.007908  -0.073774  -0.006562  -0.000065   0.000258
    15  C   -0.217418   0.024447  -0.048169  -0.026641   0.055948   0.067724
    16  C    1.230608   0.145578  -0.048534  -0.025382   0.047428  -0.080052
    17  C   -0.658366   0.213221   0.435757   0.010398  -0.098231   0.049748
    18  C    0.001812   0.045961  -0.075040   0.345258   0.452376  -0.025281
    19  C   -0.071482  -0.038362   0.043468  -0.006852  -0.051497   0.434600
    20  Se  -0.373373  -0.227245   0.141912   0.084882  -0.109705  -0.363634
    21  C   -0.031168   0.100483  -0.033701  -0.010722   0.020245   0.046207
    22  N   -0.015015   0.002100   0.000242  -0.000762   0.001077   0.013585
    23  S   -0.022538   0.009019  -0.004898  -0.002057   0.002911   0.017293
    24  N   -0.016669   0.003751  -0.000856  -0.000779   0.001014   0.008302
    25  C    0.051420   0.028964  -0.025517  -0.003701   0.006857   0.014805
    26  H   -0.000001  -0.000001   0.000000   0.000000  -0.000000  -0.000000
    27  H    0.000001   0.000000   0.000000   0.000000  -0.000000  -0.000000
    28  H   -0.000024   0.000069  -0.000015  -0.000002   0.000002   0.000016
    29  H    0.001058  -0.000028  -0.000003   0.000011  -0.000019  -0.000017
    30  H   -0.071402   0.001965  -0.012034  -0.001379   0.002690   0.002089
    31  H    1.159192   0.027380   0.003655   0.005092  -0.011950  -0.028396
    32  H    0.027380   0.606197  -0.103823  -0.041417   0.046762   0.049889
    33  H    0.003655  -0.103823   0.641845   0.035599  -0.056856  -0.023424
    34  H    0.005092  -0.041417   0.035599   0.559228  -0.068232  -0.050271
    35  H   -0.011950   0.046762  -0.056856  -0.068232   0.590189   0.059784
    36  H   -0.028396   0.049889  -0.023424  -0.050271   0.059784   0.847529
    37  H    0.072497  -0.018071   0.015237   0.033475  -0.065879  -0.185434
             37
     1  C   -0.000000
     2  C    0.000000
     3  N   -0.000000
     4  H   -0.000000
     5  C    0.000004
     6  C   -0.000001
     7  C   -0.000208
     8  N   -0.000000
     9  C   -0.000068
    10  C   -0.001294
    11  S   -0.000357
    12  C    0.005160
    13  N   -0.000348
    14  C    0.000545
    15  C   -0.050699
    16  C    0.086926
    17  C   -0.016118
    18  C   -0.034081
    19  C    0.359826
    20  Se  -0.114208
    21  C   -0.010740
    22  N   -0.005811
    23  S   -0.005004
    24  N   -0.001287
    25  C   -0.007201
    26  H    0.000000
    27  H    0.000000
    28  H   -0.000001
    29  H    0.000021
    30  H   -0.003369
    31  H    0.072497
    32  H   -0.018071
    33  H    0.015237
    34  H    0.033475
    35  H   -0.065879
    36  H   -0.185434
    37  H    0.774290
 Mulliken atomic charges:
              1
     1  C   -0.200268
     2  C    0.106207
     3  N   -0.228818
     4  H    0.310358
     5  C   -0.792247
     6  C    0.860665
     7  C   -0.547923
     8  N   -0.240767
     9  C    0.473652
    10  C   -0.773623
    11  S    0.562245
    12  C   -0.640710
    13  N   -0.133156
    14  C    0.232448
    15  C   -0.296785
    16  C   -0.460939
    17  C   -0.346746
    18  C   -0.425078
    19  C   -0.129166
    20  Se  -0.101795
    21  C    0.460577
    22  N   -0.197990
    23  S    1.185024
    24  N   -0.266435
    25  C   -0.290322
    26  H    0.105823
    27  H    0.120325
    28  H    0.151142
    29  H    0.181814
    30  H    0.169767
    31  H    0.112563
    32  H    0.203906
    33  H    0.148975
    34  H    0.163653
    35  H    0.189421
    36  H    0.162005
    37  H    0.172196
 Sum of Mulliken atomic charges =  -0.00000
 Mulliken charges with hydrogens summed into heavy atoms:
              1
     1  C   -0.094445
     2  C    0.226532
     3  N    0.081540
     5  C   -0.792247
     6  C    1.011807
     7  C   -0.547923
     8  N   -0.240767
     9  C    0.655467
    10  C   -0.773623
    11  S    0.562245
    12  C   -0.640710
    13  N   -0.133156
    14  C    0.402215
    15  C   -0.296785
    16  C   -0.348376
    17  C    0.006135
    18  C   -0.072004
    19  C    0.205035
    20  Se  -0.101795
    21  C    0.460577
    22  N   -0.197990
    23  S    1.185024
    24  N   -0.266435
    25  C   -0.290322
 Sum of Mulliken charges with hydrogens summed into heavy atoms =  -0.00000
 Electronic spatial extent (au):  <R**2>=          13972.6468
 Charge=             -0.0000 electrons
 Dipole moment (field-independent basis, Debye):
    X=              2.7522    Y=              0.5138    Z=              1.7909  Tot=              3.3235
 Quadrupole moment (field-independent basis, Debye-Ang):
   XX=           -145.8566   YY=           -165.1728   ZZ=           -164.1493
   XY=              4.4493   XZ=              8.0948   YZ=             -0.6537
 Traceless Quadrupole moment (field-independent basis, Debye-Ang):
   XX=             12.5363   YY=             -6.7799   ZZ=             -5.7564
   XY=              4.4493   XZ=              8.0948   YZ=             -0.6537
 Octapole moment (field-independent basis, Debye-Ang**2):
[...]
 001232,0.00000202,0.00000285,-0.00001327,0.00001440,-0.00000068,-0.000
 00404,-0.00000116,-0.00002507,0.00001836,0.00001719,0.00001745,-0.0000
 1272,-0.00000811,0.00002504,-0.00002430,-0.00013845,-0.00002770,0.0000
 3527,-0.00002817,0.00000608,-0.00004817,0.00001502,0.00002265,0.000079
 40,0.00014981,0.00001055,0.00000567,0.00004074,-0.00000158,-0.00007254
 ,0.00030012,-0.00000727,0.00011892,0.00009171,0.00005666,-0.00003554,-
 0.00026974,-0.00007540,-0.00004727,0.00010409,0.00168340,0.00127367,0.
 00516945,-0.10943030,-0.05128987,-0.09680462,0.00476418,0.00436378,0.0
 0845030,0.00035219,0.00108956,0.00134403,0.00112988,0.00119838,0.00210
 636,-0.00039995,-0.00015564,0.00005676,-0.00087017,0.00030792,-0.00028
 918,0.00035099,0.00001109,-0.00020759,-0.00018316,0.00037848,0.0000995
 0,-0.00004703,-0.00001531,-0.00036527,-0.00000172,0.00000138,-0.000002
 62,-0.00000113,-0.00000082,-0.00000102,0.00000037,-0.00000103,0.,-0.00
 000056,-0.00000962,-0.00000995,0.00000244,-0.00004377,0.00002245,0.000
 82205,0.00069384,0.00019932,-0.01254857,-0.01320475,-0.02501403,0.1133
 1961,0.00000697,0.00003143,-0.00001013,-0.00003296,0.00001610,0.000001
 98,-0.00000751,-0.00002521,-0.00000074,-0.00000111,-0.00000727,-0.0000
 0134,-0.00003708,0.00002683,-0.00003693,0.00002713,-0.00001316,0.00002
 009,0.00006331,0.00000675,0.00009807,-0.00006948,0.00004201,0.00002075
 ,-0.00000077,-0.00007136,-0.00000041,-0.00000070,0.00012032,-0.0000795
 4,0.00001533,-0.00000355,-0.00009311,0.00001947,-0.00009772,-0.0002361
 8,-0.00014357,-0.00002897,-0.00004691,-0.00001451,-0.00018392,-0.00008
 766,-0.00041861,0.00121277,0.00022694,0.00814071,0.00452939,0.01469619
 ,-0.05004724,-0.08974435,-0.08268170,-0.01569447,-0.01026768,-0.023518
 19,0.00299695,-0.00615071,-0.00076082,-0.00029402,-0.00068807,0.003132
 66,0.00022429,0.00007294,-0.00030091,-0.00008083,-0.00015207,-0.000563
 14,0.00008835,-0.00005193,0.00006018,-0.00000052,0.00001852,0.00004777
 ,0.00007909,0.00014230,0.00047130,-0.00000168,0.00000117,0.00000042,-0
 .00000014,0.00000084,0.00000007,0.00000176,-0.00000157,-0.00000115,0.0
 0000073,-0.00001182,0.00000438,-0.00004294,-0.00001113,0.00008090,0.00
 020611,0.00109582,-0.00039605,0.00013216,-0.00005934,0.00093836,0.0560
 6366,0.09864583,0.00000128,0.00000143,-0.00000261,-0.00000518,0.000003
 10,0.00000296,0.00001085,-0.00000169,-0.00000223,-0.00000246,-0.000000
 50,-0.00000345,0.00000190,-0.00000443,-0.00000465,0.00000152,-0.000000
 73,0.00000784,0.00000658,0.00001079,0.00001885,-0.00000647,-0.00000328
 ,0.00001345,-0.00000288,0.00001388,-0.00000473,0.00001673,-0.00004841,
 0.00000567,-0.00000281,-0.00000672,-0.00001484,-0.00004148,0.00007031,
 -0.00008172,0.00011213,0.00003864,0.00001182,-0.00011698,0.00065638,0.
 00021693,0.00115156,-0.00153540,0.00011211,-0.01092164,-0.00730508,-0.
 02106105,-0.09708550,-0.08444684,-0.20197783,-0.00136989,-0.00005243,-
 0.00160081,0.00030732,0.00047999,-0.00053572,0.00043791,0.00002575,-0.
 00324194,-0.00046239,-0.00000838,0.00000568,0.00021264,0.00004736,0.00
 027951,0.00001917,-0.00002565,0.00001308,0.00002584,0.00000721,-0.0000
 2270,-0.00000753,-0.00010739,0.00000205,-0.00000015,0.00000027,-0.0000
 0088,-0.00000031,-0.00000037,-0.00000100,-0.00000003,0.00000017,-0.000
 00246,-0.00000221,0.00000665,-0.00000504,0.00004004,0.00005591,-0.0000
 8461,0.00041334,-0.00043753,0.00123774,0.00237819,0.00296604,0.0054762
 0,0.10465521,0.09003537,0.22087636,0.,-0.00000067,-0.00000555,-0.00000
 191,0.00000122,0.00000002,0.00000347,-0.00000167,-0.00000740,0.0000001
 3,0.00000081,-0.00000082,-0.00000044,-0.00000115,-0.00000436,-0.000000
 28,-0.00000042,0.00000435,0.00002291,0.00003044,0.00006467,-0.00001427
 ,-0.00000591,0.00001029,0.00000227,-0.00000714,0.00000858,-0.00003707,
 -0.00002312,-0.00007840,0.00000327,-0.00000637,-0.00002181,0.00002701,
 0.00003226,-0.00008799,-0.00001443,0.00002635,0.00009052,-0.00014131,0
 .00011433,-0.00000759,0.00020244,0.00021099,-0.00036896,-0.00012353,0.
 00124145,-0.00124930,0.00188443,0.00525748,-0.00758065,-0.06563263,-0.
 03684579,0.05022071,0.00238676,0.00804520,-0.01111653,0.00070599,0.001
 85846,-0.00246535,0.00010966,0.00004024,-0.00004375,-0.00000248,0.0000
 3295,0.00006716,-0.00004903,-0.00001518,0.00003134,0.00001308,-0.00003
 867,-0.00000950,0.00001056,-0.00000534,0.00008199,0.00000003,0.0000002
 2,0.00000065,0.00000025,-0.00000068,0.00000003,-0.00000007,-0.00000046
 ,-0.00000146,-0.00000148,-0.00000085,0.00000569,-0.00000957,-0.0000369
 8,-0.00008969,0.00005622,0.00042632,0.00018889,0.00050146,-0.00040000,
 -0.00078541,-0.00005973,-0.00057799,0.00031232,0.06616513,-0.00001795,
 -0.00006946,0.00000818,0.00007711,-0.00003874,-0.00000496,-0.00001018,
 0.00005733,0.00000039,0.00000344,0.00001382,0.00000002,0.00007406,-0.0
 0005409,0.00000021,-0.00005635,0.00003333,-0.00000570,-0.00014051,-0.0
 0001667,-0.00001533,0.00018565,-0.00006636,-0.00001478,-0.00000741,0.0
 0015041,-0.00003241,-0.00000769,-0.00018401,0.00010195,-0.00004929,-0.
 00000921,0.00004564,-0.00016922,0.00013375,-0.00007593,0.00022906,-0.0
 0022698,-0.00017802,0.00032009,-0.00012822,0.00044449,-0.00066273,-0.0
 0056598,0.00142349,0.00234283,-0.00543401,-0.00205843,-0.00754689,-0.0
 1614648,0.02462653,-0.03569730,-0.13039407,0.11429652,0.00285853,0.006
 29916,-0.00922976,-0.00050697,0.00038602,-0.00246395,-0.00016190,-0.00
 019942,-0.00000700,0.00006244,0.00008584,0.00007233,0.00001054,0.00004
 085,-0.00003925,0.00005630,-0.00003069,-0.00002062,0.00000062,-0.00008
 321,-0.00007454,0.00000304,-0.00000362,0.00000046,0.00000066,-0.000000
 82,0.00000055,-0.00000377,0.00000270,0.00000107,0.00000687,0.00000500,
 -0.00002078,0.00001478,-0.00001130,0.00003926,-0.00011668,0.00019592,0
 .00027293,0.00017206,0.00170953,-0.00005779,-0.00059626,0.00026280,-0.
 00032937,0.03867810,0.14274186,0.00000992,0.00003594,-0.00000272,-0.00
 003724,0.00001986,0.00000012,0.00000121,-0.00002889,-0.00000076,-0.000
 00067,-0.00000846,-0.00000146,-0.00003682,0.00002930,0.00001349,0.0000
 2811,-0.00001762,-0.00001034,0.00006795,-0.00001759,0.00001730,-0.0000
 7160,0.00003579,0.00000750,0.00000390,-0.00006620,0.00000048,0.0000033
 7,0.00007481,-0.00003011,0.00002419,0.00000810,0.00004589,0.00008723,-
 0.00009111,-0.00007305,-0.00011001,0.00008713,-0.00002271,0.00002436,-
 0.00017028,0.00027037,0.00009775,-0.00012710,0.00052107,0.00010718,-0.
 00284708,-0.00077935,-0.00106160,-0.00447084,0.00593108,0.04955487,0.1
 1682062,-0.20331382,0.00523648,0.01394163,-0.02059755,-0.00180825,0.00
 040325,-0.00307951,0.00003613,-0.00003265,-0.00002368,-0.00005377,-0.0
 0004389,0.00014275,0.00003724,0.00002235,-0.00002619,-0.00003712,0.000
 06815,-0.00001537,-0.00000493,-0.00004882,-0.00013770,-0.00000226,0.00
 000203,-0.00000010,-0.00000019,0.00000015,-0.00000069,0.00000355,-0.00
 000115,-0.00000288,-0.00000402,-0.00001146,-0.00001577,-0.00001273,-0.
 00002491,0.00000015,0.00010157,0.00022575,0.00023080,-0.00040482,0.000
 49177,0.00002262,-0.00031013,0.00045093,0.00029621,-0.05264327,-0.1261
 4612,0.22173457,0.00000992,0.00003517,-0.00000127,-0.00003823,0.000019
 53,0.00000275,0.00000531,-0.00002617,0.00000363,-0.00000260,-0.0000081
 6,0.00000087,-0.00003789,0.00002838,-0.00000236,0.00002697,-0.00001660
 ,-0.00000072,0.00005370,-0.00002736,-0.00001792,-0.00006351,0.00004022
 ,0.00000027,-0.00000826,-0.00006659,-0.00000227,0.00001578,0.00008840,
 0.00001825,0.00002561,0.00000314,-0.00000326,0.00001049,-0.00011083,0.
 00000023,-0.00003726,0.00004208,0.00000406,-0.00007194,-0.00003497,-0.
 00000846,0.00027224,0.00007926,0.00005194,0.00053742,-0.00029029,-0.00
 009623,-0.00918147,0.00098387,0.00167017,-0.30019531,0.00940837,0.0322
 4973,-0.01491677,-0.00118792,0.00170881,0.00078951,0.00010039,0.000339
 01,-0.00006074,-0.00010885,0.00001436,-0.00006298,0.00007442,-0.000054
 40,0.00016085,-0.00004680,-0.00002804,-0.00004063,0.00007395,0.0000066
 4,0.00007207,0.00001712,0.00004709,-0.00000133,0.00000091,-0.00000027,
 -0.00000014,0.00000140,-0.00000020,0.00000264,-0.00000143,0.00000021,-
 0.00000173,-0.00000509,0.00000132,0.00001303,-0.00000535,-0.00001434,-
 0.00007942,0.00055337,-0.00035745,0.00119284,0.00189180,0.00041871,0.0
 0075873,0.00028155,0.00022359,-0.00684285,-0.00000749,0.00121082,0.326
 61155,-0.00000154,-0.00000862,-0.00000802,0.00000435,-0.00000243,0.000
 00003,0.00000678,0.00000411,-0.00000953,-0.00000053,0.00000259,-0.0000
 0124,0.00000769,-0.00000822,0.00000428,-0.00000219,0.00000194,0.000006
 33,0.00000738,0.00002150,0.00006814,-0.00000832,-0.00001479,0.00001929
 ,0.00000767,0.00001123,0.00000878,-0.00001878,-0.00004130,-0.00008902,
 -0.00000454,0.00000234,-0.00003405,-0.00000484,0.00000931,-0.00008977,
 -0.00000076,-0.00001280,0.00003336,-0.00004487,0.00019201,-0.00029800,
 -0.00009748,0.00005925,-0.00011354,0.00027085,0.00151846,-0.00100978,0
 .03393544,-0.00246116,-0.00451415,0.00909295,-0.04865663,0.00081701,-0
 .01327305,-0.00132085,0.00093034,0.00016079,0.00063053,-0.00001520,0.0
 0012262,0.00025909,0.00016528,0.00013894,-0.00007774,0.00004986,-0.000
 15674,-0.00005648,0.00005903,0.00004815,-0.00016931,-0.00004596,-0.000
 05358,0.00012892,0.00003555,0.00000014,0.00000051,0.00000057,-0.000000
 08,-0.00000109,0.00000005,-0.00000146,0.00000065,-0.00000072,0.0000013
 2,0.00000588,0.00000689,-0.00000433,-0.00008453,-0.00000331,-0.0004901
 0,-0.00045077,0.00079220,0.00161472,-0.00627868,-0.00061126,-0.0007870
 5,0.00162496,0.00010496,-0.01839261,0.00097987,0.00196060,-0.01092407,
 0.05384711,-0.00000597,-0.00002107,0.00000723,0.00002659,-0.00001409,-
 0.00000259,-0.00000577,0.00001638,0.00000256,0.00000210,0.00000463,0.0
 0000046,0.00002400,-0.00001633,0.00000812,-0.00001967,0.00001193,-0.00
 001182,-0.00004570,0.00000852,-0.00002998,0.00004473,-0.00003093,-0.00
 000909,-0.00000584,0.00003972,-0.00001733,0.00000221,-0.00004315,0.000
 03867,-0.00001727,-0.00000695,0.00004630,-0.00005011,0.00006392,-0.000
 02855,0.00002492,-0.00006519,-0.00002996,0.00000271,-0.00000086,0.0001
 4082,-0.00007959,-0.00000416,0.00019228,-0.00038745,0.00011988,-0.0000
 2648,0.00702086,-0.00048892,-0.00148004,0.03545554,0.00120958,-0.05464
 324,-0.02935255,0.00007123,0.00213885,-0.00032715,-0.00097758,0.001107
 66,0.00003640,0.00006123,-0.00016634,0.00017447,-0.00010946,0.00025552
 ,-0.00005614,0.00000963,0.00000266,0.00006355,-0.00003363,-0.00001119,
 0.00001999,-0.00001584,-0.00002638,0.00000075,-0.00000131,0.,0.0000004
 8,-0.00000038,-0.00000006,-0.00000083,0.00000127,-0.00000045,0.0000039
 0,-0.00000019,-0.00000305,0.00001401,0.00000582,0.00000673,-0.00026103
 ,-0.00002710,0.00040863,-0.00010022,-0.00177869,0.00046231,0.00027622,
 0.00039303,-0.00017734,0.02440069,-0.00164421,-0.00273667,-0.03445407,
 0.00405433,0.05772155,-0.00000371,-0.00001948,0.00000293,0.00002088,-0
 .00001058,-0.00000178,-0.00000270,0.00001674,-0.00000016,-0.00000007,0
 .00000469,0.00000026,0.00002059,-0.00001854,0.00000691,-0.00001397,0.0
 0000807,-0.00000404,-0.00004545,0.00000212,-0.00001496,0.00004500,-0.0
 0001471,-0.00000431,0.00000067,0.00003885,0.00000325,0.00000660,-0.000
 03372,-0.00000889,-0.00001141,0.00000378,0.00001921,-0.00003520,0.0000
 3464,0.00000033,0.00006012,-0.00003744,0.00001522,-0.00000699,0.000048
 14,-0.00005672,0.00000962,0.00009288,0.00003049,0.00046748,0.00018652,
 -0.00016887,0.00038179,0.00009843,0.00039948,-0.01407754,-0.00082788,0
 .00249745,-0.30754221,-0.03857110,0.04190362,0.00295235,0.00022758,0.0
 0003819,-0.00001767,-0.00004730,-0.00001412,0.00008935,0.00000105,-0.0
 0023902,0.00000207,-0.00001159,-0.00000414,0.00003436,-0.00005854,0.00
 001838,-0.00000575,0.00005740,0.00000333,0.00000007,-0.00000069,0.0000
 0006,-0.00000045,-0.00000177,0.00000034,-0.00000190,0.00000178,0.00000
 076,-0.00000003,0.00000757,-0.00000071,0.00000486,0.00000560,-0.000018
 60,-0.00005387,0.00019316,0.00012354,0.00035041,-0.00070020,-0.0000648
 0,0.00010851,-0.00004337,-0.00013172,0.00067153,0.00028951,-0.00024826
 ,0.00012229,-0.00099515,-0.00290318,0.32808540,0.00000432,0.00001045,-
 0.00000828,-0.00001456,0.00000835,-0.00000071,0.00001022,-0.00000661,-
 0.00001011,-0.00000149,-0.00000300,0.00000121,-0.00001387,0.00001081,-
 0.00000090,0.00000836,-0.00000680,0.00000181,0.00003181,-0.00001744,0.
 00007334,0.00000437,0.00001217,0.00000530,-0.00001650,-0.00001950,0.00
 000711,-0.00002048,-0.00000820,-0.00006875,0.00000619,-0.00002147,-0.0
 0000772,-0.00007520,-0.00007687,0.00001392,0.00007124,0.00004677,0.000
 04198,0.00000535,-0.00004108,-0.00003629,-0.00004896,0.00019324,-0.000
 18200,-0.00057855,0.00002910,0.00086287,-0.00052079,0.00043912,0.00096
 867,-0.00866941,-0.00095103,0.00158471,-0.04554984,-0.05151011,-0.0017
 2173,-0.01392669,-0.00946204,0.00935448,-0.00049867,-0.00018619,0.0000
 5939,0.00003917,0.00031799,-0.00007195,0.00044555,-0.00012911,0.000051
 11,-0.00005288,0.00027522,-0.00002870,0.00000012,-0.00005308,-0.000032
 16,-0.00000060,0.00000009,0.00000163,0.00000074,0.00000027,0.00000033,
 0.00000316,-0.00000097,-0.00000158,-0.00000533,0.00001284,0.00000261,0
 .00000946,0.00007852,0.00001246,0.00038269,-0.00010529,-0.00066814,0.0
 0015706,-0.00052094,-0.00041507,0.00043667,0.00023117,-0.00007496,0.00
 037133,0.00065851,-0.00006290,-0.00061699,0.00003513,-0.00115089,0.042
 57628,0.05451382,0.00000748,0.00003078,-0.00000528,-0.00003271,0.00001
 644,-0.00000047,0.00000258,-0.00002649,-0.00000239,-0.00000044,-0.0000
 0664,-0.00000006,-0.00002976,0.00002448,0.00001407,0.00002583,-0.00001
 444,-0.00000353,0.00006012,-0.00000867,0.00002767,-0.00008110,0.000023
 19,0.00001236,0.00001028,-0.00005470,0.00000728,0.00000469,0.00005774,
 -0.00010297,0.00002182,0.00000567,-0.00000642,0.00006468,-0.00005434,-
 0.00003962,-0.00009539,0.00003743,0.00003153,0.00005638,0.00001157,-0.
 00005154,0.00020630,-0.00020710,0.00034047,-0.00002559,-0.00040177,-0.
 00090152,-0.00015457,0.00134120,0.00039877,-0.02996696,-0.00432482,0.0
 0435079,0.04876511,-0.00180333,-0.05121972,0.01320821,0.01057054,-0.00
 841895,0.00011925,-0.00000672,-0.00006864,-0.00005097,-0.00007762,-0.0
 0017221,0.00000165,0.00005338,0.00014110,-0.00006578,0.00002202,-0.000
 01523,-0.00000991,-0.00001596,0.00003783,-0.00000169,0.00000207,0.0000
 0033,-0.00000034,0.00000018,0.00000004,0.00000197,-0.00000125,-0.00000
 007,-0.00000400,-0.00001052,0.00000011,-0.00002136,-0.00003140,-0.0001
 2240,-0.00013199,0.00026299,0.00061970,0.00049681,-0.00070561,-0.00048
 077,-0.00003112,-0.00007937,0.00020080,0.00075791,0.00053105,0.0014543
 8,-0.00298632,-0.00276134,-0.00448836,-0.04257366,-0.00433767,0.059621
 95,-0.00000179,-0.00000782,0.00000213,0.00001179,-0.00000521,-0.000002
 02,-0.00000172,0.00000785,0.00000027,0.00000127,0.00000152,0.00000063,
 0.00000964,-0.00000773,0.00001172,-0.00000408,0.00000386,-0.00000217,-
 0.00002680,-0.00002705,-0.00002312,0.00003752,-0.00000640,-0.00001104,
 0.00000208,0.00002347,0.00000722,0.00002084,-0.00002671,-0.00001035,-0
 .00001107,0.00000150,0.00001076,-0.00004197,-0.00003947,0.00004899,0.0
 0006237,0.00000320,0.00005210,0.00007885,-0.00008786,0.00001874,-0.000
 07766,-0.00006481,-0.00007902,0.00035142,-0.00094302,-0.00033281,-0.00
 116802,-0.00154637,-0.00247677,0.00607125,-0.01434950,-0.00551625,-0.1
 0102620,0.09744554,0.04900830,0.00101760,-0.00273847,-0.00184319,-0.00
 022338,-0.00017123,-0.00003062,-0.00000008,-0.00010088,-0.00024768,0.0
 0019520,-0.00001326,0.00003006,-0.00002277,0.00008359,0.00002118,-0.00
 003218,0.00005336,-0.00002603,-0.00000050,0.00000014,-0.00000013,-0.00
 000051,-0.00000133,0.00000032,0.00000022,0.00000154,0.00000074,0.00000
 214,0.00000560,0.00000114,-0.00001162,0.00003000,-0.00007444,-0.000015
 93,-0.00007737,-0.00020245,0.00016659,-0.00029244,-0.00014228,0.000260
 03,-0.00083807,-0.00016849,0.00016446,0.00037287,0.00021187,0.00096209
 ,-0.00015771,0.00047840,-0.01161502,0.02604673,0.01245260,0.10486592,-
 0.00001722,-0.00006591,0.00000683,0.00007146,-0.00003600,-0.00000385,-
 0.00000738,0.00005384,-0.00000098,0.00000301,0.00001388,-0.00000123,0.
 00007108,-0.00005236,-0.00000312,-0.00005342,0.00003161,0.00000273,-0.
 00012954,0.00000573,0.00000326,0.00016153,-0.00006475,-0.00001346,-0.0
 0000119,0.00013817,-0.00000597,-0.00002100,-0.00017186,-0.00000042,-0.
 00004581,-0.00001260,-0.00000197,-0.00015184,0.00014401,0.00007212,0.0
 0022949,-0.00013872,0.00008683,0.00014410,0.00013487,-0.00017807,-0.00
 034179,-0.00047138,-0.00065295,0.00054760,-0.00098256,0.00122908,-0.00
 127561,-0.00043077,-0.00151700,0.00288199,-0.00472650,-0.00105816,0.09
 978537,-0.22606037,-0.09528976,0.00326271,-0.01300640,-0.00272526,-0.0
 0020263,-0.00007553,0.00002969,0.00005692,0.00012532,-0.00002872,0.000
 01891,0.00000048,-0.00000185,0.00003619,-0.00002258,0.00001928,-0.0000
 3226,-0.00004345,-0.00000709,0.00000308,-0.00000339,-0.00000024,0.0000
 0044,-0.00000111,-0.00000015,-0.00000464,0.00000224,0.00000035,0.00000
 542,0.00001090,0.00000321,0.00000298,0.00000545,-0.00004571,0.00000581
 ,-0.00015350,-0.00002254,0.00007165,0.00001256,0.00000654,0.00025092,-
 0.00051212,-0.00013503,-0.00000716,-0.00009336,-0.00046110,-0.00023839
 ,0.00031000,0.00035982,-0.00250277,0.00624616,0.00193903,-0.10257804,0
 .23989001,0.00001182,0.00004551,-0.00000406,-0.00005144,0.00002427,0.0
 0000003,0.00000760,-0.00003781,-0.00000112,-0.00000313,-0.00000875,-0.
 00000003,-0.00004864,0.00003236,0.00001415,0.00003719,-0.00002205,-0.0
 0000739,0.00010196,0.00002515,-0.00000294,-0.00012713,0.00004125,0.000
 01234,0.00000446,-0.00009947,0.00000744,0.00002336,0.00011117,0.000009
 83,0.00003589,0.00000936,0.00003439,0.00013782,-0.00001532,-0.00003736
 ,-0.00018235,0.00005735,-0.00012550,-0.00006517,0.00001436,0.00030135,
 0.00044076,0.00030658,0.00114092,-0.00134796,0.00232746,-0.00248363,-0
 .00339114,-0.00014678,-0.00490656,0.01235609,-0.02262874,-0.00803108,0
 .04492128,-0.08923744,-0.08413228,-0.00372714,0.01491275,0.00347306,0.
 00002749,0.00009096,0.00004912,0.00004958,0.00000468,0.00021504,-0.000
 12042,-0.00001680,-0.00002184,0.00001860,-0.00004847,-0.00003045,0.000
 01826,0.00001127,-0.00020584,-0.00000223,0.00000277,0.00000017,-0.0000
 0071,0.00000043,0.00000009,0.00000237,-0.00000166,-0.00000140,-0.00000
 607,-0.00000482,-0.00001325,-0.00000344,0.00003300,0.00004358,0.000094
 83,0.00017751,-0.00011444,-0.00017035,0.00054967,0.00022791,0.00035496
 ,-0.00178510,0.00004835,0.00032197,0.00055388,0.00018162,0.00005512,0.
 00048802,0.00134857,0.00139421,-0.00416243,-0.00115905,-0.05116831,0.0
 9839586,0.09417025\\-0.00000686,0.00000029,-0.00000325,-0.00000180,0.0
 0000396,-0.00000247,0.00000395,0.00000185,0.00000535,-0.00000198,0.,0.
 00000174,0.00000018,-0.00000562,0.00001284,-0.00000457,-0.00000672,-0.
 00000679,-0.00000373,-0.00000114,-0.00000810,0.00000164,-0.00000094,0.
 00000209,-0.00000207,-0.00000143,0.00000409,-0.00002566,0.00000744,0.0
 0000350,0.00002085,-0.00000309,-0.00000155,0.00000256,-0.00000988,0.00
 000171,0.00000059,-0.00000278,0.00000428,0.00000175,0.00000696,0.00000
 297,0.00000240,0.00000204,-0.00000331,0.00000384,0.00002320,0.00001882
 ,-0.00000239,0.00000204,0.00000510,0.00000524,-0.00000483,0.00000040,0
 .00001200,-0.00001124,0.00000708,0.00000071,-0.00000207,-0.00003218,-0
 .00000466,0.00000833,-0.00000272,-0.00003220,0.00000828,0.00000669,0.0
 0004374,0.00000530,-0.00001969,-0.00000832,-0.00001221,0.00000410,0.00
 000722,-0.00000583,-0.00000090,-0.00000450,-0.00000164,-0.00000269,-0.
 00000460,0.00000077,0.00000418,-0.00000329,-0.00000293,-0.00000179,-0.
 00000059,0.00000126,0.00000471,0.00000136,0.00000066,0.00000335,0.0000
 0158,-0.00000208,0.00000600,-0.00000096,-0.00000189,-0.00000574,-0.000
 00142,-0.00000002,0.00000032,-0.00000178,0.00000247,-0.00000199,0.0000
 0147,0.00000062,0.00000135,0.00000051,-0.00000008,-0.00000172,-0.00000
 020,0.00000098,-0.00000579\\\@


 You can't act like a skunk without someone's getting wind of it.
 -- Lorene Workman
 Job cpu time:  0 days 10 hours 51 minutes 50.8 seconds.
 File lengths (MBytes):  RWF=   1291 Int=      0 D2E=      0 Chk=     24 Scr=      1
 Normal termination of Gaussian 09 at Sun Dec 29 05:56:32 2013.
