 Entering Gaussian System, Link 0=g09
 Initial command:
 /opt/gaussian/g09/l1.exe /panfs/panfs.cluster/home/shuo/Gau-20995.inp -scrdir=/panfs/panfs.cluster/home/shuo/
 Default is to use a total of  12 processors:
                               12 via shared-memory
                                1 via Linda
 Entering Link 1 = /opt/gaussian/g09/l1.exe PID=     20996.
  
 Copyright (c) 1988,1990,1992,1993,1995,1998,2003,2009,2011,
            Gaussian, Inc.  All Rights Reserved.
  
 This is part of the Gaussian(R) 09 program.  It is based on
 the Gaussian(R) 03 system (copyright 2003, Gaussian, Inc.),
 the Gaussian(R) 98 system (copyright 1998, Gaussian, Inc.),
 the Gaussian(R) 94 system (copyright 1995, Gaussian, Inc.),
 the Gaussian 92(TM) system (copyright 1992, Gaussian, Inc.),
 the Gaussian 90(TM) system (copyright 1990, Gaussian, Inc.),
 the Gaussian 88(TM) system (copyright 1988, Gaussian, Inc.),
 the Gaussian 86(TM) system (copyright 1986, Carnegie Mellon
 University), and the Gaussian 82(TM) system (copyright 1983,
 Carnegie Mellon University). Gaussian is a federally registered
 trademark of Gaussian, Inc.
  
 This software contains proprietary and confidential information,
 including trade secrets, belonging to Gaussian, Inc.
  
 This software is provided under written license and may be
 used, copied, transmitted, or stored only in accord with that
 written license.
  
 The following legend is applicable only to US Government
 contracts under FAR:
  
                    RESTRICTED RIGHTS LEGEND
  
 Use, reproduction and disclosure by the US Government is
 subject to restrictions as set forth in subparagraphs (a)
 and (c) of the Commercial Computer Software - Restricted
 Rights clause in FAR 52.227-19.
  
 Gaussian, Inc.
 340 Quinnipiac St., Bldg. 40, Wallingford CT 06492
  
  
 ---------------------------------------------------------------
 Warning -- This program may not be used in any manner that
 competes with the business of Gaussian, Inc. or will provide
 assistance to any competitor of Gaussian, Inc.  The licensee
 of this program is prohibited from giving any competitor of
 Gaussian, Inc. access to this program.  By using this program,
 the user acknowledges that Gaussian, Inc. is engaged in the
 business of creating and licensing software in the field of
 computational chemistry and represents and warrants to the
 licensee that it is not a competitor of Gaussian, Inc. and that
 it will not use this program in any manner prohibited above.
 ---------------------------------------------------------------
  

 Cite this work as:
 Gaussian 09, Revision C.01,
 M. J. Frisch, G. W. Trucks, H. B. Schlegel, G. E. Scuseria, 
 M. A. Robb, J. R. Cheeseman, G. Scalmani, V. Barone, B. Mennucci, 
 G. A. Petersson, H. Nakatsuji, M. Caricato, X. Li, H. P. Hratchian, 
 A. F. Izmaylov, J. Bloino, G. Zheng, J. L. Sonnenberg, M. Hada, 
 M. Ehara, K. Toyota, R. Fukuda, J. Hasegawa, M. Ishida, T. Nakajima, 
 Y. Honda, O. Kitao, H. Nakai, T. Vreven, J. A. Montgomery, Jr., 
 J. E. Peralta, F. Ogliaro, M. Bearpark, J. J. Heyd, E. Brothers, 
 K. N. Kudin, V. N. Staroverov, T. Keith, R. Kobayashi, J. Normand, 
 K. Raghavachari, A. Rendell, J. C. Burant, S. S. Iyengar, J. Tomasi, 
 M. Cossi, N. Rega, J. M. Millam, M. Klene, J. E. Knox, J. B. Cross, 
 V. Bakken, C. Adamo, J. Jaramillo, R. Gomperts, R. E. Stratmann, 
 O. Yazyev, A. J. Austin, R. Cammi, C. Pomelli, J. W. Ochterski, 
 R. L. Martin, K. Morokuma, V. G. Zakrzewski, G. A. Voth, 
 P. Salvador, J. J. Dannenberg, S. Dapprich, A. D. Daniels, 
 O. Farkas, J. B. Foresman, J. V. Ortiz, J. Cioslowski, 
 and D. J. Fox, Gaussian, Inc., Wallingford CT, 2010.
 
 ******************************************
 Gaussian 09:  EM64L-G09RevC.01 23-Sep-2011
                30-Dec-2013 
 ******************************************
 %chk=67_C20H12N4S3Si.chk
 %NProcShared=12
 Will use up to   12 processors via shared memory.
 %Mem=8000MB
 Default route:  MaxDisk=100GB
 --------------------------------------------
 #B3LYP/6-31++G(d,p) opt scf=direct freq test
 --------------------------------------------
 1/14=-1,18=20,19=15,26=3,38=1/1,3;
 2/9=110,12=2,17=6,18=5,40=1/2;
 3/5=1,6=6,7=1111,11=2,16=1,25=1,30=1,71=1,74=-5/1,2,3;
 4//1;
 5/5=2,38=5/2;
 6/7=2,8=2,9=2,10=2,28=1/1;
 7//1,2,3,16;
 1/14=-1,18=20,19=15/3(2);
 2/9=110/2;
 99//99;
 2/9=110/2;
 3/5=1,6=6,7=1111,11=2,16=1,25=1,30=1,71=1,74=-5/1,2,3;
 4/5=5,16=3/1;
 5/5=2,38=5/2;
 7//1,2,3,16;
 1/14=-1,18=20,19=15/3(-5);
 2/9=110/2;
 6/7=2,8=2,9=2,10=2,19=2,28=1/1;
 99/9=1/99;
 ----------------------------------------------------------------------
 Geom opt of No.67 candidate from the CEPDB database with SMILE code of
  [SiH2]1C=c2c(cc3c4nsnc4c4c5ncccc5oc4c3c2=C1)-c1scc2ccsc12, HPC, 20131
 227, Shuo Dai, Gaussian09
 ----------------------------------------------------------------------
 Charge =  0 Multiplicity = 1
 Symbolic Z-Matrix:
 Si                    3.54904  -0.55744   2.10666 
 H                     4.4635   -1.70787   1.62062 
 H                     4.78555   0.31684   2.04305 
 C                     2.75182   1.01611   0.80208 
 C                     3.36648   0.62172  -0.31194 
 C                     4.79063   0.95265  -0.90461 
 C                     5.58088  -0.30265  -0.65114 
 C                     5.12642  -1.12906  -1.77081 
 C                     5.5093   -2.60399  -1.427 
 N                     6.80828  -2.91953  -0.82197 
 S                     7.83906  -3.73332  -1.78322 
 N                     6.99107  -3.20309  -3.1476 
 C                     5.53494  -3.21175  -2.81892 
 C                     4.16665  -2.6624   -3.40093 
 C                     3.87552  -3.0045   -4.77728 
 N                     4.23328  -3.84094  -5.96574 
 C                     2.82948  -4.01135  -6.1844 
 C                     1.41544  -3.97437  -6.36838 
 C                     0.9183   -3.23142  -5.1288 
 C                     2.11185  -2.29633  -4.7505 
 O                     1.92322  -1.78548  -3.45679 
 C                     3.27185  -1.41859  -3.25999 
 C                     3.49633  -0.90793  -1.91376 
 C                     2.93067  -0.75442  -0.60972 
 C                     2.4622   -1.58662   0.42804 
 C                     5.5093    2.1163   -0.45755 
 S                     4.74192   3.34423   0.41529 
 C                     6.17008   4.24724   0.49729 
 C                     7.15149   3.61971  -0.19127 
 C                     8.50965   3.87539  -0.51721 
 C                     9.09585   2.86867  -1.29797 
 S                     8.06448   1.54172  -1.75485 
 C                     6.80275   2.40733  -0.77451 
 H                     1.67891   0.76861   0.78842 
 H                     4.74949   1.11822  -2.01398 
 H                     5.23594  -0.882     0.17508 
 H                     6.64579  -0.27811  -0.43673 
 H                     5.6354   -0.78759  -2.69636 
 H                     4.74727  -3.11882  -0.83676 
 H                     6.92774  -2.86636   0.18498 
 H                     7.29883  -3.73169  -3.95946 
 H                     5.36401  -4.29618  -2.7631 
 H                     3.50716  -3.30988  -2.77431 
 H                     4.02946  -3.98988  -4.29244 
 H                     4.42682  -4.86656  -5.85224 
 H                     2.92134  -2.89499  -6.51693 
 H                     2.63564  -4.44336  -5.14159 
 H                     1.16534  -5.04582  -6.43008 
 H                     1.31232  -3.39777  -7.29074 
 H                     0.7046   -3.80472  -4.20689 
 H                    -0.04202  -2.75918  -5.36822 
 H                     2.051    -1.44544  -5.46314 
 H                     3.38451  -0.54432  -3.95426 
 H                     2.96403   0.04057  -2.25112 
 H                     1.81548  -1.42981   1.27548 
 H                     6.08213   5.16292   1.04395 
 H                     9.05952   4.75093  -0.21141 
 H                     10.11052   2.82571  -1.66779 
 

 GradGradGradGradGradGradGradGradGradGradGradGradGradGradGradGradGradGrad
 Berny optimization.
 Initialization pass.
                           ----------------------------
                           !    Initial Parameters    !
                           ! (Angstroms and Degrees)  !
 --------------------------                            --------------------------
 ! Name  Definition              Value          Derivative Info.                !
 --------------------------------------------------------------------------------
 ! R1    R(1,2)                  1.5479         estimate D2E/DX2                !
 ! R2    R(1,3)                  1.5157         estimate D2E/DX2                !
 ! R3    R(1,4)                  2.194          estimate D2E/DX2                !
 ! R4    R(1,25)                 2.249          estimate D2E/DX2                !
 ! R5    R(4,5)                  1.3321         estimate D2E/DX2                !
 ! R6    R(4,34)                 1.1012         estimate D2E/DX2                !
 ! R7    R(5,6)                  1.5776         estimate D2E/DX2                !
 ! R8    R(5,24)                 1.4739         estimate D2E/DX2                !
 ! R9    R(6,7)                  1.5048         estimate D2E/DX2                !
 ! R10   R(6,26)                 1.4389         estimate D2E/DX2                !
 ! R11   R(6,35)                 1.1224         estimate D2E/DX2                !
 ! R12   R(7,8)                  1.4639         estimate D2E/DX2                !
 ! R13   R(7,36)                 1.0664         estimate D2E/DX2                !
 ! R14   R(7,37)                 1.0866         estimate D2E/DX2                !
 ! R15   R(8,9)                  1.5621         estimate D2E/DX2                !
 ! R16   R(8,23)                 1.6512         estimate D2E/DX2                !
 ! R17   R(8,38)                 1.1101         estimate D2E/DX2                !
 ! R18   R(9,10)                 1.4673         estimate D2E/DX2                !
 ! R19   R(9,13)                 1.519          estimate D2E/DX2                !
 ! R20   R(9,39)                 1.0928         estimate D2E/DX2                !
 ! R21   R(10,11)                1.6275         estimate D2E/DX2                !
 ! R22   R(10,40)                1.0154         estimate D2E/DX2                !
 ! R23   R(11,12)                1.6917         estimate D2E/DX2                !
 ! R24   R(12,13)                1.4928         estimate D2E/DX2                !
 ! R25   R(12,41)                1.0165         estimate D2E/DX2                !
 ! R26   R(13,14)                1.5852         estimate D2E/DX2                !
 ! R27   R(13,42)                1.0992         estimate D2E/DX2                !
 ! R28   R(14,15)                1.4478         estimate D2E/DX2                !
 ! R29   R(14,22)                1.5387         estimate D2E/DX2                !
 ! R30   R(14,43)                1.1166         estimate D2E/DX2                !
 ! R31   R(15,16)                1.4967         estimate D2E/DX2                !
 ! R32   R(15,44)                1.1089         estimate D2E/DX2                !
 ! R33   R(16,17)                1.4309         estimate D2E/DX2                !
 ! R34   R(16,45)                1.0499         estimate D2E/DX2                !
 ! R35   R(17,18)                1.4264         estimate D2E/DX2                !
 ! R36   R(17,46)                1.1684         estimate D2E/DX2                !
 ! R37   R(17,47)                1.1453         estimate D2E/DX2                !
 ! R38   R(18,19)                1.5283         estimate D2E/DX2                !
 ! R39   R(18,48)                1.102          estimate D2E/DX2                !
 ! R40   R(18,49)                1.0926         estimate D2E/DX2                !
 ! R41   R(19,20)                1.5627         estimate D2E/DX2                !
 ! R42   R(19,50)                1.1065         estimate D2E/DX2                !
 ! R43   R(19,51)                1.0966         estimate D2E/DX2                !
 ! R44   R(20,21)                1.4037         estimate D2E/DX2                !
 ! R45   R(20,52)                1.1116         estimate D2E/DX2                !
 ! R46   R(21,22)                1.4114         estimate D2E/DX2                !
 ! R47   R(22,23)                1.4572         estimate D2E/DX2                !
 ! R48   R(22,53)                1.1221         estimate D2E/DX2                !
 ! R49   R(23,24)                1.4297         estimate D2E/DX2                !
 ! R50   R(23,54)                1.1388         estimate D2E/DX2                !
 ! R51   R(24,25)                1.4103         estimate D2E/DX2                !
 ! R52   R(25,55)                1.0775         estimate D2E/DX2                !
 ! R53   R(26,27)                1.6907         estimate D2E/DX2                !
 ! R54   R(26,33)                1.3631         estimate D2E/DX2                !
 ! R55   R(27,28)                1.6917         estimate D2E/DX2                !
 ! R56   R(28,29)                1.3532         estimate D2E/DX2                !
 ! R57   R(28,56)                1.0701         estimate D2E/DX2                !
 ! R58   R(29,30)                1.4199         estimate D2E/DX2                !
 ! R59   R(29,33)                1.3898         estimate D2E/DX2                !
 ! R60   R(30,31)                1.4024         estimate D2E/DX2                !
 ! R61   R(30,57)                1.0782         estimate D2E/DX2                !
 ! R62   R(31,32)                1.7416         estimate D2E/DX2                !
 ! R63   R(31,58)                1.0808         estimate D2E/DX2                !
 ! R64   R(32,33)                1.8172         estimate D2E/DX2                !
 ! A1    A(2,1,3)               86.191          estimate D2E/DX2                !
 ! A2    A(2,1,4)              124.1256         estimate D2E/DX2                !
 ! A3    A(2,1,25)              73.2033         estimate D2E/DX2                !
 ! A4    A(3,1,4)               81.8238         estimate D2E/DX2                !
 ! A5    A(3,1,25)             128.8189         estimate D2E/DX2                !
 ! A6    A(4,1,25)              73.0703         estimate D2E/DX2                !
 ! A7    A(1,4,5)               96.7344         estimate D2E/DX2                !
 ! A8    A(1,4,34)             101.5496         estimate D2E/DX2                !
 ! A9    A(5,4,34)             111.8805         estimate D2E/DX2                !
 ! A10   A(4,5,6)              131.9598         estimate D2E/DX2                !
 ! A11   A(4,5,24)             107.9968         estimate D2E/DX2                !
 ! A12   A(6,5,24)             112.7598         estimate D2E/DX2                !
 ! A13   A(5,6,7)              103.6383         estimate D2E/DX2                !
 ! A14   A(5,6,26)             120.2505         estimate D2E/DX2                !
 ! A15   A(5,6,35)             111.6636         estimate D2E/DX2                !
 ! A16   A(7,6,26)             111.0995         estimate D2E/DX2                !
 ! A17   A(7,6,35)             107.9858         estimate D2E/DX2                !
 ! A18   A(26,6,35)            101.8938         estimate D2E/DX2                !
 ! A19   A(6,7,8)              100.3146         estimate D2E/DX2                !
 ! A20   A(6,7,36)             114.4448         estimate D2E/DX2                !
 ! A21   A(6,7,37)             121.9431         estimate D2E/DX2                !
 ! A22   A(8,7,36)             100.6884         estimate D2E/DX2                !
 ! A23   A(8,7,37)             117.8995         estimate D2E/DX2                !
 ! A24   A(36,7,37)            100.16           estimate D2E/DX2                !
 ! A25   A(7,8,9)              106.7729         estimate D2E/DX2                !
 ! A26   A(7,8,23)             107.2821         estimate D2E/DX2                !
 ! A27   A(7,8,38)             108.7659         estimate D2E/DX2                !
 ! A28   A(9,8,23)             112.7968         estimate D2E/DX2                !
 ! A29   A(9,8,38)             111.196          estimate D2E/DX2                !
 ! A30   A(23,8,38)            109.8318         estimate D2E/DX2                !
 ! A31   A(8,9,10)             120.716          estimate D2E/DX2                !
 ! A32   A(8,9,13)             100.383          estimate D2E/DX2                !
 ! A33   A(8,9,39)             113.1283         estimate D2E/DX2                !
 ! A34   A(10,9,13)            106.0725         estimate D2E/DX2                !
 ! A35   A(10,9,39)            107.0564         estimate D2E/DX2                !
 ! A36   A(13,9,39)            108.5548         estimate D2E/DX2                !
 ! A37   A(9,10,11)            115.1307         estimate D2E/DX2                !
 ! A38   A(9,10,40)            120.1191         estimate D2E/DX2                !
 ! A39   A(11,10,40)           122.5056         estimate D2E/DX2                !
 ! A40   A(10,11,12)            90.1233         estimate D2E/DX2                !
 ! A41   A(11,12,13)           108.033          estimate D2E/DX2                !
 ! A42   A(11,12,41)           109.2324         estimate D2E/DX2                !
 ! A43   A(13,12,41)           117.9156         estimate D2E/DX2                !
 ! A44   A(9,13,12)            102.4682         estimate D2E/DX2                !
 ! A45   A(9,13,14)            100.5568         estimate D2E/DX2                !
 ! A46   A(9,13,42)            110.2154         estimate D2E/DX2                !
 ! A47   A(12,13,14)           139.3882         estimate D2E/DX2                !
 ! A48   A(12,13,42)            99.7055         estimate D2E/DX2                !
 ! A49   A(14,13,42)           103.0799         estimate D2E/DX2                !
 ! A50   A(13,14,15)           116.1502         estimate D2E/DX2                !
 ! A51   A(13,14,22)           138.4588         estimate D2E/DX2                !
 ! A52   A(13,14,43)            95.9012         estimate D2E/DX2                !
 ! A53   A(15,14,22)            99.2733         estimate D2E/DX2                !
 ! A54   A(15,14,43)           106.1234         estimate D2E/DX2                !
 ! A55   A(22,14,43)            94.2362         estimate D2E/DX2                !
 ! A56   A(14,15,16)           147.0201         estimate D2E/DX2                !
 ! A57   A(14,15,44)            76.4917         estimate D2E/DX2                !
 ! A58   A(16,15,44)            79.4786         estimate D2E/DX2                !
 ! A59   A(15,16,17)            87.3286         estimate D2E/DX2                !
 ! A60   A(15,16,45)           120.2764         estimate D2E/DX2                !
 ! A61   A(17,16,45)            94.6479         estimate D2E/DX2                !
 ! A62   A(16,17,46)            81.5225         estimate D2E/DX2                !
 ! A63   A(16,17,47)            94.119          estimate D2E/DX2                !
 ! A64   A(18,17,46)            90.943          estimate D2E/DX2                !
 ! A65   A(18,17,47)            87.6753         estimate D2E/DX2                !
 ! A66   A(46,17,47)           129.2591         estimate D2E/DX2                !
 ! A67   A(17,18,19)           103.3238         estimate D2E/DX2                !
 ! A68   A(17,18,48)           101.9464         estimate D2E/DX2                !
 ! A69   A(17,18,49)           102.4811         estimate D2E/DX2                !
 ! A70   A(19,18,48)           116.3753         estimate D2E/DX2                !
 ! A71   A(19,18,49)           113.4189         estimate D2E/DX2                !
 ! A72   A(48,18,49)           116.3856         estimate D2E/DX2                !
 ! A73   A(18,19,20)           103.8151         estimate D2E/DX2                !
 ! A74   A(18,19,50)           119.1269         estimate D2E/DX2                !
 ! A75   A(18,19,51)           108.4892         estimate D2E/DX2                !
 ! A76   A(20,19,50)           104.8241         estimate D2E/DX2                !
 ! A77   A(20,19,51)           117.6466         estimate D2E/DX2                !
 ! A78   A(50,19,51)           103.6451         estimate D2E/DX2                !
 ! A79   A(19,20,21)           109.7706         estimate D2E/DX2                !
 ! A80   A(19,20,52)           105.1318         estimate D2E/DX2                !
 ! A81   A(21,20,52)           107.755          estimate D2E/DX2                !
 ! A82   A(20,21,22)            95.4346         estimate D2E/DX2                !
 ! A83   A(14,22,21)           109.4363         estimate D2E/DX2                !
 ! A84   A(14,22,23)           106.1594         estimate D2E/DX2                !
 ! A85   A(14,22,53)           120.982          estimate D2E/DX2                !
 ! A86   A(21,22,23)           111.5367         estimate D2E/DX2                !
 ! A87   A(21,22,53)           102.2512         estimate D2E/DX2                !
 ! A88   A(23,22,53)           106.4454         estimate D2E/DX2                !
 ! A89   A(8,23,22)            100.6683         estimate D2E/DX2                !
 ! A90   A(8,23,24)            109.0262         estimate D2E/DX2                !
 ! A91   A(8,23,54)            126.7726         estimate D2E/DX2                !
 ! A92   A(22,23,24)           145.0158         estimate D2E/DX2                !
 ! A93   A(22,23,54)            86.9155         estimate D2E/DX2                !
 ! A94   A(24,23,54)            89.7616         estimate D2E/DX2                !
 ! A95   A(5,24,23)             99.6449         estimate D2E/DX2                !
 ! A96   A(5,24,25)            120.0332         estimate D2E/DX2                !
 ! A97   A(23,24,25)           137.6658         estimate D2E/DX2                !
 ! A98   A(1,25,24)             96.8147         estimate D2E/DX2                !
 ! A99   A(1,25,55)             68.6808         estimate D2E/DX2                !
 ! A100  A(24,25,55)           133.8069         estimate D2E/DX2                !
 ! A101  A(6,26,27)            121.4028         estimate D2E/DX2                !
 ! A102  A(6,26,33)            125.0531         estimate D2E/DX2                !
 ! A103  A(27,26,33)           113.3066         estimate D2E/DX2                !
 ! A104  A(26,27,28)            91.6923         estimate D2E/DX2                !
 ! A105  A(27,28,29)           109.8816         estimate D2E/DX2                !
 ! A106  A(27,28,56)           114.3403         estimate D2E/DX2                !
 ! A107  A(29,28,56)           135.7583         estimate D2E/DX2                !
 ! A108  A(28,29,30)           136.6367         estimate D2E/DX2                !
 ! A109  A(28,29,33)           115.8544         estimate D2E/DX2                !
 ! A110  A(30,29,33)           107.5027         estimate D2E/DX2                !
 ! A111  A(29,30,31)           113.4751         estimate D2E/DX2                !
 ! A112  A(29,30,57)           124.6761         estimate D2E/DX2                !
 ! A113  A(31,30,57)           121.8483         estimate D2E/DX2                !
 ! A114  A(30,31,32)           116.4523         estimate D2E/DX2                !
 ! A115  A(30,31,58)           127.6942         estimate D2E/DX2                !
 ! A116  A(32,31,58)           115.8426         estimate D2E/DX2                !
 ! A117  A(31,32,33)            84.648          estimate D2E/DX2                !
 ! A118  A(26,33,29)           109.0718         estimate D2E/DX2                !
 ! A119  A(26,33,32)           133.0438         estimate D2E/DX2                !
 ! A120  A(29,33,32)           117.884          estimate D2E/DX2                !
 ! A121  L(16,17,18,46,-1)     172.4655         estimate D2E/DX2                !
 ! A122  L(16,17,18,46,-2)     183.8378         estimate D2E/DX2                !
 ! D1    D(2,1,4,5)             -2.8973         estimate D2E/DX2                !
 ! D2    D(2,1,4,34)           111.1284         estimate D2E/DX2                !
 ! D3    D(3,1,4,5)             76.8235         estimate D2E/DX2                !
 ! D4    D(3,1,4,34)          -169.1508         estimate D2E/DX2                !
 ! D5    D(25,1,4,5)           -58.0644         estimate D2E/DX2                !
 ! D6    D(25,1,4,34)           55.9613         estimate D2E/DX2                !
 ! D7    D(2,1,25,24)          -92.747          estimate D2E/DX2                !
 ! D8    D(2,1,25,55)          132.6871         estimate D2E/DX2                !
 ! D9    D(3,1,25,24)          -22.1327         estimate D2E/DX2                !
 ! D10   D(3,1,25,55)         -156.6985         estimate D2E/DX2                !
 ! D11   D(4,1,25,24)           42.0371         estimate D2E/DX2                !
 ! D12   D(4,1,25,55)          -92.5287         estimate D2E/DX2                !
 ! D13   D(1,4,5,6)            -87.4701         estimate D2E/DX2                !
 ! D14   D(1,4,5,24)            59.5758         estimate D2E/DX2                !
 ! D15   D(34,4,5,6)           167.182          estimate D2E/DX2                !
 ! D16   D(34,4,5,24)          -45.7721         estimate D2E/DX2                !
 ! D17   D(4,5,6,7)            105.3075         estimate D2E/DX2                !
 ! D18   D(4,5,6,26)           -19.4656         estimate D2E/DX2                !
 ! D19   D(4,5,6,35)          -138.6992         estimate D2E/DX2                !
 ! D20   D(24,5,6,7)           -40.5649         estimate D2E/DX2                !
 ! D21   D(24,5,6,26)         -165.338          estimate D2E/DX2                !
 ! D22   D(24,5,6,35)           75.4284         estimate D2E/DX2                !
 ! D23   D(4,5,24,23)          170.7338         estimate D2E/DX2                !
 ! D24   D(4,5,24,25)          -24.6083         estimate D2E/DX2                !
 ! D25   D(6,5,24,23)          -35.2844         estimate D2E/DX2                !
 ! D26   D(6,5,24,25)          129.3735         estimate D2E/DX2                !
 ! D27   D(5,6,7,8)             80.7588         estimate D2E/DX2                !
 ! D28   D(5,6,7,36)           -26.0874         estimate D2E/DX2                !
 ! D29   D(5,6,7,37)          -146.8685         estimate D2E/DX2                !
 ! D30   D(26,6,7,8)          -148.7544         estimate D2E/DX2                !
 ! D31   D(26,6,7,36)          104.3994         estimate D2E/DX2                !
 ! D32   D(26,6,7,37)          -16.3817         estimate D2E/DX2                !
 ! D33   D(35,6,7,8)           -37.8061         estimate D2E/DX2                !
 ! D34   D(35,6,7,36)         -144.6524         estimate D2E/DX2                !
 ! D35   D(35,6,7,37)           94.5666         estimate D2E/DX2                !
 ! D36   D(5,6,26,27)          -14.5033         estimate D2E/DX2                !
 ! D37   D(5,6,26,33)          171.4783         estimate D2E/DX2                !
 ! D38   D(7,6,26,27)         -135.6751         estimate D2E/DX2                !
 ! D39   D(7,6,26,33)           50.3065         estimate D2E/DX2                !
 ! D40   D(35,6,26,27)         109.5219         estimate D2E/DX2                !
 ! D41   D(35,6,26,33)         -64.4965         estimate D2E/DX2                !
 ! D42   D(6,7,8,9)           -163.1905         estimate D2E/DX2                !
 ! D43   D(6,7,8,23)           -42.0199         estimate D2E/DX2                !
 ! D44   D(6,7,8,38)            76.728          estimate D2E/DX2                !
 ! D45   D(36,7,8,9)           -45.649          estimate D2E/DX2                !
 ! D46   D(36,7,8,23)           75.5215         estimate D2E/DX2                !
 ! D47   D(36,7,8,38)         -165.7305         estimate D2E/DX2                !
 ! D48   D(37,7,8,9)            61.992          estimate D2E/DX2                !
 ! D49   D(37,7,8,23)         -176.8375         estimate D2E/DX2                !
 ! D50   D(37,7,8,38)          -58.0895         estimate D2E/DX2                !
 ! D51   D(7,8,9,10)           -41.5308         estimate D2E/DX2                !
 ! D52   D(7,8,9,13)          -157.3959         estimate D2E/DX2                !
 ! D53   D(7,8,9,39)            87.1338         estimate D2E/DX2                !
 ! D54   D(23,8,9,10)         -159.1275         estimate D2E/DX2                !
 ! D55   D(23,8,9,13)           85.0074         estimate D2E/DX2                !
 ! D56   D(23,8,9,39)          -30.4629         estimate D2E/DX2                !
 ! D57   D(38,8,9,10)           76.9757         estimate D2E/DX2                !
 ! D58   D(38,8,9,13)          -38.8894         estimate D2E/DX2                !
 ! D59   D(38,8,9,39)         -154.3597         estimate D2E/DX2                !
 ! D60   D(7,8,23,22)          162.9735         estimate D2E/DX2                !
 ! D61   D(7,8,23,24)          -35.789          estimate D2E/DX2                !
 ! D62   D(7,8,23,54)           68.82           estimate D2E/DX2                !
 ! D63   D(9,8,23,22)          -79.7301         estimate D2E/DX2                !
 ! D64   D(9,8,23,24)           81.5074         estimate D2E/DX2                !
 ! D65   D(9,8,23,54)         -173.8835         estimate D2E/DX2                !
 ! D66   D(38,8,23,22)          44.9157         estimate D2E/DX2                !
 ! D67   D(38,8,23,24)        -153.8467         estimate D2E/DX2                !
 ! D68   D(38,8,23,54)         -49.2377         estimate D2E/DX2                !
 ! D69   D(8,9,10,11)         -111.119          estimate D2E/DX2                !
 ! D70   D(8,9,10,40)           85.4759         estimate D2E/DX2                !
 ! D71   D(13,9,10,11)           1.7948         estimate D2E/DX2                !
 ! D72   D(13,9,10,40)        -161.6104         estimate D2E/DX2                !
 ! D73   D(39,9,10,11)         117.5665         estimate D2E/DX2                !
 ! D74   D(39,9,10,40)         -45.8386         estimate D2E/DX2                !
 ! D75   D(8,9,13,12)           98.758          estimate D2E/DX2                !
 ! D76   D(8,9,13,14)          -47.5536         estimate D2E/DX2                !
 ! D77   D(8,9,13,42)         -155.8506         estimate D2E/DX2                !
 ! D78   D(10,9,13,12)         -27.6265         estimate D2E/DX2                !
 ! D79   D(10,9,13,14)        -173.9381         estimate D2E/DX2                !
 ! D80   D(10,9,13,42)          77.7649         estimate D2E/DX2                !
 ! D81   D(39,9,13,12)        -142.3783         estimate D2E/DX2                !
 ! D82   D(39,9,13,14)          71.3101         estimate D2E/DX2                !
 ! D83   D(39,9,13,42)         -36.987          estimate D2E/DX2                !
 ! D84   D(9,10,11,12)          21.0982         estimate D2E/DX2                !
 ! D85   D(40,10,11,12)       -175.9355         estimate D2E/DX2                !
 ! D86   D(10,11,12,13)        -38.3601         estimate D2E/DX2                !
 ! D87   D(10,11,12,41)       -167.7827         estimate D2E/DX2                !
 ! D88   D(11,12,13,9)          43.6319         estimate D2E/DX2                !
 ! D89   D(11,12,13,14)        166.7334         estimate D2E/DX2                !
 ! D90   D(11,12,13,42)        -69.7497         estimate D2E/DX2                !
 ! D91   D(41,12,13,9)         168.001          estimate D2E/DX2                !
 ! D92   D(41,12,13,14)        -68.8975         estimate D2E/DX2                !
 ! D93   D(41,12,13,42)         54.6194         estimate D2E/DX2                !
 ! D94   D(9,13,14,15)         177.337          estimate D2E/DX2                !
 ! D95   D(9,13,14,22)          31.7632         estimate D2E/DX2                !
 ! D96   D(9,13,14,43)         -71.4539         estimate D2E/DX2                !
 ! D97   D(12,13,14,15)         53.6449         estimate D2E/DX2                !
 ! D98   D(12,13,14,22)        -91.9289         estimate D2E/DX2                !
 ! D99   D(12,13,14,43)        164.854          estimate D2E/DX2                !
 ! D100  D(42,13,14,15)        -68.8243         estimate D2E/DX2                !
 ! D101  D(42,13,14,22)        145.6018         estimate D2E/DX2                !
 ! D102  D(42,13,14,43)         42.3847         estimate D2E/DX2                !
 ! D103  D(13,14,15,16)         11.8753         estimate D2E/DX2                !
 ! D104  D(13,14,15,44)         56.2151         estimate D2E/DX2                !
 ! D105  D(22,14,15,16)        169.5492         estimate D2E/DX2                !
 ! D106  D(22,14,15,44)       -146.111          estimate D2E/DX2                !
 ! D107  D(43,14,15,16)        -93.2636         estimate D2E/DX2                !
 ! D108  D(43,14,15,44)        -48.9239         estimate D2E/DX2                !
 ! D109  D(13,14,22,21)       -149.1392         estimate D2E/DX2                !
 ! D110  D(13,14,22,23)        -28.639          estimate D2E/DX2                !
 ! D111  D(13,14,22,53)         92.5442         estimate D2E/DX2                !
 ! D112  D(15,14,22,21)         61.8045         estimate D2E/DX2                !
 ! D113  D(15,14,22,23)       -177.6953         estimate D2E/DX2                !
 ! D114  D(15,14,22,53)        -56.512          estimate D2E/DX2                !
 ! D115  D(43,14,22,21)        -45.308          estimate D2E/DX2                !
 ! D116  D(43,14,22,23)         75.1921         estimate D2E/DX2                !
 ! D117  D(43,14,22,53)       -163.6246         estimate D2E/DX2                !
 ! D118  D(14,15,16,17)        138.9047         estimate D2E/DX2                !
 ! D119  D(14,15,16,45)         45.0807         estimate D2E/DX2                !
 ! D120  D(44,15,16,17)         95.1797         estimate D2E/DX2                !
 ! D121  D(44,15,16,45)          1.3556         estimate D2E/DX2                !
 ! D122  D(15,16,17,46)         72.564          estimate D2E/DX2                !
 ! D123  D(15,16,17,47)        -56.541          estimate D2E/DX2                !
 ! D124  D(45,16,17,46)       -167.2643         estimate D2E/DX2                !
 ! D125  D(45,16,17,47)         63.6307         estimate D2E/DX2                !
 ! D126  D(15,16,18,19)         -4.2666         estimate D2E/DX2                !
 ! D127  D(15,16,18,48)       -125.9186         estimate D2E/DX2                !
 ! D128  D(15,16,18,49)        112.3221         estimate D2E/DX2                !
 ! D129  D(45,16,18,19)        115.5633         estimate D2E/DX2                !
 ! D130  D(45,16,18,48)         -6.0887         estimate D2E/DX2                !
 ! D131  D(45,16,18,49)       -127.8481         estimate D2E/DX2                !
 ! D132  D(46,17,18,19)        -77.4237         estimate D2E/DX2                !
 ! D133  D(46,17,18,48)        161.4617         estimate D2E/DX2                !
 ! D134  D(46,17,18,49)         40.6594         estimate D2E/DX2                !
 ! D135  D(47,17,18,19)         51.8309         estimate D2E/DX2                !
 ! D136  D(47,17,18,48)        -69.2837         estimate D2E/DX2                !
 ! D137  D(47,17,18,49)        169.914          estimate D2E/DX2                !
 ! D138  D(17,18,19,20)         28.8227         estimate D2E/DX2                !
 ! D139  D(17,18,19,50)        -87.1941         estimate D2E/DX2                !
 ! D140  D(17,18,19,51)        154.7016         estimate D2E/DX2                !
 ! D141  D(48,18,19,20)        139.6085         estimate D2E/DX2                !
 ! D142  D(48,18,19,50)         23.5917         estimate D2E/DX2                !
 ! D143  D(48,18,19,51)        -94.5126         estimate D2E/DX2                !
 ! D144  D(49,18,19,20)        -81.3353         estimate D2E/DX2                !
 ! D145  D(49,18,19,50)        162.6479         estimate D2E/DX2                !
 ! D146  D(49,18,19,51)         44.5436         estimate D2E/DX2                !
 ! D147  D(18,19,20,21)       -166.193          estimate D2E/DX2                !
 ! D148  D(18,19,20,52)         78.156          estimate D2E/DX2                !
 ! D149  D(50,19,20,21)        -40.4899         estimate D2E/DX2                !
 ! D150  D(50,19,20,52)       -156.1408         estimate D2E/DX2                !
 ! D151  D(51,19,20,21)         73.9739         estimate D2E/DX2                !
 ! D152  D(51,19,20,52)        -41.6771         estimate D2E/DX2                !
 ! D153  D(19,20,21,22)        161.2382         estimate D2E/DX2                !
 ! D154  D(52,20,21,22)        -84.7856         estimate D2E/DX2                !
 ! D155  D(20,21,22,14)        -58.6592         estimate D2E/DX2                !
 ! D156  D(20,21,22,23)       -175.8233         estimate D2E/DX2                !
 ! D157  D(20,21,22,53)         70.7773         estimate D2E/DX2                !
 ! D158  D(14,22,23,8)          39.7278         estimate D2E/DX2                !
 ! D159  D(14,22,23,24)       -108.2434         estimate D2E/DX2                !
 ! D160  D(14,22,23,54)        166.5908         estimate D2E/DX2                !
 ! D161  D(21,22,23,8)         158.8586         estimate D2E/DX2                !
 ! D162  D(21,22,23,24)         10.8873         estimate D2E/DX2                !
 ! D163  D(21,22,23,54)        -74.2785         estimate D2E/DX2                !
 ! D164  D(53,22,23,8)         -90.388          estimate D2E/DX2                !
 ! D165  D(53,22,23,24)        121.6408         estimate D2E/DX2                !
 ! D166  D(53,22,23,54)         36.475          estimate D2E/DX2                !
 ! D167  D(8,23,24,5)           75.1429         estimate D2E/DX2                !
 ! D168  D(8,23,24,25)         -84.9727         estimate D2E/DX2                !
 ! D169  D(22,23,24,5)        -138.313          estimate D2E/DX2                !
 ! D170  D(22,23,24,25)         61.5713         estimate D2E/DX2                !
 ! D171  D(54,23,24,5)         -54.0405         estimate D2E/DX2                !
 ! D172  D(54,23,24,25)        145.8439         estimate D2E/DX2                !
 ! D173  D(5,24,25,1)          -24.8022         estimate D2E/DX2                !
 ! D174  D(5,24,25,55)          42.0731         estimate D2E/DX2                !
 ! D175  D(23,24,25,1)         132.41           estimate D2E/DX2                !
 ! D176  D(23,24,25,55)       -160.7146         estimate D2E/DX2                !
 ! D177  D(6,26,27,28)        -178.954          estimate D2E/DX2                !
 ! D178  D(33,26,27,28)         -4.2837         estimate D2E/DX2                !
 ! D179  D(6,26,33,29)         178.7132         estimate D2E/DX2                !
 ! D180  D(6,26,33,32)          -1.525          estimate D2E/DX2                !
 ! D181  D(27,26,33,29)          4.2708         estimate D2E/DX2                !
 ! D182  D(27,26,33,32)       -175.9673         estimate D2E/DX2                !
 ! D183  D(26,27,28,29)          2.9654         estimate D2E/DX2                !
 ! D184  D(26,27,28,56)       -178.3975         estimate D2E/DX2                !
 ! D185  D(27,28,29,30)        177.8596         estimate D2E/DX2                !
 ! D186  D(27,28,29,33)         -1.0919         estimate D2E/DX2                !
 ! D187  D(56,28,29,30)         -0.3605         estimate D2E/DX2                !
 ! D188  D(56,28,29,33)       -179.312          estimate D2E/DX2                !
 ! D189  D(28,29,30,31)       -179.3647         estimate D2E/DX2                !
 ! D190  D(28,29,30,57)          0.388          estimate D2E/DX2                !
 ! D191  D(33,29,30,31)         -0.3541         estimate D2E/DX2                !
 ! D192  D(33,29,30,57)        179.3987         estimate D2E/DX2                !
 ! D193  D(28,29,33,26)         -2.0133         estimate D2E/DX2                !
 ! D194  D(28,29,33,32)        178.1836         estimate D2E/DX2                !
 ! D195  D(30,29,33,26)        178.7415         estimate D2E/DX2                !
 ! D196  D(30,29,33,32)         -1.0616         estimate D2E/DX2                !
 ! D197  D(29,30,31,32)          1.6884         estimate D2E/DX2                !
 ! D198  D(29,30,31,58)       -179.5685         estimate D2E/DX2                !
 ! D199  D(57,30,31,32)       -178.0722         estimate D2E/DX2                !
 ! D200  D(57,30,31,58)          0.6709         estimate D2E/DX2                !
 ! D201  D(30,31,32,33)         -1.8066         estimate D2E/DX2                !
 ! D202  D(58,31,32,33)        179.2984         estimate D2E/DX2                !
 ! D203  D(31,32,33,26)       -178.0905         estimate D2E/DX2                !
 ! D204  D(31,32,33,29)          1.6548         estimate D2E/DX2                !
 --------------------------------------------------------------------------------
 Trust Radius=3.00D-01 FncErr=1.00D-07 GrdErr=1.00D-06
 Number of steps in this run=    348 maximum allowed number of steps=    348.
 GradGradGradGradGradGradGradGradGradGradGradGradGradGradGradGradGradGrad

 Stoichiometry    C23H27N3OS3Si
 Framework group  C1[X(C23H27N3OS3Si)]
 Deg. of freedom   168
 Full point group                 C1      NOp   1
 Largest Abelian subgroup         C1      NOp   1
 Largest concise Abelian subgroup C1      NOp   1
                         Standard orientation:                         
 ---------------------------------------------------------------------
 Center     Atomic      Atomic             Coordinates (Angstroms)
 Number     Number       Type             X           Y           Z
 ---------------------------------------------------------------------
      1         14           0       -1.725038   -2.453795    2.841027
      2          1           0       -0.981758   -1.162441    3.260432
      3          1           0       -2.816699   -1.537335    2.325521
      4          6           0       -1.818359   -3.206853    0.782448
      5          6           0       -1.152423   -2.200844    0.217765
      6          6           0       -1.627812   -0.806829   -0.347659
      7          6           0       -1.173488    0.174234    0.699063
      8          6           0        0.235191    0.319726    0.328113
      9          6           0        0.960612    0.959497    1.554766
     10          7           0        0.332955    2.047826    2.312765
     11         16           0        1.051916    3.500007    2.161010
     12          7           0        1.769733    2.997482    0.713954
     13          6           0        2.171908    1.568332    0.869528
     14          6           0        2.644543    0.347148   -0.023818
     15          6           0        3.780465    0.590588   -0.887847
     16          7           0        4.911386    1.502413   -1.247922
     17          6           0        5.716974    0.330668   -1.407758
     18          6           0        6.356647   -0.916397   -1.673033
     19          6           0        5.320468   -1.946234   -1.224201
     20          6           0        3.954042   -1.219600   -1.440879
     21          8           0        2.933091   -1.921743   -0.781418
     22          6           0        2.019106   -0.846308   -0.766842
     23          6           0        0.804260   -1.186586   -0.037555
     24          6           0        0.187140   -2.141164    0.829624
     25          6           0        0.396141   -2.662553    2.123239
     26          6           0       -3.009505   -0.596426   -0.689838
     27         16           0       -4.084486   -1.891533   -0.849988
     28          6           0       -5.354989   -0.851742   -1.257967
     29          6           0       -4.904443    0.422654   -1.321201
     30          6           0       -5.448443    1.695374   -1.638144
     31          6           0       -4.513482    2.737706   -1.560079
     32         16           0       -2.883153    2.287970   -1.144117
     33          6           0       -3.558419    0.604944   -1.026848
     34          1           0       -1.203564   -4.117707    0.852808
     35          1           0       -1.109698   -0.551569   -1.310056
     36          1           0       -1.078667   -0.237471    1.678234
     37          1           0       -1.735781    1.076345    0.924072
     38          1           0        0.303385    0.975189   -0.565208
     39          1           0        1.307062    0.220848    2.281741
     40          1           0       -0.317738    1.836861    3.063190
     41          1           0        2.485978    3.666881    0.445350
     42          1           0        2.995946    1.684832    1.587658
     43          1           0        3.026040   -0.273341    0.822505
     44          1           0        4.162654    0.847330    0.120992
     45          1           0        5.515184    1.918966   -0.496824
     46          1           0        5.056384    0.217418   -2.364873
     47          1           0        5.523212   -0.048051   -0.344420
     48          1           0        7.268688   -0.840051   -1.059261
     49          1           0        6.496235   -0.884478   -2.756244
     50          1           0        5.304964   -2.268619   -0.165860
     51          1           0        5.494479   -2.877846   -1.775894
     52          1           0        3.760101   -1.286051   -2.533373
     53          1           0        1.728765   -0.765920   -1.847717
     54          1           0        0.516911   -1.824288   -0.936206
     55          1           0        0.064893   -3.553385    2.630865
     56          1           0       -6.291135   -1.342974   -1.423389
     57          1           0       -6.474542    1.871329   -1.918505
     58          1           0       -4.679236    3.789451   -1.745887
 ---------------------------------------------------------------------
 Rotational constants (GHZ):      0.1785021      0.0810239      0.0713382
 Standard basis: 6-31++G(d,p) (6D, 7F)
 There are   767 symmetry adapted basis functions of A   symmetry.
 Integral buffers will be    131072 words long.
 Raffenetti 2 integral format.
 Two-electron integral symmetry is turned on.
   767 basis functions,  1304 primitive gaussians,   767 cartesian basis functions
   128 alpha electrons      128 beta electrons
       nuclear repulsion energy      3995.7568987889 Hartrees.
 NAtoms=   58 NActive=   58 NUniq=   58 SFac= 1.00D+00 NAtFMM=   60 NAOKFM=F Big=F
 One-electron integrals computed using PRISM.
 NBasis=   767 RedAO= T  NBF=   767
 NBsUse=   758 1.00D-06 NBFU=   758
 Harris functional with IExCor=  402 diagonalized for initial guess.
 ExpMin= 3.31D-02 ExpMax= 2.19D+04 ExpMxC= 3.30D+03 IAcc=3 IRadAn=         5 AccDes= 0.00D+00
 HarFok:  IExCor=  402 AccDes= 0.00D+00 IRadAn=         5 IDoV= 1
 ScaDFX=  1.000000  1.000000  1.000000  1.000000
 FoFCou: FMM=F IPFlag=           0 FMFlag=      100000 FMFlg1=           0
         NFxFlg=           0 DoJE=T BraDBF=F KetDBF=T FulRan=T
         Omega=  0.000000  0.000000  1.000000  0.000000  0.000000 ICntrl=     500 IOpCl=  0
         NMat0=    1 NMatS0=    1 NMatT0=    0 NMatD0=    1 NMtDS0=    0 NMtDT0=    0
         I1Cent=           4 NGrid=           0.
 Petite list used in FoFCou.
 Initial guess orbital symmetries:
       Occupied  (A) (A) (A) (A) (A) (A) (A) (A) (A) (A) (A) (A)
                 (A) (A) (A) (A) (A) (A) (A) (A) (A) (A) (A) (A)
                 (A) (A) (A) (A) (A) (A) (A) (A) (A) (A) (A) (A)
                 (A) (A) (A) (A) (A) (A) (A) (A) (A) (A) (A) (A)
                 (A) (A) (A) (A) (A) (A) (A) (A) (A) (A) (A) (A)
                 (A) (A) (A) (A) (A) (A) (A) (A) (A) (A) (A) (A)
                 (A) (A) (A) (A) (A) (A) (A) (A) (A) (A) (A) (A)
                 (A) (A) (A) (A) (A) (A) (A) (A) (A) (A) (A) (A)
                 (A) (A) (A) (A) (A) (A) (A) (A) (A) (A) (A) (A)
                 (A) (A) (A) (A) (A) (A) (A) (A) (A) (A) (A) (A)
                 (A) (A) (A) (A) (A) (A) (A) (A)
       Virtual   (A) (A) (A) (A) (A) (A) (A) (A) (A) (A) (A) (A)
                 (A) (A) (A) (A) (A) (A) (A) (A) (A) (A) (A) (A)
                 (A) (A) (A) (A) (A) (A) (A) (A) (A) (A) (A) (A)
                 (A) (A) (A) (A) (A) (A) (A) (A) (A) (A) (A) (A)
                 (A) (A) (A) (A) (A) (A) (A) (A) (A) (A) (A) (A)
                 (A) (A) (A) (A) (A) (A) (A) (A) (A) (A) (A) (A)
                 (A) (A) (A) (A) (A) (A) (A) (A) (A) (A) (A) (A)
                 (A) (A) (A) (A) (A) (A) (A) (A) (A) (A) (A) (A)
                 (A) (A) (A) (A) (A) (A) (A) (A) (A) (A) (A) (A)
                 (A) (A) (A) (A) (A) (A) (A) (A) (A) (A) (A) (A)
                 (A) (A) (A) (A) (A) (A) (A) (A) (A) (A) (A) (A)
                 (A) (A) (A) (A) (A) (A) (A) (A) (A) (A) (A) (A)
                 (A) (A) (A) (A) (A) (A) (A) (A) (A) (A) (A) (A)
                 (A) (A) (A) (A) (A) (A) (A) (A) (A) (A) (A) (A)
                 (A) (A) (A) (A) (A) (A) (A) (A) (A) (A) (A) (A)
                 (A) (A) (A) (A) (A) (A) (A) (A) (A) (A) (A) (A)
                 (A) (A) (A) (A) (A) (A) (A) (A) (A) (A) (A) (A)
                 (A) (A) (A) (A) (A) (A) (A) (A) (A) (A) (A) (A)
                 (A) (A) (A) (A) (A) (A) (A) (A) (A) (A) (A) (A)
                 (A) (A) (A) (A) (A) (A) (A) (A) (A) (A) (A) (A)
                 (A) (A) (A) (A) (A) (A) (A) (A) (A) (A) (A) (A)
                 (A) (A) (A) (A) (A) (A) (A) (A) (A) (A) (A) (A)
                 (A) (A) (A) (A) (A) (A) (A) (A) (A) (A) (A) (A)
                 (A) (A) (A) (A) (A) (A) (A) (A) (A) (A) (A) (A)
                 (A) (A) (A) (A) (A) (A) (A) (A) (A) (A) (A) (A)
                 (A) (A) (A) (A) (A) (A) (A) (A) (A) (A) (A) (A)
                 (A) (A) (A) (A) (A) (A) (A) (A) (A) (A) (A) (A)
                 (A) (A) (A) (A) (A) (A) (A) (A) (A) (A) (A) (A)
                 (A) (A) (A) (A) (A) (A) (A) (A) (A) (A) (A) (A)
                 (A) (A) (A) (A) (A) (A) (A) (A) (A) (A) (A) (A)
                 (A) (A) (A) (A) (A) (A) (A) (A) (A) (A) (A) (A)
                 (A) (A) (A) (A) (A) (A) (A) (A) (A) (A) (A) (A)
                 (A) (A) (A) (A) (A) (A) (A) (A) (A) (A) (A) (A)
                 (A) (A) (A) (A) (A) (A) (A) (A) (A) (A) (A) (A)
                 (A) (A) (A) (A) (A) (A) (A) (A) (A) (A) (A) (A)
                 (A) (A) (A) (A) (A) (A) (A) (A) (A) (A) (A) (A)
                 (A) (A) (A) (A) (A) (A) (A) (A) (A) (A) (A) (A)
                 (A) (A) (A) (A) (A) (A) (A) (A) (A) (A) (A) (A)
                 (A) (A) (A) (A) (A) (A) (A) (A) (A) (A) (A) (A)
                 (A) (A) (A) (A) (A) (A) (A) (A) (A) (A) (A) (A)
                 (A) (A) (A) (A) (A) (A) (A) (A) (A) (A) (A) (A)
                 (A) (A) (A) (A) (A) (A) (A) (A) (A) (A) (A) (A)
                 (A) (A) (A) (A) (A) (A) (A) (A) (A) (A) (A) (A)
                 (A) (A) (A) (A) (A) (A) (A) (A) (A) (A) (A) (A)
                 (A) (A) (A) (A) (A) (A) (A) (A) (A) (A) (A) (A)
                 (A) (A) (A) (A) (A) (A) (A) (A) (A) (A) (A) (A)
                 (A) (A) (A) (A) (A) (A) (A) (A) (A) (A) (A) (A)
                 (A) (A) (A) (A) (A) (A) (A) (A) (A) (A) (A) (A)
                 (A) (A) (A) (A) (A) (A) (A) (A) (A) (A) (A) (A)
                 (A) (A) (A) (A) (A) (A) (A) (A) (A) (A) (A) (A)
                 (A) (A) (A) (A) (A) (A) (A) (A) (A) (A) (A) (A)
                 (A) (A) (A) (A) (A) (A) (A) (A) (A) (A) (A) (A)
                 (A) (A) (A) (A) (A) (A)
 The electronic state of the initial guess is 1-A.
 Requested convergence on RMS density matrix=1.00D-08 within 128 cycles.
 Requested convergence on MAX density matrix=1.00D-06.
 Requested convergence on             energy=1.00D-06.
 No special actions if energy rises.
 EnCoef did     4 forward-backward iterations
 EnCoef did   100 forward-backward iterations
 EnCoef did     5 forward-backward iterations
 EnCoef did     8 forward-backward iterations
 EnCoef did     4 forward-backward iterations
 EnCoef did     1 forward-backward iterations
 EnCoef did     2 forward-backward iterations
 EnCoef did     5 forward-backward iterations
 Restarting incremental Fock formation.
 SCF Done:  E(RB3LYP) =  -2615.05749619     A.U. after   32 cycles
             Convg  =    0.4181D-08             -V/T =  2.0050

 **********************************************************************

            Population analysis using the SCF density.

 **********************************************************************

 Orbital symmetries:
       Occupied  (A) (A) (A) (A) (A) (A) (A) (A) (A) (A) (A) (A)
                 (A) (A) (A) (A) (A) (A) (A) (A) (A) (A) (A) (A)
                 (A) (A) (A) (A) (A) (A) (A) (A) (A) (A) (A) (A)
                 (A) (A) (A) (A) (A) (A) (A) (A) (A) (A) (A) (A)
                 (A) (A) (A) (A) (A) (A) (A) (A) (A) (A) (A) (A)
                 (A) (A) (A) (A) (A) (A) (A) (A) (A) (A) (A) (A)
                 (A) (A) (A) (A) (A) (A) (A) (A) (A) (A) (A) (A)
                 (A) (A) (A) (A) (A) (A) (A) (A) (A) (A) (A) (A)
                 (A) (A) (A) (A) (A) (A) (A) (A) (A) (A) (A) (A)
                 (A) (A) (A) (A) (A) (A) (A) (A) (A) (A) (A) (A)
                 (A) (A) (A) (A) (A) (A) (A) (A)
       Virtual   (A) (A) (A) (A) (A) (A) (A) (A) (A) (A) (A) (A)
                 (A) (A) (A) (A) (A) (A) (A) (A) (A) (A) (A) (A)
                 (A) (A) (A) (A) (A) (A) (A) (A) (A) (A) (A) (A)
                 (A) (A) (A) (A) (A) (A) (A) (A) (A) (A) (A) (A)
                 (A) (A) (A) (A) (A) (A) (A) (A) (A) (A) (A) (A)
                 (A) (A) (A) (A) (A) (A) (A) (A) (A) (A) (A) (A)
                 (A) (A) (A) (A) (A) (A) (A) (A) (A) (A) (A) (A)
                 (A) (A) (A) (A) (A) (A) (A) (A) (A) (A) (A) (A)
                 (A) (A) (A) (A) (A) (A) (A) (A) (A) (A) (A) (A)
                 (A) (A) (A) (A) (A) (A) (A) (A) (A) (A) (A) (A)
                 (A) (A) (A) (A) (A) (A) (A) (A) (A) (A) (A) (A)
                 (A) (A) (A) (A) (A) (A) (A) (A) (A) (A) (A) (A)
                 (A) (A) (A) (A) (A) (A) (A) (A) (A) (A) (A) (A)
                 (A) (A) (A) (A) (A) (A) (A) (A) (A) (A) (A) (A)
                 (A) (A) (A) (A) (A) (A) (A) (A) (A) (A) (A) (A)
                 (A) (A) (A) (A) (A) (A) (A) (A) (A) (A) (A) (A)
                 (A) (A) (A) (A) (A) (A) (A) (A) (A) (A) (A) (A)
                 (A) (A) (A) (A) (A) (A) (A) (A) (A) (A) (A) (A)
                 (A) (A) (A) (A) (A) (A) (A) (A) (A) (A) (A) (A)
                 (A) (A) (A) (A) (A) (A) (A) (A) (A) (A) (A) (A)
                 (A) (A) (A) (A) (A) (A) (A) (A) (A) (A) (A) (A)
                 (A) (A) (A) (A) (A) (A) (A) (A) (A) (A) (A) (A)
                 (A) (A) (A) (A) (A) (A) (A) (A) (A) (A) (A) (A)
                 (A) (A) (A) (A) (A) (A) (A) (A) (A) (A) (A) (A)
                 (A) (A) (A) (A) (A) (A) (A) (A) (A) (A) (A) (A)
                 (A) (A) (A) (A) (A) (A) (A) (A) (A) (A) (A) (A)
                 (A) (A) (A) (A) (A) (A) (A) (A) (A) (A) (A) (A)
                 (A) (A) (A) (A) (A) (A) (A) (A) (A) (A) (A) (A)
                 (A) (A) (A) (A) (A) (A) (A) (A) (A) (A) (A) (A)
                 (A) (A) (A) (A) (A) (A) (A) (A) (A) (A) (A) (A)
                 (A) (A) (A) (A) (A) (A) (A) (A) (A) (A) (A) (A)
                 (A) (A) (A) (A) (A) (A) (A) (A) (A) (A) (A) (A)
                 (A) (A) (A) (A) (A) (A) (A) (A) (A) (A) (A) (A)
                 (A) (A) (A) (A) (A) (A) (A) (A) (A) (A) (A) (A)
                 (A) (A) (A) (A) (A) (A) (A) (A) (A) (A) (A) (A)
                 (A) (A) (A) (A) (A) (A) (A) (A) (A) (A) (A) (A)
                 (A) (A) (A) (A) (A) (A) (A) (A) (A) (A) (A) (A)
                 (A) (A) (A) (A) (A) (A) (A) (A) (A) (A) (A) (A)
                 (A) (A) (A) (A) (A) (A) (A) (A) (A) (A) (A) (A)
                 (A) (A) (A) (A) (A) (A) (A) (A) (A) (A) (A) (A)
                 (A) (A) (A) (A) (A) (A) (A) (A) (A) (A) (A) (A)
                 (A) (A) (A) (A) (A) (A) (A) (A) (A) (A) (A) (A)
                 (A) (A) (A) (A) (A) (A) (A) (A) (A) (A) (A) (A)
                 (A) (A) (A) (A) (A) (A) (A) (A) (A) (A) (A) (A)
                 (A) (A) (A) (A) (A) (A) (A) (A) (A) (A) (A) (A)
                 (A) (A) (A) (A) (A) (A) (A) (A) (A) (A) (A) (A)
                 (A) (A) (A) (A) (A) (A) (A) (A) (A) (A) (A) (A)
                 (A) (A) (A) (A) (A) (A) (A) (A) (A) (A) (A) (A)
                 (A) (A) (A) (A) (A) (A) (A) (A) (A) (A) (A) (A)
                 (A) (A) (A) (A) (A) (A) (A) (A) (A) (A) (A) (A)
                 (A) (A) (A) (A) (A) (A) (A) (A) (A) (A) (A) (A)
                 (A) (A) (A) (A) (A) (A) (A) (A) (A) (A) (A) (A)
                 (A) (A) (A) (A) (A) (A)
 The electronic state is 1-A.
 Alpha  occ. eigenvalues --  -88.94494 -88.91789 -88.91722 -66.15209 -19.18713
 Alpha  occ. eigenvalues --  -14.38176 -14.37319 -14.36402 -10.26810 -10.26157
 Alpha  occ. eigenvalues --  -10.26148 -10.24758 -10.24749 -10.24541 -10.24096
 Alpha  occ. eigenvalues --  -10.23455 -10.23441 -10.22769 -10.22231 -10.21829
 Alpha  occ. eigenvalues --  -10.21755 -10.21748 -10.21602 -10.21460 -10.21304
 Alpha  occ. eigenvalues --  -10.20958 -10.20761 -10.20570 -10.20282 -10.19939
 Alpha  occ. eigenvalues --  -10.17689  -7.99874  -7.97714  -7.97553  -5.96591
 Alpha  occ. eigenvalues --   -5.96151  -5.95131  -5.94111  -5.94026  -5.93733
 Alpha  occ. eigenvalues --   -5.93696  -5.93476  -5.93157  -5.29235  -3.65528
 Alpha  occ. eigenvalues --   -3.64915  -3.64802  -1.09003  -1.00105  -0.98374
 Alpha  occ. eigenvalues --   -0.92755  -0.91201  -0.89173  -0.86859  -0.84918
 Alpha  occ. eigenvalues --   -0.84034  -0.82601  -0.80705  -0.79066  -0.75760
 Alpha  occ. eigenvalues --   -0.73825  -0.73356  -0.71559  -0.70896  -0.68933
 Alpha  occ. eigenvalues --   -0.67266  -0.66167  -0.64858  -0.62267  -0.61565
 Alpha  occ. eigenvalues --   -0.60797  -0.59467  -0.58586  -0.57201  -0.56795
 Alpha  occ. eigenvalues --   -0.56504  -0.54430  -0.54088  -0.52926  -0.52407
 Alpha  occ. eigenvalues --   -0.51610  -0.50385  -0.50219  -0.49381  -0.48593
 Alpha  occ. eigenvalues --   -0.47503  -0.47152  -0.46566  -0.45857  -0.45273
 Alpha  occ. eigenvalues --   -0.44713  -0.43925  -0.43763  -0.42624  -0.42100
 Alpha  occ. eigenvalues --   -0.41912  -0.41212  -0.40844  -0.40641  -0.39738
 Alpha  occ. eigenvalues --   -0.39048  -0.38604  -0.37969  -0.37673  -0.37193
 Alpha  occ. eigenvalues --   -0.37170  -0.36262  -0.35453  -0.35046  -0.34679
 Alpha  occ. eigenvalues --   -0.34376  -0.33811  -0.33039  -0.32315  -0.31713
 Alpha  occ. eigenvalues --   -0.30510  -0.29132  -0.27539  -0.27074  -0.25981
 Alpha  occ. eigenvalues --   -0.24678  -0.24191  -0.21831  -0.21298  -0.20152
 Alpha  occ. eigenvalues --   -0.19981  -0.18610  -0.17612
 Alpha virt. eigenvalues --   -0.15387  -0.10815  -0.07374  -0.04056  -0.03956
 Alpha virt. eigenvalues --   -0.02052  -0.01926  -0.01338  -0.01245  -0.00526
 Alpha virt. eigenvalues --   -0.00119   0.00134   0.00598   0.00611   0.00832
 Alpha virt. eigenvalues --    0.01057   0.01379   0.01825   0.02303   0.02438
 Alpha virt. eigenvalues --    0.02578   0.02919   0.03035   0.03478   0.03571
 Alpha virt. eigenvalues --    0.03935   0.04292   0.04386   0.04495   0.05162
 Alpha virt. eigenvalues --    0.05291   0.05558   0.05735   0.05992   0.06086
 Alpha virt. eigenvalues --    0.06260   0.06370   0.07008   0.07214   0.07399
 Alpha virt. eigenvalues --    0.07593   0.07659   0.07981   0.08135   0.08281
 Alpha virt. eigenvalues --    0.08610   0.08739   0.09036   0.09341   0.09587
 Alpha virt. eigenvalues --    0.09809   0.09964   0.10064   0.10513   0.10637
 Alpha virt. eigenvalues --    0.10950   0.11153   0.11302   0.11509   0.11644
 Alpha virt. eigenvalues --    0.11882   0.11991   0.12366   0.12442   0.12501
 Alpha virt. eigenvalues --    0.12678   0.12762   0.13033   0.13120   0.13287
 Alpha virt. eigenvalues --    0.13402   0.13754   0.13828   0.13929   0.14247
 Alpha virt. eigenvalues --    0.14320   0.14438   0.14523   0.14790   0.14891
 Alpha virt. eigenvalues --    0.15019   0.15278   0.15651   0.15884   0.15995
 Alpha virt. eigenvalues --    0.16109   0.16332   0.16424   0.16695   0.16776
 Alpha virt. eigenvalues --    0.17080   0.17300   0.17510   0.17564   0.17633
 Alpha virt. eigenvalues --    0.18064   0.18264   0.18376   0.18540   0.18676
 Alpha virt. eigenvalues --    0.18908   0.19153   0.19367   0.19652   0.19703
 Alpha virt. eigenvalues --    0.20065   0.20290   0.20376   0.20453   0.20768
 Alpha virt. eigenvalues --    0.20984   0.21163   0.21343   0.21555   0.21759
 Alpha virt. eigenvalues --    0.22007   0.22284   0.22430   0.22766   0.22828
 Alpha virt. eigenvalues --    0.23171   0.23220   0.23561   0.23728   0.24016
 Alpha virt. eigenvalues --    0.24066   0.24205   0.24569   0.24858   0.25046
 Alpha virt. eigenvalues --    0.25374   0.25552   0.25726   0.25925   0.26011
 Alpha virt. eigenvalues --    0.26414   0.26537   0.26965   0.27458   0.27509
 Alpha virt. eigenvalues --    0.27757   0.28187   0.28284   0.28531   0.28637
 Alpha virt. eigenvalues --    0.28894   0.29060   0.29567   0.29647   0.29722
 Alpha virt. eigenvalues --    0.30179   0.30475   0.30731   0.30933   0.31133
 Alpha virt. eigenvalues --    0.31544   0.31702   0.32147   0.32535   0.32538
 Alpha virt. eigenvalues --    0.32968   0.33214   0.33497   0.33653   0.33885
 Alpha virt. eigenvalues --    0.34079   0.34776   0.35094   0.35139   0.35261
 Alpha virt. eigenvalues --    0.35581   0.35746   0.36212   0.36322   0.37010
 Alpha virt. eigenvalues --    0.37149   0.37348   0.37733   0.38131   0.38440
 Alpha virt. eigenvalues --    0.38581   0.38946   0.39197   0.39402   0.39575
 Alpha virt. eigenvalues --    0.40404   0.40493   0.40959   0.41371   0.41824
 Alpha virt. eigenvalues --    0.42252   0.42796   0.42920   0.43245   0.43711
 Alpha virt. eigenvalues --    0.44022   0.44710   0.44865   0.45338   0.46013
 Alpha virt. eigenvalues --    0.46733   0.47509   0.47832   0.48059   0.48618
 Alpha virt. eigenvalues --    0.48875   0.49642   0.49796   0.50464   0.50471
 Alpha virt. eigenvalues --    0.51073   0.51889   0.53240   0.53566   0.54336
 Alpha virt. eigenvalues --    0.54838   0.56343   0.57415   0.57990   0.58938
 Alpha virt. eigenvalues --    0.60045   0.61180   0.61841   0.62583   0.63962
 Alpha virt. eigenvalues --    0.65445   0.65831   0.66319   0.66628   0.67381
 Alpha virt. eigenvalues --    0.68138   0.68492   0.69094   0.69388   0.70087
 Alpha virt. eigenvalues --    0.70171   0.70729   0.71108   0.71637   0.72052
 Alpha virt. eigenvalues --    0.72412   0.72732   0.73507   0.73822   0.74135
 Alpha virt. eigenvalues --    0.74229   0.74665   0.75266   0.75795   0.76376
 Alpha virt. eigenvalues --    0.76527   0.76711   0.77443   0.77808   0.78702
 Alpha virt. eigenvalues --    0.78988   0.79391   0.79701   0.79977   0.80768
 Alpha virt. eigenvalues --    0.81309   0.81961   0.82075   0.82576   0.83113
 Alpha virt. eigenvalues --    0.83943   0.84531   0.84640   0.84917   0.85525
 Alpha virt. eigenvalues --    0.86567   0.87000   0.87451   0.88094   0.88350
 Alpha virt. eigenvalues --    0.88560   0.89688   0.89945   0.90748   0.91598
 Alpha virt. eigenvalues --    0.92116   0.92434   0.92695   0.93130   0.93277
 Alpha virt. eigenvalues --    0.93553   0.94827   0.95413   0.96055   0.96682
 Alpha virt. eigenvalues --    0.97199   0.97635   0.98317   0.98501   0.98921
 Alpha virt. eigenvalues --    0.99638   0.99884   1.00464   1.01168   1.01735
 Alpha virt. eigenvalues --    1.01813   1.02189   1.02805   1.03176   1.04651
 Alpha virt. eigenvalues --    1.04963   1.04974   1.05475   1.05948   1.06168
 Alpha virt. eigenvalues --    1.07812   1.08200   1.08783   1.08934   1.09328
 Alpha virt. eigenvalues --    1.09996   1.10545   1.10841   1.10986   1.11778
 Alpha virt. eigenvalues --    1.12129   1.12690   1.13030   1.13070   1.13633
 Alpha virt. eigenvalues --    1.14159   1.15108   1.15389   1.15848   1.15959
 Alpha virt. eigenvalues --    1.16352   1.17096   1.17705   1.18691   1.19421
 Alpha virt. eigenvalues --    1.19682   1.20442   1.21019   1.21781   1.22465
 Alpha virt. eigenvalues --    1.22873   1.22973   1.23342   1.24352   1.24639
 Alpha virt. eigenvalues --    1.26251   1.26449   1.27340   1.28220   1.28762
 Alpha virt. eigenvalues --    1.29219   1.31067   1.31169   1.31812   1.32063
 Alpha virt. eigenvalues --    1.33142   1.33636   1.34409   1.35315   1.36478
 Alpha virt. eigenvalues --    1.37319   1.38168   1.39227   1.40172   1.41276
 Alpha virt. eigenvalues --    1.41462   1.41911   1.43159   1.45640   1.46068
 Alpha virt. eigenvalues --    1.47175   1.47991   1.48833   1.49079   1.50833
 Alpha virt. eigenvalues --    1.51106   1.51870   1.52981   1.54057   1.55122
 Alpha virt. eigenvalues --    1.56429   1.57146   1.57521   1.58695   1.59463
 Alpha virt. eigenvalues --    1.60760   1.61516   1.61890   1.63515   1.65361
 Alpha virt. eigenvalues --    1.65412   1.66928   1.68070   1.68709   1.69399
 Alpha virt. eigenvalues --    1.70273   1.70930   1.71861   1.72473   1.73727
 Alpha virt. eigenvalues --    1.73921   1.74296   1.76580   1.77698   1.78445
 Alpha virt. eigenvalues --    1.78824   1.79389   1.80405   1.81586   1.82150
 Alpha virt. eigenvalues --    1.83040   1.83691   1.84370   1.85108   1.86888
 Alpha virt. eigenvalues --    1.87339   1.88109   1.88961   1.89403   1.90485
 Alpha virt. eigenvalues --    1.91661   1.92173   1.93105   1.93516   1.93735
 Alpha virt. eigenvalues --    1.95215   1.96272   1.97398   1.98112   1.98759
 Alpha virt. eigenvalues --    1.99312   2.00719   2.01031   2.01610   2.02649
 Alpha virt. eigenvalues --    2.03307   2.04195   2.04729   2.05799   2.06305
 Alpha virt. eigenvalues --    2.07199   2.08035   2.08422   2.09023   2.10064
 Alpha virt. eigenvalues --    2.10934   2.11764   2.12800   2.13263   2.14502
 Alpha virt. eigenvalues --    2.15543   2.15792   2.16904   2.17229   2.18256
 Alpha virt. eigenvalues --    2.18750   2.19120   2.20290   2.21124   2.21302
 Alpha virt. eigenvalues --    2.23773   2.24018   2.25087   2.25456   2.26080
 Alpha virt. eigenvalues --    2.26825   2.27156   2.27244   2.28039   2.29082
 Alpha virt. eigenvalues --    2.30947   2.31286   2.31711   2.32491   2.33445
 Alpha virt. eigenvalues --    2.33599   2.34807   2.35272   2.36061   2.36384
 Alpha virt. eigenvalues --    2.37067   2.38791   2.39038   2.39550   2.40437
 Alpha virt. eigenvalues --    2.41044   2.41588   2.42318   2.43067   2.43192
 Alpha virt. eigenvalues --    2.43625   2.44365   2.44898   2.46469   2.46964
 Alpha virt. eigenvalues --    2.47937   2.48937   2.49442   2.50230   2.51039
 Alpha virt. eigenvalues --    2.51333   2.52372   2.53583   2.54153   2.54820
 Alpha virt. eigenvalues --    2.55136   2.55600   2.56984   2.57246   2.57815
 Alpha virt. eigenvalues --    2.58474   2.59365   2.59629   2.60120   2.60470
 Alpha virt. eigenvalues --    2.60999   2.61785   2.62212   2.62290   2.64324
 Alpha virt. eigenvalues --    2.64692   2.65924   2.66774   2.68184   2.69115
 Alpha virt. eigenvalues --    2.69379   2.71081   2.71701   2.72202   2.73006
 Alpha virt. eigenvalues --    2.73827   2.74355   2.74455   2.75176   2.75779
 Alpha virt. eigenvalues --    2.77491   2.77985   2.78424   2.79918   2.80338
 Alpha virt. eigenvalues --    2.80729   2.81888   2.82356   2.84566   2.85586
 Alpha virt. eigenvalues --    2.86794   2.87796   2.89321   2.90423   2.90656
 Alpha virt. eigenvalues --    2.91213   2.91759   2.92551   2.94656   2.95838
 Alpha virt. eigenvalues --    2.96598   2.97724   2.98910   3.00449   3.01109
 Alpha virt. eigenvalues --    3.02020   3.03953   3.05376   3.07717   3.08237
 Alpha virt. eigenvalues --    3.09725   3.11002   3.13774   3.15404   3.17090
 Alpha virt. eigenvalues --    3.17337   3.19047   3.26615   3.28254   3.30347
 Alpha virt. eigenvalues --    3.33031   3.33302   3.33824   3.35796   3.39545
 Alpha virt. eigenvalues --    3.40354   3.43246   3.44449   3.45976   3.46192
 Alpha virt. eigenvalues --    3.46488   3.47433   3.48122   3.49471   3.50278
 Alpha virt. eigenvalues --    3.51539   3.53069   3.55670   3.55856   3.57450
 Alpha virt. eigenvalues --    3.59406   3.60400   3.61070   3.66585   3.70282
 Alpha virt. eigenvalues --    3.99450   4.02280   4.05373   4.27504   4.32299
 Alpha virt. eigenvalues --    4.35272   4.38938   4.41555   4.48503   4.49684
 Alpha virt. eigenvalues --    4.49817   4.51023   4.53482   4.53821   4.54757
 Alpha virt. eigenvalues --    4.57625   4.59522   4.61056   4.64396   4.70759
 Alpha virt. eigenvalues --    4.73372   4.76507   4.77158   4.77255   4.82272
 Alpha virt. eigenvalues --    4.87583   4.92139   4.95227   5.03533   5.07556
          Condensed to atoms (all electrons):
 Mulliken atomic charges:
              1
     1  Si   0.545095
     2  H   -0.251668
     3  H   -0.139538
     4  C   -0.668095
     5  C    0.090866
     6  C    0.123158
     7  C   -0.232297
     8  C    0.084074
     9  C   -0.522190
    10  N   -0.365529
    11  S    0.515943
    12  N   -0.334464
    13  C   -0.671197
    14  C   -0.433908
    15  C   -0.422665
    16  N   -0.255140
    17  C   -0.001308
    18  C   -0.481046
    19  C   -0.142099
    20  C    0.186231
    21  O   -0.175466
    22  C   -0.048889
    23  C   -0.552790
    24  C    0.771772
    25  C   -0.785298
    26  C    0.107033
    27  S    0.223844
    28  C    0.007162
    29  C   -0.343043
    30  C   -0.298317
    31  C   -0.039614
    32  S   -0.143097
    33  C   -0.219210
    34  H    0.199236
    35  H    0.160697
    36  H    0.347892
    37  H    0.100406
    38  H    0.230118
    39  H    0.240479
    40  H    0.373490
    41  H    0.366747
    42  H    0.217416
    43  H    0.155889
    44  H    0.312567
    45  H    0.318585
    46  H    0.124741
    47  H   -0.130687
    48  H    0.156873
    49  H    0.150233
    50  H    0.209760
    51  H    0.148603
    52  H    0.193113
    53  H    0.139375
    54  H    0.200891
    55  H    0.152245
    56  H    0.188929
    57  H    0.111044
    58  H    0.203050
 Sum of Mulliken atomic charges =  -0.00000
 Mulliken charges with hydrogens summed into heavy atoms:
              1
     1  Si   0.153889
     4  C   -0.468859
     5  C    0.090866
     6  C    0.283854
     7  C    0.216002
     8  C    0.314192
     9  C   -0.281711
    10  N    0.007960
    11  S    0.515943
    12  N    0.032283
    13  C   -0.453781
    14  C   -0.278019
    15  C   -0.110098
    16  N    0.063445
    17  C   -0.007254
    18  C   -0.173940
    19  C    0.216263
    20  C    0.379343
    21  O   -0.175466
    22  C    0.090485
    23  C   -0.351900
    24  C    0.771772
    25  C   -0.633053
    26  C    0.107033
    27  S    0.223844
    28  C    0.196091
    29  C   -0.343043
    30  C   -0.187274
    31  C    0.163436
    32  S   -0.143097
    33  C   -0.219210
 Sum of Mulliken charges with hydrogens summed into heavy atoms =  -0.00000
 Electronic spatial extent (au):  <R**2>=          15981.5325
 Charge=             -0.0000 electrons
 Dipole moment (field-independent basis, Debye):
    X=              2.2016    Y=              0.5193    Z=             -0.2733  Tot=              2.2785
 Quadrupole moment (field-independent basis, Debye-Ang):
   XX=           -207.1104   YY=           -218.5738   ZZ=           -222.2992
   XY=             -2.8727   XZ=              6.9541   YZ=              5.7542
 Traceless Quadrupole moment (field-independent basis, Debye-Ang):
   XX=              8.8841   YY=             -2.5794   ZZ=             -6.3047
   XY=             -2.8727   XZ=              6.9541   YZ=              5.7542
 Octapole moment (field-independent basis, Debye-Ang**2):
  XXX=              2.5232  YYY=             50.6795  ZZZ=              0.1454  XYY=             -1.8959
  XXY=             38.0730  XXZ=            -20.9723  XZZ=             -6.6969  YZZ=             -2.7680
  YYZ=             -9.9031  XYZ=             20.6163
 Hexadecapole moment (field-independent basis, Debye-Ang**3):
 XXXX=         -13866.9096 YYYY=          -4985.0681 ZZZZ=          -3093.6257 XXXY=            -12.1070
 XXXZ=            449.6627 YYYX=            -74.2898 YYYZ=              7.7402 ZZZX=            -93.6070
 ZZZY=            116.3820 XXYY=          -3200.3711 XXZZ=          -3063.4131 YYZZ=          -1387.8827
 XXYZ=            124.6579 YYXZ=             87.1281 ZZXY=           -108.7512
 N-N= 3.995756898789D+03 E-N=-1.414087678997D+04  KE= 2.602171937622D+03
 Calling FoFJK, ICntrl=      2127 FMM=F ISym2X=0 I1Cent= 0 IOpClX= 0 NMat=1 NMatS=1 NMatT=0.
 ***** Axes restored to original set *****
 -------------------------------------------------------------------
 Center     Atomic                   Forces (Hartrees/Bohr)
 Number     Number              X              Y              Z
 -------------------------------------------------------------------
      1       14           0.043913559    0.020960319   -0.007600426
      2        1          -0.004560248   -0.010128569    0.016678177
      3        1           0.001950351    0.000596992    0.017160058
      4        6          -0.050537202    0.015628613    0.045844832
      5        6           0.047185678   -0.019947880   -0.016020207
      6        6          -0.019817795    0.010961756    0.011316349
      7        6           0.002592826   -0.009071206    0.003462957
      8        6           0.013380506    0.009151258    0.007618671
      9        6          -0.008553325   -0.015927432   -0.016674202
     10        7          -0.042062315    0.054983994    0.035352717
     11       16           0.042142238   -0.042430999   -0.010644284
     12        7          -0.012396749    0.046814385   -0.043306847
     13        6           0.001597189   -0.033908152    0.029593244
     14        6           0.025136705    0.028804572   -0.007570641
     15        6          -0.039242977   -0.061625973    0.021700570
     16        7           0.064323530   -0.035772617   -0.089643723
     17        6           0.025632006    0.044601767    0.010336002
     18        6          -0.051749252   -0.060889778   -0.072303693
     19        6           0.010123702    0.006063205    0.008405426
     20        6          -0.023540681   -0.006047311   -0.015719997
     21        8           0.020135285   -0.022263636   -0.011276255
     22        6           0.007545876    0.000508265    0.034583637
     23        6           0.020521393    0.010605983   -0.039452164
     24        6          -0.019678286   -0.020093852    0.039300241
     25        6          -0.006698078    0.043052321   -0.044576240
     26        6          -0.009538180   -0.003816299    0.000624353
     27       16          -0.017127933    0.002573935    0.011740041
     28        6          -0.014568403    0.019862940    0.012542251
     29        6           0.047788169    0.016776671   -0.008920303
     30        6           0.040840185   -0.016629817   -0.022291838
     31        6          -0.000620132    0.033420082    0.016043201
     32       16          -0.021828737    0.019434280    0.021983043
     33        6          -0.026921863   -0.033943863   -0.007578853
     34        1          -0.000613335    0.006192965    0.003500846
     35        1          -0.007361509   -0.006778414    0.013469329
     36        1          -0.007498236    0.007819690    0.022677421
     37        1           0.004995382    0.010795053   -0.014646042
     38        1          -0.005944942   -0.007331633    0.002864327
     39        1          -0.007517666    0.006759406    0.002748378
     40        1           0.001782357   -0.003304951   -0.007327633
     41        1          -0.007062466    0.000549480   -0.001929842
     42        1          -0.013919986   -0.004395305    0.001722213
     43        1           0.006873094    0.002286673    0.000497262
     44        1          -0.040374275   -0.016975319    0.000518750
     45        1           0.029691331    0.023774542    0.025318540
     46        1          -0.022586145   -0.003809121    0.020447128
     47        1          -0.001515004    0.003644845    0.000394657
     48        1          -0.032623225    0.005644307   -0.004744856
     49        1          -0.031849729   -0.004205759   -0.005495345
     50        1           0.006090480   -0.011953476   -0.012765178
     51        1           0.005322140    0.012839451    0.001182905
     52        1           0.017497904   -0.004573548   -0.000420743
     53        1           0.021774265   -0.018558827    0.000903228
     54        1           0.034606571    0.008655149    0.012135523
     55        1          -0.014062383   -0.016738349    0.004023710
     56        1           0.012298828    0.009333854    0.001300907
     57        1           0.004007339    0.002726715    0.001362810
     58        1           0.002622168    0.005298621    0.001555613
 -------------------------------------------------------------------
 Cartesian Forces:  Max     0.089643723 RMS     0.023894822

 GradGradGradGradGradGradGradGradGradGradGradGradGradGradGradGradGradGrad
 Berny optimization.
 Internal  Forces:  Max     0.090093142 RMS     0.020015712
 Search for a local minimum.
 Step number   1 out of a maximum of  348
 All quantities printed in internal units (Hartrees-Bohrs-Radians)
 Mixed Optimization -- RFO/linear search
 Second derivative matrix not updated -- first step.
 ITU=  0
     Eigenvalues ---    0.00424   0.00471   0.00609   0.00795   0.00889
     Eigenvalues ---    0.01025   0.01154   0.01259   0.01302   0.01363
     Eigenvalues ---    0.01411   0.01426   0.01463   0.01574   0.01574
     Eigenvalues ---    0.01578   0.01637   0.01749   0.01851   0.01940
     Eigenvalues ---    0.01953   0.01982   0.02044   0.02132   0.02189
     Eigenvalues ---    0.02209   0.02333   0.02457   0.02523   0.02603
     Eigenvalues ---    0.02795   0.02840   0.02894   0.03266   0.03623
     Eigenvalues ---    0.03721   0.03961   0.04018   0.04129   0.04273
     Eigenvalues ---    0.04308   0.04392   0.04598   0.04733   0.04831
     Eigenvalues ---    0.04933   0.05176   0.05262   0.05368   0.05444
     Eigenvalues ---    0.05507   0.05621   0.05653   0.05825   0.05934
     Eigenvalues ---    0.06087   0.06108   0.06275   0.06622   0.06764
     Eigenvalues ---    0.06937   0.07029   0.07142   0.07315   0.07375
     Eigenvalues ---    0.07562   0.07954   0.08124   0.08177   0.08670
     Eigenvalues ---    0.09023   0.09330   0.09343   0.09858   0.10060
     Eigenvalues ---    0.10797   0.11479   0.11488   0.12180   0.12418
     Eigenvalues ---    0.12844   0.13649   0.14897   0.14921   0.15276
     Eigenvalues ---    0.15370   0.15837   0.15966   0.15994   0.15997
     Eigenvalues ---    0.16000   0.16190   0.16413   0.16956   0.18172
     Eigenvalues ---    0.18715   0.19033   0.19575   0.20445   0.21422
     Eigenvalues ---    0.21684   0.22075   0.22395   0.22518   0.23466
     Eigenvalues ---    0.23727   0.23970   0.24561   0.24602   0.24838
     Eigenvalues ---    0.24883   0.24916   0.24975   0.26191   0.26383
     Eigenvalues ---    0.27119   0.27641   0.29117   0.29133   0.29210
     Eigenvalues ---    0.29734   0.30613   0.30768   0.31320   0.31354
     Eigenvalues ---    0.31622   0.31910   0.32306   0.32435   0.32590
     Eigenvalues ---    0.32713   0.32977   0.33464   0.33553   0.33699
     Eigenvalues ---    0.33767   0.34060   0.34401   0.34496   0.34510
     Eigenvalues ---    0.35214   0.35550   0.35732   0.35896   0.36044
     Eigenvalues ---    0.36217   0.36240   0.36299   0.37222   0.37685
     Eigenvalues ---    0.37764   0.38735   0.39737   0.39894   0.40084
     Eigenvalues ---    0.41200   0.41257   0.41558   0.41870   0.43364
     Eigenvalues ---    0.43708   0.44241   0.44903   0.45079   0.45181
     Eigenvalues ---    0.49195   0.53120   0.55063
 RFO step:  Lambda=-2.95861275D-01 EMin= 4.23878029D-03
 Linear search not attempted -- first point.
 Maximum step size (   0.300) exceeded in Quadratic search.
    -- Step size scaled by   0.469
 Iteration  1 RMS(Cart)=  0.10031819 RMS(Int)=  0.00089632
 Iteration  2 RMS(Cart)=  0.00195734 RMS(Int)=  0.00020777
 Iteration  3 RMS(Cart)=  0.00000211 RMS(Int)=  0.00020777
 Iteration  4 RMS(Cart)=  0.00000000 RMS(Int)=  0.00020777
 Variable       Old X    -DE/DX   Delta X   Delta X   Delta X     New X
                                 (Linear)    (Quad)   (Total)
    R1        2.92509  -0.00040   0.00000  -0.00042  -0.00042   2.92467
[...]
   D153      -3.05420   0.00138  -0.02547   0.00258  -0.02386  -3.07806
   D154      -1.05980   0.00316  -0.02439   0.01116  -0.01656  -1.07637
   D155      -0.87017   0.00113   0.02267   0.00910   0.02900  -0.84117
   D156      -3.04687   0.00041   0.02199   0.00166   0.02390  -3.02296
   D157       1.14971   0.00151   0.02332   0.00030   0.02395   1.17367
   D158       1.04366  -0.00118   0.02484   0.00900   0.03004   1.07369
   D159      -1.18183  -0.00172   0.02736   0.00544   0.03289  -1.14894
   D160       3.00933  -0.00184   0.03423   0.00666   0.03892   3.04824
   D161      -3.12459   0.00269   0.03351   0.02130   0.04702  -3.07757
   D162       0.93310   0.00215   0.03603   0.01774   0.04988   0.98298
   D163      -1.15893   0.00203   0.04290   0.01896   0.05590  -1.10302
   D164      -1.03723   0.00110   0.03391   0.02226   0.04852  -0.98871
   D165       3.02047   0.00056   0.03643   0.01870   0.05138   3.07184
   D166       0.92844   0.00044   0.04330   0.01992   0.05740   0.98584
   D167       0.80848  -0.00098  -0.01267  -0.03551  -0.03304   0.77545
   D168      -2.15891  -0.00006  -0.00074  -0.01971  -0.01924  -2.17815
   D169       3.01285  -0.00059  -0.02483  -0.03597  -0.04627   2.96658
   D170       0.04545   0.00033  -0.01290  -0.02017  -0.03247   0.01298
   D171      -1.16014  -0.00036  -0.03210  -0.03333  -0.05043  -1.21057
   D172       2.15565   0.00056  -0.02017  -0.01753  -0.03663   2.11902
   D173      -0.82754  -0.00273  -0.02877  -0.06731  -0.07613  -0.90367
   D174       2.02118   0.01027   0.18914   0.25150   0.31132   2.33250
   D175       2.16072  -0.00322  -0.04083  -0.07910  -0.08757   2.07315
   D176      -1.27375   0.00977   0.17707   0.23972   0.29987  -0.97388
   D177      -3.07701  -0.00006  -0.00660  -0.00470  -0.00985  -3.08686
   D178      -0.00820   0.00009   0.00051  -0.00013   0.00041  -0.00779
   D179       3.07107   0.00018   0.00672   0.00513   0.01034   3.08141
   D180      -0.03654   0.00014   0.00486   0.00360   0.00740  -0.02914
   D181       0.00911  -0.00009  -0.00059  -0.00008  -0.00064   0.00846
   D182      -3.09851  -0.00014  -0.00244  -0.00162  -0.00358  -3.10209
   D183       0.00538  -0.00007  -0.00032   0.00032  -0.00009   0.00529
   D184      -3.12761  -0.00006  -0.00054  -0.00033  -0.00077  -3.12838
   D185       3.11746   0.00007   0.00011   0.00042   0.00041   3.11787
   D186      -0.00112   0.00003   0.00004  -0.00042  -0.00026  -0.00138
   D187      -0.03375   0.00006   0.00036   0.00118   0.00119  -0.03256
   D188       3.13086   0.00002   0.00029   0.00034   0.00052   3.13138
   D189      -3.10525  -0.00007  -0.00099  -0.00185  -0.00229  -3.10755
   D190       0.03015  -0.00004  -0.00053  -0.00085  -0.00113   0.02902
   D191       0.01329  -0.00003  -0.00091  -0.00101  -0.00162   0.01167
   D192      -3.13449   0.00000  -0.00045  -0.00001  -0.00045  -3.13495
   D193      -0.00544   0.00004   0.00038   0.00033   0.00061  -0.00483
   D194       3.11009   0.00007   0.00180   0.00148   0.00285   3.11294
   D195      -3.12969   0.00001   0.00031  -0.00032   0.00009  -3.12960
   D196      -0.01416   0.00004   0.00173   0.00084   0.00233  -0.01183
   D197      -0.00645   0.00001  -0.00036   0.00073   0.00015  -0.00629
   D198       3.13791   0.00002   0.00033   0.00064   0.00077   3.13868
   D199       3.14127  -0.00002  -0.00082  -0.00026  -0.00100   3.14027
   D200       0.00245  -0.00001  -0.00013  -0.00035  -0.00038   0.00207
   D201      -0.00148   0.00001   0.00115  -0.00021   0.00101  -0.00047
   D202       3.13762   0.00000   0.00054  -0.00012   0.00045   3.13807
   D203       3.11756   0.00001   0.00018   0.00112   0.00097   3.11853
   D204       0.00889  -0.00003  -0.00160  -0.00037  -0.00187   0.00703
         Item               Value     Threshold  Converged?
 Maximum Force            0.023271     0.000450     NO 
 RMS     Force            0.002626     0.000300     NO 
 Maximum Displacement     0.691542     0.001800     NO 
 RMS     Displacement     0.080787     0.001200     NO 
 Predicted change in Energy=-9.867478D-03
 GradGradGradGradGradGradGradGradGradGradGradGradGradGradGradGradGradGrad

 Stoichiometry    C23H27N3OS3Si
 Framework group  C1[X(C23H27N3OS3Si)]
 Deg. of freedom   168
 Full point group                 C1      NOp   1
 Largest Abelian subgroup         C1      NOp   1
 Largest concise Abelian subgroup C1      NOp   1
                         Standard orientation:                         
 ---------------------------------------------------------------------
 Center     Atomic      Atomic             Coordinates (Angstroms)
 Number     Number       Type             X           Y           Z
 ---------------------------------------------------------------------
      1         14           0       -0.729245   -2.486684    2.304742
      2          1           0       -0.304960   -1.062236    2.174309
      3          1           0       -1.508957   -2.298408    3.578018
      4          6           0       -1.110604   -2.972646    0.478657
      5          6           0       -1.233079   -1.699838   -0.320794
      6          6           0       -2.086783   -0.524299   -0.687559
      7          6           0       -1.397917    0.758148   -0.105254
      8          6           0        0.129758    0.934418   -0.428762
      9          6           0        0.822650    1.592366    0.825626
     10          7           0        0.578861    3.077690    0.730083
     11         16           0        2.145897    3.932433    0.914126
     12          7           0        2.968271    2.510903    0.284407
     13          6           0        2.357176    1.389720    1.016441
     14          6           0        2.779619    0.016455    0.517979
     15          6           0        4.267714   -0.447617    0.475785
     16          7           0        5.441681    0.430891    0.976475
     17          6           0        6.429001   -0.488206    0.129936
     18          6           0        7.084724   -1.031876   -1.248173
     19          6           0        5.653601   -1.687700   -1.679156
     20          6           0        4.451802   -0.773736   -1.117218
     21          8           0        3.141447   -1.197375   -1.502317
     22          6           0        2.309175   -0.161436   -0.939636
     23          6           0        0.809844   -0.368585   -1.019778
     24          6           0        0.192375   -1.605560   -0.437142
     25          6           0        0.527894   -2.790234    0.251830
     26          6           0       -3.550238   -0.615824   -0.339194
     27         16           0       -4.269533   -2.092145    0.270241
     28          6           0       -5.866773   -1.431202    0.316674
     29          6           0       -5.867703   -0.126598   -0.123248
     30          6           0       -6.866936    0.898010   -0.325896
     31          6           0       -6.337721    2.038666   -0.831837
     32         16           0       -4.590938    1.979673   -1.097723
     33          6           0       -4.545850    0.320282   -0.494967
     34          1           0       -1.756524   -3.843761    0.296796
     35          1           0       -2.028710   -0.442028   -1.788729
     36          1           0       -1.535126    0.698498    0.978294
     37          1           0       -1.926695    1.654287   -0.442717
     38          1           0        0.211696    1.692922   -1.212544
     39          1           0        0.343230    1.203305    1.729923
     40          1           0        0.045497    3.358928    1.554439
     41          1           0        3.967061    2.570800    0.496662
     42          1           0        2.569321    1.474378    2.094924
     43          1           0        2.232120   -0.704181    1.136065
     44          1           0        4.315470   -1.408997    1.007991
     45          1           0        5.580112    0.311921    1.983478
     46          1           0        5.832561   -0.026503   -0.616931
     47          1           0        6.099850   -1.465349    0.494883
     48          1           0        7.878991   -1.778813   -1.140724
     49          1           0        7.394298   -0.247536   -1.944720
     50          1           0        5.583534   -2.695519   -1.255191
     51          1           0        5.551848   -1.776315   -2.767625
     52          1           0        4.620634    0.216836   -1.595582
     53          1           0        2.531115    0.763032   -1.489184
     54          1           0        0.538716   -0.389828   -2.086449
     55          1           0        1.121053   -3.698525    0.274274
     56          1           0       -6.693208   -2.033646    0.667198
     57          1           0       -7.920930    0.774638   -0.105809
     58          1           0       -6.863003    2.952660   -1.077822
 ---------------------------------------------------------------------
 Rotational constants (GHZ):      0.2242988      0.0656368      0.0562948
 Standard basis: 6-31++G(d,p) (6D, 7F)
 There are   767 symmetry adapted basis functions of A   symmetry.
 Integral buffers will be    131072 words long.
 Raffenetti 2 integral format.
 Two-electron integral symmetry is turned on.
   767 basis functions,  1304 primitive gaussians,   767 cartesian basis functions
   128 alpha electrons      128 beta electrons
       nuclear repulsion energy      3862.4447574413 Hartrees.
 NAtoms=   58 NActive=   58 NUniq=   58 SFac= 1.00D+00 NAtFMM=   60 NAOKFM=F Big=F
 One-electron integrals computed using PRISM.
 NBasis=   767 RedAO= T  NBF=   767
 NBsUse=   759 1.00D-06 NBFU=   759
 Initial guess read from the read-write file.
 B after Tr=     0.000000    0.000000   -0.000000
         Rot=    1.000000   -0.000000    0.000000    0.000000 Ang=   0.00 deg.
 Initial guess orbital symmetries:
       Occupied  (A) (A) (A) (A) (A) (A) (A) (A) (A) (A) (A) (A)
                 (A) (A) (A) (A) (A) (A) (A) (A) (A) (A) (A) (A)
                 (A) (A) (A) (A) (A) (A) (A) (A) (A) (A) (A) (A)
                 (A) (A) (A) (A) (A) (A) (A) (A) (A) (A) (A) (A)
                 (A) (A) (A) (A) (A) (A) (A) (A) (A) (A) (A) (A)
                 (A) (A) (A) (A) (A) (A) (A) (A) (A) (A) (A) (A)
                 (A) (A) (A) (A) (A) (A) (A) (A) (A) (A) (A) (A)
                 (A) (A) (A) (A) (A) (A) (A) (A) (A) (A) (A) (A)
                 (A) (A) (A) (A) (A) (A) (A) (A) (A) (A) (A) (A)
                 (A) (A) (A) (A) (A) (A) (A) (A) (A) (A) (A) (A)
                 (A) (A) (A) (A) (A) (A) (A) (A)
       Virtual   (A) (A) (A) (A) (A) (A) (A) (A) (A) (A) (A) (A)
                 (A) (A) (A) (A) (A) (A) (A) (A) (A) (A) (A) (A)
                 (A) (A) (A) (A) (A) (A) (A) (A) (A) (A) (A) (A)
                 (A) (A) (A) (A) (A) (A) (A) (A) (A) (A) (A) (A)
                 (A) (A) (A) (A) (A) (A) (A) (A) (A) (A) (A) (A)
                 (A) (A) (A) (A) (A) (A) (A) (A) (A) (A) (A) (A)
                 (A) (A) (A) (A) (A) (A) (A) (A) (A) (A) (A) (A)
                 (A) (A) (A) (A) (A) (A) (A) (A) (A) (A) (A) (A)
                 (A) (A) (A) (A) (A) (A) (A) (A) (A) (A) (A) (A)
                 (A) (A) (A) (A) (A) (A) (A) (A) (A) (A) (A) (A)
                 (A) (A) (A) (A) (A) (A) (A) (A) (A) (A) (A) (A)
                 (A) (A) (A) (A) (A) (A) (A) (A) (A) (A) (A) (A)
                 (A) (A) (A) (A) (A) (A) (A) (A) (A) (A) (A) (A)
                 (A) (A) (A) (A) (A) (A) (A) (A) (A) (A) (A) (A)
                 (A) (A) (A) (A) (A) (A) (A) (A) (A) (A) (A) (A)
                 (A) (A) (A) (A) (A) (A) (A) (A) (A) (A) (A) (A)
                 (A) (A) (A) (A) (A) (A) (A) (A) (A) (A) (A) (A)
                 (A) (A) (A) (A) (A) (A) (A) (A) (A) (A) (A) (A)
                 (A) (A) (A) (A) (A) (A) (A) (A) (A) (A) (A) (A)
                 (A) (A) (A) (A) (A) (A) (A) (A) (A) (A) (A) (A)
                 (A) (A) (A) (A) (A) (A) (A) (A) (A) (A) (A) (A)
                 (A) (A) (A) (A) (A) (A) (A) (A) (A) (A) (A) (A)
                 (A) (A) (A) (A) (A) (A) (A) (A) (A) (A) (A) (A)
                 (A) (A) (A) (A) (A) (A) (A) (A) (A) (A) (A) (A)
                 (A) (A) (A) (A) (A) (A) (A) (A) (A) (A) (A) (A)
                 (A) (A) (A) (A) (A) (A) (A) (A) (A) (A) (A) (A)
                 (A) (A) (A) (A) (A) (A) (A) (A) (A) (A) (A) (A)
                 (A) (A) (A) (A) (A) (A) (A) (A) (A) (A) (A) (A)
                 (A) (A) (A) (A) (A) (A) (A) (A) (A) (A) (A) (A)
                 (A) (A) (A) (A) (A) (A) (A) (A) (A) (A) (A) (A)
                 (A) (A) (A) (A) (A) (A) (A) (A) (A) (A) (A) (A)
                 (A) (A) (A) (A) (A) (A) (A) (A) (A) (A) (A) (A)
                 (A) (A) (A) (A) (A) (A) (A) (A) (A) (A) (A) (A)
                 (A) (A) (A) (A) (A) (A) (A) (A) (A) (A) (A) (A)
                 (A) (A) (A) (A) (A) (A) (A) (A) (A) (A) (A) (A)
                 (A) (A) (A) (A) (A) (A) (A) (A) (A) (A) (A) (A)
                 (A) (A) (A) (A) (A) (A) (A) (A) (A) (A) (A) (A)
                 (A) (A) (A) (A) (A) (A) (A) (A) (A) (A) (A) (A)
                 (A) (A) (A) (A) (A) (A) (A) (A) (A) (A) (A) (A)
                 (A) (A) (A) (A) (A) (A) (A) (A) (A) (A) (A) (A)
                 (A) (A) (A) (A) (A) (A) (A) (A) (A) (A) (A) (A)
                 (A) (A) (A) (A) (A) (A) (A) (A) (A) (A) (A) (A)
                 (A) (A) (A) (A) (A) (A) (A) (A) (A) (A) (A) (A)
                 (A) (A) (A) (A) (A) (A) (A) (A) (A) (A) (A) (A)
                 (A) (A) (A) (A) (A) (A) (A) (A) (A) (A) (A) (A)
                 (A) (A) (A) (A) (A) (A) (A) (A) (A) (A) (A) (A)
                 (A) (A) (A) (A) (A) (A) (A) (A) (A) (A) (A) (A)
                 (A) (A) (A) (A) (A) (A) (A) (A) (A) (A) (A) (A)
                 (A) (A) (A) (A) (A) (A) (A) (A) (A) (A) (A) (A)
                 (A) (A) (A) (A) (A) (A) (A) (A) (A) (A) (A) (A)
                 (A) (A) (A) (A) (A) (A) (A) (A) (A) (A) (A) (A)
                 (A) (A) (A) (A) (A) (A) (A) (A) (A) (A) (A) (A)
                 (A) (A) (A) (A) (A) (A) (A)
 Harris functional with IExCor=  402 diagonalized for initial guess.
 ExpMin= 3.31D-02 ExpMax= 2.19D+04 ExpMxC= 3.30D+03 IAcc=3 IRadAn=         5 AccDes= 0.00D+00
 HarFok:  IExCor=  402 AccDes= 0.00D+00 IRadAn=         5 IDoV= 1
 ScaDFX=  1.000000  1.000000  1.000000  1.000000
 FoFCou: FMM=F IPFlag=           0 FMFlag=      100000 FMFlg1=           0
         NFxFlg=           0 DoJE=T BraDBF=F KetDBF=T FulRan=T
         Omega=  0.000000  0.000000  1.000000  0.000000  0.000000 ICntrl=     500 IOpCl=  0
         NMat0=    1 NMatS0=    1 NMatT0=    0 NMatD0=    1 NMtDS0=    0 NMtDT0=    0
         I1Cent=           4 NGrid=           0.
 Petite list used in FoFCou.
 Requested convergence on RMS density matrix=1.00D-08 within 128 cycles.
 Requested convergence on MAX density matrix=1.00D-06.
 Requested convergence on             energy=1.00D-06.
 No special actions if energy rises.
 SCF Done:  E(RB3LYP) =  -2615.78142300     A.U. after   15 cycles
             Convg  =    0.7491D-08             -V/T =  2.0062
 Calling FoFJK, ICntrl=      2127 FMM=F ISym2X=0 I1Cent= 0 IOpClX= 0 NMat=1 NMatS=1 NMatT=0.
 ***** Axes restored to original set *****
 -------------------------------------------------------------------
 Center     Atomic                   Forces (Hartrees/Bohr)
 Number     Number              X              Y              Z
 -------------------------------------------------------------------
      1       14           0.016355268   -0.005833710   -0.029214799
      2        1           0.000724318    0.000437890    0.001290709
      3        1          -0.011421271    0.006861977    0.009680810
      4        6           0.011136033   -0.004300123    0.002580186
      5        6          -0.023012605   -0.037847159   -0.012118893
      6        6          -0.001225052    0.002182070    0.001678836
      7        6          -0.001224939   -0.002118731   -0.001424405
      8        6           0.002689312    0.001155457    0.001629208
      9        6          -0.000472322    0.001808453   -0.002624000
     10        7          -0.001581902   -0.003348696    0.006256499
     11       16           0.001111857    0.000707490   -0.001995416
     12        7          -0.002774121    0.000163951   -0.000371571
     13        6           0.001492872   -0.001169303    0.000268574
     14        6          -0.001597651   -0.003295084   -0.003053466
     15        6           0.006524906    0.005458861    0.004018166
     16        7          -0.002642843    0.001397940   -0.004231866
     17        6           0.002225128   -0.001947348    0.001146583
     18        6           0.001543038    0.000525580    0.001955988
     19        6           0.000976803   -0.000899496    0.000117285
     20        6          -0.000513688    0.001947547    0.003690218
     21        8          -0.001082165    0.000941080   -0.000459936
     22        6          -0.003224096   -0.002456466    0.000184592
     23        6          -0.003142964    0.000466520   -0.000810937
     24        6           0.006847378    0.005424549    0.000442130
     25        6           0.000705756    0.044823019    0.048394700
     26        6           0.000479196    0.000591095    0.000922024
     27       16           0.000912879    0.000193462    0.000876432
     28        6          -0.000055974   -0.000518953   -0.000290142
     29        6          -0.000051297    0.000105262   -0.000315641
     30        6          -0.000327990   -0.000005509    0.000391968
     31        6           0.000334327   -0.000159546   -0.000426373
     32       16           0.000266546   -0.000003396   -0.000129331
     33        6           0.000175669    0.000658173    0.000470882
     34        1          -0.004970122   -0.006275706   -0.009063002
     35        1          -0.000935143   -0.000110774    0.000108343
     36        1           0.000470009    0.000027799    0.000304744
     37        1          -0.000477933    0.000719010    0.000126473
     38        1          -0.000806873   -0.000256855   -0.000485829
     39        1          -0.000098879    0.000641253    0.000255975
     40        1           0.000351162    0.001210215   -0.001954467
     41        1           0.000231143   -0.000209566    0.000321942
     42        1           0.000611923    0.000567289    0.000677123
     43        1          -0.000331442   -0.000925565   -0.000077691
     44        1           0.000378183    0.001141183   -0.002089116
     45        1          -0.000336490    0.001271358    0.002064319
     46        1          -0.001979530   -0.001037808   -0.000333472
     47        1          -0.001138614   -0.000143180   -0.002419858
     48        1           0.000223739   -0.000153725   -0.000497378
     49        1          -0.000224476    0.000039179    0.000047860
     50        1           0.000164309   -0.000291034   -0.000157219
     51        1          -0.000205292    0.000114607   -0.000056955
     52        1           0.000814447    0.000773283    0.001798511
     53        1           0.000679517   -0.000622162   -0.000324841
     54        1           0.001315928   -0.000128214   -0.000129678
     55        1           0.006215475   -0.008290944   -0.016444972
     56        1          -0.000016948    0.000065653   -0.000115923
     57        1          -0.000085103   -0.000038680   -0.000028916
     58        1           0.000000603   -0.000033471   -0.000054991
 -------------------------------------------------------------------
 Cartesian Forces:  Max     0.048394700 RMS     0.007191627

 GradGradGradGradGradGradGradGradGradGradGradGradGradGradGradGradGradGrad
 Berny optimization.
 Using GEDIIS/GDIIS optimizer.
 NTrRot=    -1 NTRed=   390 NAtoms=    58 NSkip=   222 IsLin=F
 Error in internal coordinate system.
 Error termination via Lnk1e in /opt/gaussian/g09/l103.exe at Mon Dec 30 10:09:28 2013.
 Job cpu time:  3 days 22 hours 43 minutes  5.0 seconds.
 File lengths (MBytes):  RWF=    381 Int=      0 D2E=      0 Chk=     46 Scr=      1
