 Entering Gaussian System, Link 0=g09
 Initial command:
 /opt/gaussian/g09/l1.exe /panfs/panfs.cluster/home/shuo/Gau-19048.inp -scrdir=/panfs/panfs.cluster/home/shuo/
 Default is to use a total of  12 processors:
                               12 via shared-memory
                                1 via Linda
 Entering Link 1 = /opt/gaussian/g09/l1.exe PID=     19049.
  
 Copyright (c) 1988,1990,1992,1993,1995,1998,2003,2009,2011,
            Gaussian, Inc.  All Rights Reserved.
  
 This is part of the Gaussian(R) 09 program.  It is based on
 the Gaussian(R) 03 system (copyright 2003, Gaussian, Inc.),
 the Gaussian(R) 98 system (copyright 1998, Gaussian, Inc.),
 the Gaussian(R) 94 system (copyright 1995, Gaussian, Inc.),
 the Gaussian 92(TM) system (copyright 1992, Gaussian, Inc.),
 the Gaussian 90(TM) system (copyright 1990, Gaussian, Inc.),
 the Gaussian 88(TM) system (copyright 1988, Gaussian, Inc.),
 the Gaussian 86(TM) system (copyright 1986, Carnegie Mellon
 University), and the Gaussian 82(TM) system (copyright 1983,
 Carnegie Mellon University). Gaussian is a federally registered
 trademark of Gaussian, Inc.
  
 This software contains proprietary and confidential information,
 including trade secrets, belonging to Gaussian, Inc.
  
 This software is provided under written license and may be
 used, copied, transmitted, or stored only in accord with that
 written license.
  
 The following legend is applicable only to US Government
 contracts under FAR:
  
                    RESTRICTED RIGHTS LEGEND
  
 Use, reproduction and disclosure by the US Government is
 subject to restrictions as set forth in subparagraphs (a)
 and (c) of the Commercial Computer Software - Restricted
 Rights clause in FAR 52.227-19.
  
 Gaussian, Inc.
 340 Quinnipiac St., Bldg. 40, Wallingford CT 06492
  
  
 ---------------------------------------------------------------
 Warning -- This program may not be used in any manner that
 competes with the business of Gaussian, Inc. or will provide
 assistance to any competitor of Gaussian, Inc.  The licensee
 of this program is prohibited from giving any competitor of
 Gaussian, Inc. access to this program.  By using this program,
 the user acknowledges that Gaussian, Inc. is engaged in the
 business of creating and licensing software in the field of
 computational chemistry and represents and warrants to the
 licensee that it is not a competitor of Gaussian, Inc. and that
 it will not use this program in any manner prohibited above.
 ---------------------------------------------------------------
  

 Cite this work as:
 Gaussian 09, Revision C.01,
 M. J. Frisch, G. W. Trucks, H. B. Schlegel, G. E. Scuseria, 
 M. A. Robb, J. R. Cheeseman, G. Scalmani, V. Barone, B. Mennucci, 
 G. A. Petersson, H. Nakatsuji, M. Caricato, X. Li, H. P. Hratchian, 
 A. F. Izmaylov, J. Bloino, G. Zheng, J. L. Sonnenberg, M. Hada, 
 M. Ehara, K. Toyota, R. Fukuda, J. Hasegawa, M. Ishida, T. Nakajima, 
 Y. Honda, O. Kitao, H. Nakai, T. Vreven, J. A. Montgomery, Jr., 
 J. E. Peralta, F. Ogliaro, M. Bearpark, J. J. Heyd, E. Brothers, 
 K. N. Kudin, V. N. Staroverov, T. Keith, R. Kobayashi, J. Normand, 
 K. Raghavachari, A. Rendell, J. C. Burant, S. S. Iyengar, J. Tomasi, 
 M. Cossi, N. Rega, J. M. Millam, M. Klene, J. E. Knox, J. B. Cross, 
 V. Bakken, C. Adamo, J. Jaramillo, R. Gomperts, R. E. Stratmann, 
 O. Yazyev, A. J. Austin, R. Cammi, C. Pomelli, J. W. Ochterski, 
 R. L. Martin, K. Morokuma, V. G. Zakrzewski, G. A. Voth, 
 P. Salvador, J. J. Dannenberg, S. Dapprich, A. D. Daniels, 
 O. Farkas, J. B. Foresman, J. V. Ortiz, J. Cioslowski, 
 and D. J. Fox, Gaussian, Inc., Wallingford CT, 2010.
 
 ******************************************
 Gaussian 09:  EM64L-G09RevC.01 23-Sep-2011
                28-Dec-2013 
 ******************************************
 %chk=29_C22H10N4S4Si.chk
 %NProcShared=12
 Will use up to   12 processors via shared memory.
 %Mem=8000MB
 Default route:  MaxDisk=100GB
 --------------------------------------------
 #B3LYP/6-31++G(d,p) opt scf=direct freq test
 --------------------------------------------
 1/14=-1,18=20,19=15,26=3,38=1/1,3;
 2/9=110,12=2,17=6,18=5,40=1/2;
 3/5=1,6=6,7=1111,11=2,16=1,25=1,30=1,71=1,74=-5/1,2,3;
 4//1;
 5/5=2,38=5/2;
 6/7=2,8=2,9=2,10=2,28=1/1;
 7//1,2,3,16;
 1/14=-1,18=20,19=15/3(2);
 2/9=110/2;
 99//99;
 2/9=110/2;
 3/5=1,6=6,7=1111,11=2,16=1,25=1,30=1,71=1,74=-5/1,2,3;
 4/5=5,16=3/1;
 5/5=2,38=5/2;
 7//1,2,3,16;
 1/14=-1,18=20,19=15/3(-5);
 2/9=110/2;
 6/7=2,8=2,9=2,10=2,19=2,28=1/1;
 99/9=1/99;
 ----------------------------------------------------------------------
 Geom opt of No.29 candidate from the CEPDB database with SMILE code of
  c1scc2c(cccc12)-c1cnc(-c2sc(-c3ccccn3)c3nccnc23)c2nsnc12, HPC, 201312
 27, Shuo Dai, Gaussian09
 ----------------------------------------------------------------------
 Charge =  0 Multiplicity = 1
 Symbolic Z-Matrix:
 C                    -1.50745   1.35855   0.17016 
 S                    -2.70253   0.1223    0.14914 
 C                    -1.51023  -1.10808   0.22865 
 C                    -0.24291  -0.58611   0.06357 
 C                     0.93715  -1.3317   -0.04772 
 C                     2.10593  -0.54356  -0.15909 
 C                     2.09539   0.86856  -0.13242 
 C                     0.91255   1.62852  -0.01837 
 C                    -0.24197   0.843     0.0658 
 C                     0.96921  -2.75287  -0.05679 
 C                     0.10101  -3.5363   -0.81239 
 N                     0.04562  -4.87826  -0.82386 
 C                     0.92694  -5.59807  -0.09351 
 C                     0.78307  -7.02713  -0.16122 
 S                     1.77751  -7.90873   0.86401 
 C                     1.29409  -9.4119    0.31076 
 C                     2.01467  -10.52336   0.89903 
 C                     3.24669  -10.36106   1.56559 
 C                     3.94463  -11.47682   1.97611 
 C                     3.35908  -12.71458   1.78556 
 C                     2.09104  -12.77657   1.22529 
 N                     1.42     -11.71405   0.7593 
 C                     0.26133  -9.27028  -0.60146 
 N                    -0.39854  -10.29983  -1.19556 
 C                    -1.37924  -9.85291  -2.02527 
 C                    -1.67614  -8.51063  -2.27332 
 N                    -1.02533  -7.45706  -1.72522 
 C                    -0.03896  -7.86728  -0.8657 
 C                     1.92265  -4.92345   0.68621 
 N                     2.92715  -5.4211    1.44014 
 S                     3.73706  -4.17634   2.13482 
 N                     2.8666   -2.92854   1.51326 
 C                     1.91754  -3.45524   0.71289 
 H                    -1.81543   2.38902   0.23207 
 H                    -1.83582  -2.135     0.34561 
 H                     3.07328  -1.04365  -0.25877 
 H                     3.05853   1.37154  -0.20479 
 H                     0.92891   2.7068   -0.00645 
 H                    -0.63962  -3.07612  -1.46564 
 H                     3.69206  -9.38878   1.76586 
 H                     4.92352  -11.3653   2.43156 
 H                     3.87285  -13.61698   2.08152 
 H                     1.55478  -13.71186   1.12979 
 H                    -1.9516   -10.63685  -2.50905 
 H                    -2.48399  -8.24736  -2.95247 
 

 GradGradGradGradGradGradGradGradGradGradGradGradGradGradGradGradGradGrad
 Berny optimization.
 Initialization pass.
                           ----------------------------
                           !    Initial Parameters    !
                           ! (Angstroms and Degrees)  !
 --------------------------                            --------------------------
 ! Name  Definition              Value          Derivative Info.                !
 --------------------------------------------------------------------------------
 ! R1    R(1,2)                  1.7196         estimate D2E/DX2                !
 ! R2    R(1,9)                  1.3704         estimate D2E/DX2                !
 ! R3    R(1,34)                 1.0773         estimate D2E/DX2                !
 ! R4    R(2,3)                  1.7151         estimate D2E/DX2                !
 ! R5    R(3,4)                  1.3805         estimate D2E/DX2                !
 ! R6    R(3,35)                 1.0836         estimate D2E/DX2                !
 ! R7    R(4,5)                  1.4003         estimate D2E/DX2                !
 ! R8    R(4,9)                  1.4291         estimate D2E/DX2                !
 ! R9    R(5,6)                  1.4141         estimate D2E/DX2                !
 ! R10   R(5,10)                 1.4216         estimate D2E/DX2                !
 ! R11   R(6,7)                  1.4124         estimate D2E/DX2                !
 ! R12   R(6,36)                 1.0935         estimate D2E/DX2                !
 ! R13   R(7,8)                  1.4106         estimate D2E/DX2                !
 ! R14   R(7,37)                 1.089          estimate D2E/DX2                !
 ! R15   R(8,9)                  1.3989         estimate D2E/DX2                !
 ! R16   R(8,38)                 1.0785         estimate D2E/DX2                !
 ! R17   R(10,11)                1.3923         estimate D2E/DX2                !
 ! R18   R(10,33)                1.4089         estimate D2E/DX2                !
 ! R19   R(11,12)                1.3432         estimate D2E/DX2                !
 ! R20   R(11,39)                1.0895         estimate D2E/DX2                !
 ! R21   R(12,13)                1.3521         estimate D2E/DX2                !
 ! R22   R(13,14)                1.4379         estimate D2E/DX2                !
 ! R23   R(13,29)                1.4334         estimate D2E/DX2                !
 ! R24   R(14,15)                1.6785         estimate D2E/DX2                !
 ! R25   R(14,28)                1.3704         estimate D2E/DX2                !
 ! R26   R(15,16)                1.6731         estimate D2E/DX2                !
 ! R27   R(16,17)                1.4494         estimate D2E/DX2                !
 ! R28   R(16,23)                1.3852         estimate D2E/DX2                !
 ! R29   R(17,18)                1.4101         estimate D2E/DX2                !
 ! R30   R(17,22)                1.3382         estimate D2E/DX2                !
 ! R31   R(18,19)                1.3786         estimate D2E/DX2                !
 ! R32   R(18,40)                1.088          estimate D2E/DX2                !
 ! R33   R(19,20)                1.3825         estimate D2E/DX2                !
 ! R34   R(19,41)                1.0854         estimate D2E/DX2                !
 ! R35   R(20,21)                1.3877         estimate D2E/DX2                !
 ! R36   R(20,42)                1.0798         estimate D2E/DX2                !
 ! R37   R(21,22)                1.3403         estimate D2E/DX2                !
 ! R38   R(21,43)                1.0823         estimate D2E/DX2                !
 ! R39   R(23,24)                1.3595         estimate D2E/DX2                !
 ! R40   R(23,28)                1.4589         estimate D2E/DX2                !
 ! R41   R(24,25)                1.3601         estimate D2E/DX2                !
 ! R42   R(25,26)                1.3969         estimate D2E/DX2                !
 ! R43   R(25,44)                1.0845         estimate D2E/DX2                !
 ! R44   R(26,27)                1.3542         estimate D2E/DX2                !
 ! R45   R(26,45)                1.0877         estimate D2E/DX2                !
 ! R46   R(27,28)                1.3711         estimate D2E/DX2                !
 ! R47   R(29,30)                1.351          estimate D2E/DX2                !
 ! R48   R(29,33)                1.4685         estimate D2E/DX2                !
 ! R49   R(30,31)                1.6395         estimate D2E/DX2                !
 ! R50   R(31,32)                1.6435         estimate D2E/DX2                !
 ! R51   R(32,33)                1.3486         estimate D2E/DX2                !
 ! A1    A(2,1,9)              111.7383         estimate D2E/DX2                !
 ! A2    A(2,1,34)             119.3207         estimate D2E/DX2                !
 ! A3    A(9,1,34)             128.9179         estimate D2E/DX2                !
 ! A4    A(1,2,3)               91.836          estimate D2E/DX2                !
 ! A5    A(2,3,4)              111.1853         estimate D2E/DX2                !
 ! A6    A(2,3,35)             118.4214         estimate D2E/DX2                !
 ! A7    A(4,3,35)             130.3193         estimate D2E/DX2                !
 ! A8    A(3,4,5)              125.578          estimate D2E/DX2                !
 ! A9    A(3,4,9)              112.2418         estimate D2E/DX2                !
 ! A10   A(5,4,9)              122.1421         estimate D2E/DX2                !
 ! A11   A(4,5,6)              113.9558         estimate D2E/DX2                !
 ! A12   A(4,5,10)             123.4918         estimate D2E/DX2                !
 ! A13   A(6,5,10)             122.5514         estimate D2E/DX2                !
 ! A14   A(5,6,7)              123.3384         estimate D2E/DX2                !
 ! A15   A(5,6,36)             118.9113         estimate D2E/DX2                !
 ! A16   A(7,6,36)             117.7457         estimate D2E/DX2                !
 ! A17   A(6,7,8)              123.1232         estimate D2E/DX2                !
 ! A18   A(6,7,37)             116.9964         estimate D2E/DX2                !
 ! A19   A(8,7,37)             119.8804         estimate D2E/DX2                !
 ! A20   A(7,8,9)              113.2281         estimate D2E/DX2                !
 ! A21   A(7,8,38)             121.7926         estimate D2E/DX2                !
 ! A22   A(9,8,38)             124.9782         estimate D2E/DX2                !
 ! A23   A(1,9,4)              112.0677         estimate D2E/DX2                !
 ! A24   A(1,9,8)              123.7394         estimate D2E/DX2                !
 ! A25   A(4,9,8)              124.1913         estimate D2E/DX2                !
 ! A26   A(5,10,11)            123.5            estimate D2E/DX2                !
 ! A27   A(5,10,33)            120.6687         estimate D2E/DX2                !
 ! A28   A(11,10,33)           115.829          estimate D2E/DX2                !
 ! A29   A(10,11,12)           126.3377         estimate D2E/DX2                !
 ! A30   A(10,11,39)           120.7722         estimate D2E/DX2                !
 ! A31   A(12,11,39)           112.8826         estimate D2E/DX2                !
 ! A32   A(11,12,13)           120.0256         estimate D2E/DX2                !
 ! A33   A(12,13,14)           116.004          estimate D2E/DX2                !
 ! A34   A(12,13,29)           119.7397         estimate D2E/DX2                !
 ! A35   A(14,13,29)           124.2561         estimate D2E/DX2                !
 ! A36   A(13,14,15)           115.7203         estimate D2E/DX2                !
 ! A37   A(13,14,28)           133.9124         estimate D2E/DX2                !
 ! A38   A(15,14,28)           110.328          estimate D2E/DX2                !
 ! A39   A(14,15,16)            95.666          estimate D2E/DX2                !
 ! A40   A(15,16,17)           114.2744         estimate D2E/DX2                !
 ! A41   A(15,16,23)           109.9578         estimate D2E/DX2                !
 ! A42   A(17,16,23)           135.7554         estimate D2E/DX2                !
 ! A43   A(16,17,18)           122.5452         estimate D2E/DX2                !
 ! A44   A(16,17,22)           114.7717         estimate D2E/DX2                !
 ! A45   A(18,17,22)           122.6831         estimate D2E/DX2                !
 ! A46   A(17,18,19)           119.3353         estimate D2E/DX2                !
 ! A47   A(17,18,40)           123.195          estimate D2E/DX2                !
 ! A48   A(19,18,40)           117.4643         estimate D2E/DX2                !
 ! A49   A(18,19,20)           117.9788         estimate D2E/DX2                !
 ! A50   A(18,19,41)           119.8928         estimate D2E/DX2                !
 ! A51   A(20,19,41)           122.1283         estimate D2E/DX2                !
 ! A52   A(19,20,21)           118.8605         estimate D2E/DX2                !
 ! A53   A(19,20,42)           120.5936         estimate D2E/DX2                !
 ! A54   A(21,20,42)           120.5391         estimate D2E/DX2                !
 ! A55   A(20,21,22)           124.226          estimate D2E/DX2                !
 ! A56   A(20,21,43)           121.801          estimate D2E/DX2                !
 ! A57   A(22,21,43)           113.973          estimate D2E/DX2                !
 ! A58   A(17,22,21)           116.5233         estimate D2E/DX2                !
 ! A59   A(16,23,24)           124.9052         estimate D2E/DX2                !
 ! A60   A(16,23,28)           111.7809         estimate D2E/DX2                !
 ! A61   A(24,23,28)           123.3126         estimate D2E/DX2                !
 ! A62   A(23,24,25)           111.5741         estimate D2E/DX2                !
 ! A63   A(24,25,26)           125.2612         estimate D2E/DX2                !
 ! A64   A(24,25,44)           114.5274         estimate D2E/DX2                !
 ! A65   A(26,25,44)           120.2112         estimate D2E/DX2                !
 ! A66   A(25,26,27)           124.9973         estimate D2E/DX2                !
 ! A67   A(25,26,45)           120.085          estimate D2E/DX2                !
 ! A68   A(27,26,45)           114.9177         estimate D2E/DX2                !
 ! A69   A(26,27,28)           111.5104         estimate D2E/DX2                !
 ! A70   A(14,28,23)           111.9014         estimate D2E/DX2                !
 ! A71   A(14,28,27)           124.7764         estimate D2E/DX2                !
 ! A72   A(23,28,27)           123.3213         estimate D2E/DX2                !
 ! A73   A(13,29,30)           130.2951         estimate D2E/DX2                !
 ! A74   A(13,29,33)           118.5576         estimate D2E/DX2                !
 ! A75   A(30,29,33)           111.1465         estimate D2E/DX2                !
 ! A76   A(29,30,31)           108.9108         estimate D2E/DX2                !
 ! A77   A(30,31,32)            98.8907         estimate D2E/DX2                !
 ! A78   A(31,32,33)           107.4972         estimate D2E/DX2                !
 ! A79   A(10,33,29)           119.3963         estimate D2E/DX2                !
 ! A80   A(10,33,32)           127.099          estimate D2E/DX2                !
 ! A81   A(29,33,32)           113.5045         estimate D2E/DX2                !
 ! D1    D(9,1,2,3)              7.6641         estimate D2E/DX2                !
 ! D2    D(34,1,2,3)          -173.9336         estimate D2E/DX2                !
 ! D3    D(2,1,9,4)             -4.1792         estimate D2E/DX2                !
 ! D4    D(2,1,9,8)            176.2632         estimate D2E/DX2                !
 ! D5    D(34,1,9,4)           177.6113         estimate D2E/DX2                !
 ! D6    D(34,1,9,8)            -1.9463         estimate D2E/DX2                !
 ! D7    D(1,2,3,4)             -9.2034         estimate D2E/DX2                !
 ! D8    D(1,2,3,35)           173.604          estimate D2E/DX2                !
 ! D9    D(2,3,4,5)           -173.7447         estimate D2E/DX2                !
 ! D10   D(2,3,4,9)              8.4732         estimate D2E/DX2                !
 ! D11   D(35,3,4,5)             3.0165         estimate D2E/DX2                !
 ! D12   D(35,3,4,9)          -174.7656         estimate D2E/DX2                !
 ! D13   D(3,4,5,6)           -177.7352         estimate D2E/DX2                !
 ! D14   D(3,4,5,10)             2.6062         estimate D2E/DX2                !
 ! D15   D(9,4,5,6)             -0.1598         estimate D2E/DX2                !
 ! D16   D(9,4,5,10)          -179.8184         estimate D2E/DX2                !
 ! D17   D(3,4,9,1)             -2.7828         estimate D2E/DX2                !
 ! D18   D(3,4,9,8)            176.7724         estimate D2E/DX2                !
 ! D19   D(5,4,9,1)            179.3475         estimate D2E/DX2                !
 ! D20   D(5,4,9,8)             -1.0972         estimate D2E/DX2                !
 ! D21   D(4,5,6,7)              1.2922         estimate D2E/DX2                !
 ! D22   D(4,5,6,36)          -179.5014         estimate D2E/DX2                !
 ! D23   D(10,5,6,7)          -179.0456         estimate D2E/DX2                !
 ! D24   D(10,5,6,36)            0.1608         estimate D2E/DX2                !
 ! D25   D(4,5,10,11)           45.5117         estimate D2E/DX2                !
 ! D26   D(4,5,10,33)         -135.0629         estimate D2E/DX2                !
 ! D27   D(6,5,10,11)         -134.1181         estimate D2E/DX2                !
 ! D28   D(6,5,10,33)           45.3073         estimate D2E/DX2                !
 ! D29   D(5,6,7,8)             -1.2936         estimate D2E/DX2                !
 ! D30   D(5,6,7,37)           178.7053         estimate D2E/DX2                !
 ! D31   D(36,6,7,8)           179.4913         estimate D2E/DX2                !
 ! D32   D(36,6,7,37)           -0.5098         estimate D2E/DX2                !
 ! D33   D(6,7,8,9)              0.0324         estimate D2E/DX2                !
 ! D34   D(6,7,8,38)          -179.6028         estimate D2E/DX2                !
 ! D35   D(37,7,8,9)          -179.9664         estimate D2E/DX2                !
 ! D36   D(37,7,8,38)            0.3983         estimate D2E/DX2                !
 ! D37   D(7,8,9,1)           -179.3804         estimate D2E/DX2                !
 ! D38   D(7,8,9,4)              1.1152         estimate D2E/DX2                !
 ! D39   D(38,8,9,1)             0.2412         estimate D2E/DX2                !
 ! D40   D(38,8,9,4)          -179.2631         estimate D2E/DX2                !
 ! D41   D(5,10,11,12)        -177.1843         estimate D2E/DX2                !
 ! D42   D(5,10,11,39)           1.7486         estimate D2E/DX2                !
 ! D43   D(33,10,11,12)          3.3648         estimate D2E/DX2                !
 ! D44   D(33,10,11,39)       -177.7023         estimate D2E/DX2                !
 ! D45   D(5,10,33,29)         179.7952         estimate D2E/DX2                !
 ! D46   D(5,10,33,32)          -0.0319         estimate D2E/DX2                !
 ! D47   D(11,10,33,29)         -0.7371         estimate D2E/DX2                !
 ! D48   D(11,10,33,32)        179.4358         estimate D2E/DX2                !
 ! D49   D(10,11,12,13)         -2.9076         estimate D2E/DX2                !
 ! D50   D(39,11,12,13)        178.0876         estimate D2E/DX2                !
 ! D51   D(11,12,13,14)        179.5475         estimate D2E/DX2                !
 ! D52   D(11,12,13,29)         -0.3041         estimate D2E/DX2                !
 ! D53   D(12,13,14,15)       -174.1133         estimate D2E/DX2                !
 ! D54   D(12,13,14,28)          3.3344         estimate D2E/DX2                !
 ! D55   D(29,13,14,15)          5.7308         estimate D2E/DX2                !
 ! D56   D(29,13,14,28)       -176.8215         estimate D2E/DX2                !
 ! D57   D(12,13,29,30)       -177.0244         estimate D2E/DX2                !
 ! D58   D(12,13,29,33)          2.6182         estimate D2E/DX2                !
 ! D59   D(14,13,29,30)          3.1371         estimate D2E/DX2                !
 ! D60   D(14,13,29,33)       -177.2204         estimate D2E/DX2                !
 ! D61   D(13,14,15,16)       -176.2021         estimate D2E/DX2                !
 ! D62   D(28,14,15,16)          5.7584         estimate D2E/DX2                !
 ! D63   D(13,14,28,23)        177.8862         estimate D2E/DX2                !
 ! D64   D(13,14,28,27)         -1.7867         estimate D2E/DX2                !
 ! D65   D(15,14,28,23)         -4.5659         estimate D2E/DX2                !
 ! D66   D(15,14,28,27)        175.7612         estimate D2E/DX2                !
 ! D67   D(14,15,16,17)        175.7871         estimate D2E/DX2                !
 ! D68   D(14,15,16,23)         -5.286          estimate D2E/DX2                !
 ! D69   D(15,16,17,18)        -17.3921         estimate D2E/DX2                !
 ! D70   D(15,16,17,22)        162.6463         estimate D2E/DX2                !
 ! D71   D(23,16,17,18)        164.0536         estimate D2E/DX2                !
 ! D72   D(23,16,17,22)        -15.908          estimate D2E/DX2                !
 ! D73   D(15,16,23,24)       -176.9836         estimate D2E/DX2                !
 ! D74   D(15,16,23,28)          3.4178         estimate D2E/DX2                !
 ! D75   D(17,16,23,24)          1.6143         estimate D2E/DX2                !
 ! D76   D(17,16,23,28)       -177.9842         estimate D2E/DX2                !
 ! D77   D(16,17,18,19)       -173.1683         estimate D2E/DX2                !
 ! D78   D(16,17,18,40)          5.9593         estimate D2E/DX2                !
 ! D79   D(22,17,18,19)          6.7903         estimate D2E/DX2                !
 ! D80   D(22,17,18,40)       -174.0821         estimate D2E/DX2                !
 ! D81   D(16,17,22,21)        176.4398         estimate D2E/DX2                !
 ! D82   D(18,17,22,21)         -3.5217         estimate D2E/DX2                !
 ! D83   D(17,18,19,20)         -3.9015         estimate D2E/DX2                !
 ! D84   D(17,18,19,41)        176.0071         estimate D2E/DX2                !
 ! D85   D(40,18,19,20)        176.9213         estimate D2E/DX2                !
 ! D86   D(40,18,19,41)         -3.1702         estimate D2E/DX2                !
 ! D87   D(18,19,20,21)         -1.6027         estimate D2E/DX2                !
 ! D88   D(18,19,20,42)        179.3348         estimate D2E/DX2                !
 ! D89   D(41,19,20,21)        178.4909         estimate D2E/DX2                !
 ! D90   D(41,19,20,42)         -0.5716         estimate D2E/DX2                !
 ! D91   D(19,20,21,22)          5.0902         estimate D2E/DX2                !
 ! D92   D(19,20,21,43)       -174.8668         estimate D2E/DX2                !
 ! D93   D(42,20,21,22)       -175.8467         estimate D2E/DX2                !
 ! D94   D(42,20,21,43)          4.1963         estimate D2E/DX2                !
 ! D95   D(20,21,22,17)         -2.4528         estimate D2E/DX2                !
 ! D96   D(43,21,22,17)        177.5072         estimate D2E/DX2                !
 ! D97   D(16,23,24,25)        178.8671         estimate D2E/DX2                !
 ! D98   D(28,23,24,25)         -1.579          estimate D2E/DX2                !
 ! D99   D(16,23,28,14)          0.7534         estimate D2E/DX2                !
 ! D100  D(16,23,28,27)       -179.5681         estimate D2E/DX2                !
 ! D101  D(24,23,28,14)       -178.8527         estimate D2E/DX2                !
 ! D102  D(24,23,28,27)          0.8258         estimate D2E/DX2                !
 ! D103  D(23,24,25,26)          1.1192         estimate D2E/DX2                !
 ! D104  D(23,24,25,44)       -178.7401         estimate D2E/DX2                !
 ! D105  D(24,25,26,27)          0.2373         estimate D2E/DX2                !
 ! D106  D(24,25,26,45)       -179.7866         estimate D2E/DX2                !
 ! D107  D(44,25,26,27)       -179.9108         estimate D2E/DX2                !
 ! D108  D(44,25,26,45)          0.0653         estimate D2E/DX2                !
 ! D109  D(25,26,27,28)         -1.0664         estimate D2E/DX2                !
 ! D110  D(45,26,27,28)        178.9563         estimate D2E/DX2                !
 ! D111  D(26,27,28,14)       -179.8023         estimate D2E/DX2                !
 ! D112  D(26,27,28,23)          0.5609         estimate D2E/DX2                !
 ! D113  D(13,29,30,31)       -178.7923         estimate D2E/DX2                !
 ! D114  D(33,29,30,31)          1.5443         estimate D2E/DX2                !
 ! D115  D(13,29,33,10)         -2.039          estimate D2E/DX2                !
 ! D116  D(13,29,33,32)        177.8107         estimate D2E/DX2                !
 ! D117  D(30,29,33,10)        177.6687         estimate D2E/DX2                !
 ! D118  D(30,29,33,32)         -2.4816         estimate D2E/DX2                !
 ! D119  D(29,30,31,32)         -0.3145         estimate D2E/DX2                !
 ! D120  D(30,31,32,33)         -1.1008         estimate D2E/DX2                !
 ! D121  D(31,32,33,10)       -178.0264         estimate D2E/DX2                !
 ! D122  D(31,32,33,29)          2.1379         estimate D2E/DX2                !
 --------------------------------------------------------------------------------
 Trust Radius=3.00D-01 FncErr=1.00D-07 GrdErr=1.00D-06
 Number of steps in this run=    264 maximum allowed number of steps=    270.
 GradGradGradGradGradGradGradGradGradGradGradGradGradGradGradGradGradGrad

                          Input orientation:                          
 ---------------------------------------------------------------------
 Center     Atomic      Atomic             Coordinates (Angstroms)
 Number     Number       Type             X           Y           Z
 ---------------------------------------------------------------------
      1          6           0       -1.507450    1.358550    0.170160
      2         16           0       -2.702530    0.122300    0.149140
      3          6           0       -1.510230   -1.108080    0.228650
      4          6           0       -0.242910   -0.586110    0.063570
      5          6           0        0.937150   -1.331700   -0.047720
      6          6           0        2.105930   -0.543560   -0.159090
      7          6           0        2.095390    0.868560   -0.132420
      8          6           0        0.912550    1.628520   -0.018370
      9          6           0       -0.241970    0.843000    0.065800
     10          6           0        0.969210   -2.752870   -0.056790
     11          6           0        0.101010   -3.536300   -0.812390
     12          7           0        0.045620   -4.878260   -0.823860
     13          6           0        0.926940   -5.598070   -0.093510
     14          6           0        0.783070   -7.027130   -0.161220
     15         16           0        1.777510   -7.908730    0.864010
     16          6           0        1.294090   -9.411900    0.310760
     17          6           0        2.014670  -10.523360    0.899030
     18          6           0        3.246690  -10.361060    1.565590
     19          6           0        3.944630  -11.476820    1.976110
     20          6           0        3.359080  -12.714580    1.785560
     21          6           0        2.091040  -12.776570    1.225290
     22          7           0        1.420000  -11.714050    0.759300
     23          6           0        0.261330   -9.270280   -0.601460
     24          7           0       -0.398540  -10.299830   -1.195560
     25          6           0       -1.379240   -9.852910   -2.025270
     26          6           0       -1.676140   -8.510630   -2.273320
     27          7           0       -1.025330   -7.457060   -1.725220
     28          6           0       -0.038960   -7.867280   -0.865700
     29          6           0        1.922650   -4.923450    0.686210
     30          7           0        2.927150   -5.421100    1.440140
     31         16           0        3.737060   -4.176340    2.134820
     32          7           0        2.866600   -2.928540    1.513260
     33          6           0        1.917540   -3.455240    0.712890
     34          1           0       -1.815430    2.389020    0.232070
     35          1           0       -1.835820   -2.135000    0.345610
     36          1           0        3.073280   -1.043650   -0.258770
     37          1           0        3.058530    1.371540   -0.204790
     38          1           0        0.928910    2.706800   -0.006450
     39          1           0       -0.639620   -3.076120   -1.465640
     40          1           0        3.692060   -9.388780    1.765860
     41          1           0        4.923520  -11.365300    2.431560
     42          1           0        3.872850  -13.616980    2.081520
     43          1           0        1.554780  -13.711860    1.129790
     44          1           0       -1.951600  -10.636850   -2.509050
     45          1           0       -2.483990   -8.247360   -2.952470
 ---------------------------------------------------------------------
                    Distance matrix (angstroms):
                    1          2          3          4          5
     1  C    0.000000
     2  S    1.719585   0.000000
     3  C    2.467325   1.715149   0.000000
     4  C    2.322095   2.561034   1.380509   0.000000
     5  C    3.641564   3.924301   2.473066   1.400297   0.000000
     6  C    4.096699   4.864120   3.680440   2.359754   1.414077
     7  C    3.648575   4.863766   4.127708   2.760819   2.487939
     8  C    2.442300   3.919893   3.663313   2.499277   2.960468
     9  C    1.370446   2.565289   2.332749   1.429112   2.476395
    10  C    4.805115   4.668049   2.989052   2.485673   1.421561
    11  C    5.245198   4.708474   3.094529   3.096645   2.478732
    12  N    6.503684   5.788321   4.212209   4.392418   3.738356
    13  C    7.374981   6.778980   5.118945   5.149074   4.266628
    14  C    8.699191   7.959905   6.359747   6.526094   5.698644
    15  S    9.856717   9.223841   7.580353   7.638296   6.692890
    16  C   11.129734  10.339249   8.764952   8.962033   8.096020
    17  C   12.414361  11.668093  10.075804  10.224656   9.302903
    18  C   12.723927  12.136737  10.489678  10.487279   9.458651
    19  C   14.061769  13.493040  11.845669  11.823742  10.773313
    20  C   14.978171  14.290083  12.682468  12.768687  11.781198
    21  C   14.624091  13.802799  12.252187  12.466123  11.573118
    22  N   13.409322  12.548575  11.016099  11.272992  10.424856
    23  C   10.802593   9.877673   8.393391   8.724181   7.986514
    24  N   11.790365  10.758131   9.367630   9.796223   9.139418
    25  C   11.425112  10.294852   9.031576   9.567031   9.049165
    26  C   10.168567   9.024925   7.815697   8.385298   7.957362
    27  N    9.029944   7.985795   6.660502   7.142962   6.647208
    28  C    9.399224   8.482800   7.003501   7.343063   6.658505
    29  C    7.176031   6.865881   5.152773   4.887724   3.796121
    30  N    8.200133   8.005577   6.305568   5.943177   4.785083
    31  S    7.873994   7.993094   6.370381   5.746302   4.549171
    32  N    6.270197   6.494895   4.911307   4.154231   2.951158
    33  C    5.932764   5.870405   4.182494   3.649804   2.459495
    34  H    1.077290   2.435538   3.510394   3.369363   4.636673
    35  H    3.513332   2.425941   1.083630   2.239636   2.913651
    36  H    5.190148   5.906421   4.609804   3.363088   2.165772
    37  H    4.581368   5.905563   5.216316   3.847586   3.439830
    38  H    2.790129   4.459956   4.534091   3.495901   4.038719
    39  H    4.805754   4.134368   2.738934   2.948900   2.745852
    40  H   12.045176  11.574334   9.899335   9.791260   8.706040
    41  H   14.434946  13.976088  12.306767  12.185660  11.077504
    42  H   16.027084  15.353746  13.743481  13.813587  12.809376
    43  H   15.408290  14.507596  13.002369  13.291118  12.451360
    44  H   12.298986  11.108068   9.924075  10.514531  10.049320
    45  H   10.147805   8.928547   7.876360   8.533094   8.244278
                    6          7          8          9         10
     6  C    0.000000
     7  C    1.412411   0.000000
     8  C    2.482315   1.410552   0.000000
     9  C    2.736011   2.345889   1.398943   0.000000
    10  C    2.486694   3.793251   4.381925   3.796349   0.000000
    11  C    3.661010   4.882899   5.288141   4.479634   1.392288
    12  N    4.845247   6.140487   6.613514   5.797156   2.441044
    13  C    5.190606   6.571460   7.226995   6.548214   2.845751
    14  C    6.617148   8.004057   8.657797   7.939848   4.279586
    15  S    7.443139   8.839386   9.616958   9.017107   5.299445
    16  C    8.917808  10.321160  11.051913  10.372196   6.677074
    17  C   10.036152  11.438804  12.236195  11.618125   7.898550
    18  C   10.032904  11.415476  12.316946  11.830092   8.105775
    19  C   11.290530  12.659937  13.598581  13.151231   9.438915
    20  C   12.388938  13.775966  14.661657  14.132697  10.408717
    21  C   12.311103  13.712511  14.506624  13.866508  10.167438
    22  N   11.229149  12.632236  13.374844  12.685527   9.009548
    23  C    8.930503  10.314061  10.933797  10.147757   6.578327
    24  N   10.125781  11.492732  12.057789  11.215088   7.753976
    25  C   10.114002  11.428292  11.878686  10.957575   7.733091
    26  C    9.069081  10.333300  10.704601   9.747755   6.712874
    27  N    7.749454   9.032821   9.445448   8.527157   5.375058
    28  C    7.663989   9.022641   9.580895   8.762299   5.275219
    29  C    4.464478   5.852126   6.666712   6.190512   2.484455
    30  N    5.198301   6.536405   7.475494   7.153396   3.632324
    31  S    4.595617   5.769443   6.805181   6.731070   3.806628
    32  N    3.010565   4.209631   5.189508   5.097339   2.469009
    33  C    3.045278   4.409243   5.233485   4.853563   1.408922
    34  H    4.912239   4.211789   2.843054   2.212148   5.854630
    35  H    4.280747   4.970342   4.674409   3.389268   2.900325
    36  H    1.093523   2.151460   3.444857   3.828273   2.718334
    37  H    2.139426   1.088974   2.169337   3.353487   4.625789
    38  H    3.460277   2.180750   1.078470   2.202256   5.460051
    39  H    3.957143   4.981792   5.161149   4.226457   2.162795
    40  H    9.190166  10.553002  11.501741  11.093066   7.400761
    41  H   11.478691  12.815602  13.817720  13.465574   9.798082
    42  H   13.381205  14.761157  15.671572  15.168582  11.446938
    43  H   13.242700  14.644934  15.396688  14.703888  11.038584
    44  H   11.129257  12.425818  12.839242  11.888635   8.757959
    45  H    9.392490  10.584111  10.847969   9.837238   7.106263
                   11         12         13         14         15
    11  C    0.000000
    12  N    1.343152   0.000000
    13  C    2.334490   1.352133   0.000000
    14  C    3.615954   2.366552   1.437879   0.000000
    15  S    4.973843   3.877125   2.641867   1.678459   0.000000
    16  C    6.099802   4.837348   3.852731   2.484157   1.673111
    17  C    7.443793   6.221950   5.140698   3.855463   2.625597
    18  C    7.882096   6.783614   5.551570   4.490700   2.943574
    19  C    9.252081   8.159847   6.924556   5.862029   4.320236
    20  C   10.079940   8.899214   7.751834   6.540097   5.142646
    21  C    9.669279   8.412257   7.390888   6.057166   4.891287
    22  N    8.431224   7.150059   6.194805   4.818740   3.823511
    23  C    5.740098   4.402935   3.766454   2.344727   2.510024
    24  N    6.792769   5.452418   5.007790   3.629962   3.833325
    25  C    6.600135   5.312321   5.210933   4.016877   4.700303
    26  C    5.480560   4.273114   4.473321   3.565032   4.704553
    27  N    4.180222   2.934211   3.151139   2.429248   3.842399
    28  C    4.333569   2.990509   2.584290   1.370357   2.508621
    29  C    2.736487   2.409480   1.433358   2.538159   2.994090
    30  N    4.075958   3.704536   2.526706   3.121020   2.800339
    31  S    4.724040   4.782594   3.857920   4.703707   4.402900
    32  N    3.664220   4.149875   3.670202   4.893201   5.139060
    33  C    2.373359   2.809034   2.494652   3.848310   4.458253
    34  H    6.314512   7.575741   8.451047   9.776030  10.924844
    35  H    2.656297   3.526039   4.451800   5.572109   6.830875
    36  H    3.918442   4.918362   5.037542   6.407543   7.075944
    37  H    5.762204   6.965693   7.289137   8.701567   9.429038
    38  H    6.349115   7.679941   8.305327   9.736253  10.684910
    39  H    1.089511   2.032030   3.270640   4.397276   5.884208
    40  H    7.334476   6.352005   5.047041   4.213461   2.582515
    41  H    9.750541   8.744905   7.457183   6.533418   4.929753
    42  H   11.145474   9.972670   8.815444   7.615953   6.201363
    43  H   10.460762   9.172066   8.229474   6.851851   5.813481
    44  H    7.583513   6.323774   6.285708   5.101059   5.720702
    45  H    5.784138   4.720248   5.179463   4.466959   5.730669
                   16         17         18         19         20
    16  C    0.000000
    17  C    1.449359   0.000000
    18  C    2.507618   1.410148   0.000000
    19  C    3.750020   2.407059   1.378611   0.000000
    20  C    4.164963   2.719342   2.366448   1.382472   0.000000
    21  C    3.576660   2.277989   2.699263   2.385137   1.387685
    22  N    2.348816   1.338245   2.411946   2.812590   2.411286
    23  C    1.385206   2.626001   3.846853   5.007932   5.211250
    24  N    2.433601   3.203257   4.573336   5.505263   5.370084
    25  C    3.577460   4.529863   5.878071   6.855051   6.720361
    26  C    4.038815   5.266590   6.511189   7.645194   7.713698
    27  N    3.653262   5.052770   6.124769   7.386394   7.693513
    28  C    2.355192   3.792945   4.788069   6.080596   6.486307
    29  C    4.547772   5.604708   5.665156   6.978460   7.998350
    30  N    4.457451   5.211380   4.951873   6.163950   7.314419
    31  S    6.058580   6.691671   6.230188   7.305155   8.553736
    32  N    6.778846   7.667096   7.442416   8.628411   9.802207
    33  C    6.002682   7.071238   7.084073   8.369622   9.432075
    34  H   12.203976  13.484957  13.782883  15.115604  16.040811
    35  H    7.921542   9.246466   9.746195  11.105932  11.873835
    36  H    8.574234   9.608645   9.495920  10.705371  11.852070
    37  H   10.938995  11.991527  11.866910  13.062230  14.229216
    38  H   12.128350  13.305484  13.364594  14.635580  15.714197
    39  H    6.858348   8.252170   8.795573  10.170189  10.929767
    40  H    2.805015   2.202794   1.088022   2.113743   3.342486
    41  H    4.635335   3.393953   2.137793   1.085402   2.164566
    42  H    5.241020   3.797578   3.355484   2.143956   1.079758
    43  H    4.385023   3.229749   3.778934   3.379799   2.163354
    44  H    4.470608   5.230601   6.610671   7.455718   7.138905
    45  H    5.126277   6.344460   7.597453   8.720520   8.749083
                   21         22         23         24         25
    21  C    0.000000
    22  N    1.340295   0.000000
    23  C    4.356481   3.027573   0.000000
    24  N    4.265298   3.021355   1.359543   0.000000
    25  C    5.581825   4.365022   2.249036   1.360121   0.000000
    26  C    6.680581   5.389320   2.669452   2.448482   1.396923
    27  N    6.834798   5.502222   2.491204   2.958842   2.440365
    28  C    5.745456   4.423441   1.458906   2.481009   2.661518
    29  C    7.873402   6.809570   4.828355   6.150971   6.523356
    30  N    7.405956   6.506632   5.107927   6.465998   7.084843
    31  S    8.803442   8.004867   6.746566   8.105045   8.700938
    32  N    9.882718   8.935675   7.174757   8.504984   8.859755
    33  C    9.337015   8.273913   6.187507   7.473608   7.700419
    34  H   15.692104  14.479039  11.872109  12.847281  12.455950
    35  H   11.377042  10.125695   7.497146   8.432403   8.086759
    36  H   11.867124  10.845609   8.700686   9.930155  10.027388
    37  H   14.253076  13.222969  11.010450  12.212855  12.206401
    38  H   15.575701  14.449514  12.010418  13.128158  12.928631
    39  H   10.430548   9.154574   6.318713   7.232776   6.839964
    40  H    3.785842   3.403278   4.169911   5.131572   6.348714
    41  H    3.386697   3.897786   5.943428   6.528059   7.866094
    42  H    2.148084   3.374297   6.255818   6.323568   7.656265
    43  H    1.082341   2.036338   4.939420   4.567785   5.783975
    44  H    5.904798   4.817692   3.225441   2.061755   1.084528
    45  H    7.674524   6.405959   3.756381   3.412985   2.158231
                   26         27         28         29         30
    26  C    0.000000
    27  N    1.354244   0.000000
    28  C    2.252921   1.371124   0.000000
    29  C    5.880303   4.574359   3.862962   0.000000
    30  N    6.672725   5.457723   4.483135   1.350958   0.000000
    31  S    8.217086   6.952941   6.073260   2.439001   1.639501
    32  N    8.132306   6.792817   6.204263   2.356845   2.494367
    33  C    6.883964   5.533482   5.077985   1.468461   2.326545
    34  H   11.184755  10.069783  10.466739   8.225066   9.216804
    35  H    6.894414   5.767977   6.128214   4.692287   5.889171
    36  H    9.075858   7.751187   7.524382   4.155693   4.697842
    37  H   11.151377   9.845496   9.766629   6.458406   6.990208
    38  H   11.736938  10.491772  10.652993   7.725802   8.494018
    39  H    5.591120   4.405541   4.865792   3.822082   5.163752
    40  H    6.775226   6.178426   4.812544   4.922969   4.053846
    41  H    8.593052   8.242692   6.909000   7.317711   6.348379
    42  H    8.708084   8.742314   7.552974   9.018184   8.275154
    43  H    7.005198   7.343744   6.378174   8.807283   8.409305
    44  H    2.156909   3.403444   3.745572   7.606736   8.161026
    45  H    1.087740   2.063590   3.236857   6.611115   7.520851
                   31         32         33         34         35
    31  S    0.000000
    32  N    1.643485   0.000000
    33  C    2.419199   1.348599   0.000000
    34  H    8.806506   7.199951   6.951376   0.000000
    35  H    6.198817   4.909773   3.995703   4.525490   0.000000
    36  H    3.997952   2.595307   2.845281   5.993633   5.065134
    37  H    6.059138   4.634568   5.043987   4.998159   6.045943
    38  H    7.736172   6.149896   6.282163   2.772955   5.586654
    39  H    5.773138   4.603173   3.380650   5.842303   2.365846
    40  H    5.225676   6.517660   6.282083  13.092041   9.229945
    41  H    7.292248   8.732303   8.634743  15.473607  11.629200
    42  H    9.441767  10.750731  10.438264  17.087101  12.939790
    43  H    9.833543  10.869587  10.271497  16.474300  12.088623
    44  H    9.780827   9.940426   8.770785  13.311858   8.969055
    45  H    9.008617   8.767064   7.468115  11.122987   6.975557
                   36         37         38         39         40
    36  H    0.000000
    37  H    2.415838   0.000000
    38  H    4.327570   2.521416   0.000000
    39  H    4.401488   5.920113   6.166984   0.000000
    40  H    8.609484  10.957614  12.533122   8.309977   0.000000
    41  H   10.825790  13.139849  14.829862  10.716679   2.422041
    42  H   12.814246  15.183743  16.718020  12.002269   4.243819
    43  H   12.834231  15.216811  16.469825  11.165600   4.864316
    44  H   11.060862  13.214100  13.878521   7.744329   7.189119
    45  H    9.488557  11.436455  11.845697   5.688065   7.855512
                   41         42         43         44         45
    41  H    0.000000
    42  H    2.509282   0.000000
    43  H    4.306897   2.507636   0.000000
    44  H    8.497502   7.992417   5.915365   0.000000
    45  H    9.673703   9.725394   7.926996   2.487915   0.000000
 Stoichiometry    C24H12N6S3
 Framework group  C1[X(C24H12N6S3)]
 Deg. of freedom   129
 Full point group                 C1      NOp   1
 Largest Abelian subgroup         C1      NOp   1
 Largest concise Abelian subgroup C1      NOp   1
                         Standard orientation:                         
 ---------------------------------------------------------------------
 Center     Atomic      Atomic             Coordinates (Angstroms)
 Number     Number       Type             X           Y           Z
 ---------------------------------------------------------------------
      1          6           0        7.078870    1.043984    0.783014
      2         16           0        6.059513    2.279479    1.408664
      3          6           0        4.646400    1.419432    0.955711
      4          6           0        4.956918    0.329432    0.167496
      5          6           0        4.030764   -0.505709   -0.469378
      6          6           0        4.617886   -1.580913   -1.175664
      7          6           0        6.010191   -1.814895   -1.216195
      8          6           0        6.950864   -0.981063   -0.576260
      9          6           0        6.364985    0.094807    0.099235
     10          6           0        2.625309   -0.297302   -0.423581
     11          6           0        2.025701    0.943858   -0.619687
     12          7           0        0.712890    1.215462   -0.537139
     13          6           0       -0.170083    0.220218   -0.296077
     14          6           0       -1.551938    0.609333   -0.215069
     15         16           0       -2.624219   -0.600777    0.235566
     16          6           0       -4.004506    0.328913    0.062976
     17          6           0       -5.241423   -0.395312    0.277860
     18          6           0       -5.310855   -1.803454    0.249024
     19          6           0       -6.541553   -2.420600    0.320305
     20          6           0       -7.657043   -1.624117    0.500650
     21          6           0       -7.486799   -0.253462    0.634789
     22          7           0       -6.310933    0.376451    0.504640
     23          6           0       -3.659343    1.637058   -0.234369
     24          7           0       -4.542113    2.660782   -0.379493
     25          6           0       -3.907836    3.834231   -0.645273
     26          6           0       -2.526523    3.991394   -0.781905
     27          7           0       -1.616846    2.994030   -0.673607
     28          6           0       -2.217021    1.795159   -0.386415
     29          6           0        0.300252   -1.124270   -0.135917
     30          7           0       -0.385104   -2.272766    0.054690
     31         16           0        0.681079   -3.509302    0.203671
     32          7           0        2.078452   -2.662580    0.026324
     33          6           0        1.746930   -1.372043   -0.181829
     34          1           0        8.143057    1.109741    0.937070
     35          1           0        3.683990    1.808381    1.266737
     36          1           0        3.968480   -2.279475   -1.710524
     37          1           0        6.348922   -2.686563   -1.774157
     38          1           0        8.010286   -1.176509   -0.626487
     39          1           0        2.626594    1.823117   -0.849610
     40          1           0       -4.434110   -2.441361    0.158563
     41          1           0       -6.611103   -3.500298    0.233632
     42          1           0       -8.642636   -2.062162    0.551646
     43          1           0       -8.315978    0.405022    0.859116
     44          1           0       -4.567239    4.689000   -0.749001
     45          1           0       -2.107555    4.972985   -0.991956
 ---------------------------------------------------------------------
 Rotational constants (GHZ):      0.2487122      0.0530399      0.0451966
 Standard basis: 6-31++G(d,p) (6D, 7F)
 There are   711 symmetry adapted basis functions of A   symmetry.
 Integral buffers will be    131072 words long.
 Raffenetti 2 integral format.
 Two-electron integral symmetry is turned on.
   711 basis functions,  1224 primitive gaussians,   711 cartesian basis functions
   123 alpha electrons      123 beta electrons
       nuclear repulsion energy      3483.2060319783 Hartrees.
 NAtoms=   45 NActive=   45 NUniq=   45 SFac= 1.00D+00 NAtFMM=   60 NAOKFM=F Big=F
 One-electron integrals computed using PRISM.
 NBasis=   711 RedAO= T  NBF=   711
 NBsUse=   700 1.00D-06 NBFU=   700
 Harris functional with IExCor=  402 diagonalized for initial guess.
 ExpMin= 3.60D-02 ExpMax= 2.19D+04 ExpMxC= 3.30D+03 IAcc=3 IRadAn=         5 AccDes= 0.00D+00
 HarFok:  IExCor=  402 AccDes= 0.00D+00 IRadAn=         5 IDoV= 1
 ScaDFX=  1.000000  1.000000  1.000000  1.000000
 FoFCou: FMM=F IPFlag=           0 FMFlag=      100000 FMFlg1=           0
         NFxFlg=           0 DoJE=T BraDBF=F KetDBF=T FulRan=T
         Omega=  0.000000  0.000000  1.000000  0.000000  0.000000 ICntrl=     500 IOpCl=  0
         NMat0=    1 NMatS0=    1 NMatT0=    0 NMatD0=    1 NMtDS0=    0 NMtDT0=    0
         I1Cent=           4 NGrid=           0.
 Petite list used in FoFCou.
 Initial guess orbital symmetries:
       Occupied  (A) (A) (A) (A) (A) (A) (A) (A) (A) (A) (A) (A)
                 (A) (A) (A) (A) (A) (A) (A) (A) (A) (A) (A) (A)
                 (A) (A) (A) (A) (A) (A) (A) (A) (A) (A) (A) (A)
                 (A) (A) (A) (A) (A) (A) (A) (A) (A) (A) (A) (A)
                 (A) (A) (A) (A) (A) (A) (A) (A) (A) (A) (A) (A)
                 (A) (A) (A) (A) (A) (A) (A) (A) (A) (A) (A) (A)
                 (A) (A) (A) (A) (A) (A) (A) (A) (A) (A) (A) (A)
                 (A) (A) (A) (A) (A) (A) (A) (A) (A) (A) (A) (A)
                 (A) (A) (A) (A) (A) (A) (A) (A) (A) (A) (A) (A)
                 (A) (A) (A) (A) (A) (A) (A) (A) (A) (A) (A) (A)
                 (A) (A) (A)
       Virtual   (A) (A) (A) (A) (A) (A) (A) (A) (A) (A) (A) (A)
                 (A) (A) (A) (A) (A) (A) (A) (A) (A) (A) (A) (A)
                 (A) (A) (A) (A) (A) (A) (A) (A) (A) (A) (A) (A)
                 (A) (A) (A) (A) (A) (A) (A) (A) (A) (A) (A) (A)
                 (A) (A) (A) (A) (A) (A) (A) (A) (A) (A) (A) (A)
                 (A) (A) (A) (A) (A) (A) (A) (A) (A) (A) (A) (A)
                 (A) (A) (A) (A) (A) (A) (A) (A) (A) (A) (A) (A)
                 (A) (A) (A) (A) (A) (A) (A) (A) (A) (A) (A) (A)
                 (A) (A) (A) (A) (A) (A) (A) (A) (A) (A) (A) (A)
                 (A) (A) (A) (A) (A) (A) (A) (A) (A) (A) (A) (A)
                 (A) (A) (A) (A) (A) (A) (A) (A) (A) (A) (A) (A)
                 (A) (A) (A) (A) (A) (A) (A) (A) (A) (A) (A) (A)
                 (A) (A) (A) (A) (A) (A) (A) (A) (A) (A) (A) (A)
                 (A) (A) (A) (A) (A) (A) (A) (A) (A) (A) (A) (A)
                 (A) (A) (A) (A) (A) (A) (A) (A) (A) (A) (A) (A)
                 (A) (A) (A) (A) (A) (A) (A) (A) (A) (A) (A) (A)
                 (A) (A) (A) (A) (A) (A) (A) (A) (A) (A) (A) (A)
                 (A) (A) (A) (A) (A) (A) (A) (A) (A) (A) (A) (A)
                 (A) (A) (A) (A) (A) (A) (A) (A) (A) (A) (A) (A)
                 (A) (A) (A) (A) (A) (A) (A) (A) (A) (A) (A) (A)
                 (A) (A) (A) (A) (A) (A) (A) (A) (A) (A) (A) (A)
                 (A) (A) (A) (A) (A) (A) (A) (A) (A) (A) (A) (A)
                 (A) (A) (A) (A) (A) (A) (A) (A) (A) (A) (A) (A)
                 (A) (A) (A) (A) (A) (A) (A) (A) (A) (A) (A) (A)
                 (A) (A) (A) (A) (A) (A) (A) (A) (A) (A) (A) (A)
                 (A) (A) (A) (A) (A) (A) (A) (A) (A) (A) (A) (A)
                 (A) (A) (A) (A) (A) (A) (A) (A) (A) (A) (A) (A)
                 (A) (A) (A) (A) (A) (A) (A) (A) (A) (A) (A) (A)
                 (A) (A) (A) (A) (A) (A) (A) (A) (A) (A) (A) (A)
                 (A) (A) (A) (A) (A) (A) (A) (A) (A) (A) (A) (A)
                 (A) (A) (A) (A) (A) (A) (A) (A) (A) (A) (A) (A)
                 (A) (A) (A) (A) (A) (A) (A) (A) (A) (A) (A) (A)
                 (A) (A) (A) (A) (A) (A) (A) (A) (A) (A) (A) (A)
                 (A) (A) (A) (A) (A) (A) (A) (A) (A) (A) (A) (A)
                 (A) (A) (A) (A) (A) (A) (A) (A) (A) (A) (A) (A)
                 (A) (A) (A) (A) (A) (A) (A) (A) (A) (A) (A) (A)
                 (A) (A) (A) (A) (A) (A) (A) (A) (A) (A) (A) (A)
                 (A) (A) (A) (A) (A) (A) (A) (A) (A) (A) (A) (A)
                 (A) (A) (A) (A) (A) (A) (A) (A) (A) (A) (A) (A)
                 (A) (A) (A) (A) (A) (A) (A) (A) (A) (A) (A) (A)
                 (A) (A) (A) (A) (A) (A) (A) (A) (A) (A) (A) (A)
                 (A) (A) (A) (A) (A) (A) (A) (A) (A) (A) (A) (A)
                 (A) (A) (A) (A) (A) (A) (A) (A) (A) (A) (A) (A)
                 (A) (A) (A) (A) (A) (A) (A) (A) (A) (A) (A) (A)
                 (A) (A) (A) (A) (A) (A) (A) (A) (A) (A) (A) (A)
                 (A) (A) (A) (A) (A) (A) (A) (A) (A) (A) (A) (A)
                 (A) (A) (A) (A) (A) (A) (A) (A) (A) (A) (A) (A)
                 (A) (A) (A) (A) (A) (A) (A) (A) (A) (A) (A) (A)
                 (A)
 The electronic state of the initial guess is 1-A.
 Requested convergence on RMS density matrix=1.00D-08 within 128 cycles.
 Requested convergence on MAX density matrix=1.00D-06.
 Requested convergence on             energy=1.00D-06.
 No special actions if energy rises.
 EnCoef did     7 forward-backward iterations
 EnCoef did   100 forward-backward iterations
 EnCoef did     6 forward-backward iterations
 Restarting incremental Fock formation.
 SCF Done:  E(RB3LYP) =  -2444.81931376     A.U. after   23 cycles
             Convg  =    0.9228D-08             -V/T =  2.0062

 **********************************************************************

            Population analysis using the SCF density.

 **********************************************************************

 Orbital symmetries:
       Occupied  (A) (A) (A) (A) (A) (A) (A) (A) (A) (A) (A) (A)
                 (A) (A) (A) (A) (A) (A) (A) (A) (A) (A) (A) (A)
                 (A) (A) (A) (A) (A) (A) (A) (A) (A) (A) (A) (A)
                 (A) (A) (A) (A) (A) (A) (A) (A) (A) (A) (A) (A)
                 (A) (A) (A) (A) (A) (A) (A) (A) (A) (A) (A) (A)
                 (A) (A) (A) (A) (A) (A) (A) (A) (A) (A) (A) (A)
                 (A) (A) (A) (A) (A) (A) (A) (A) (A) (A) (A) (A)
                 (A) (A) (A) (A) (A) (A) (A) (A) (A) (A) (A) (A)
                 (A) (A) (A) (A) (A) (A) (A) (A) (A) (A) (A) (A)
                 (A) (A) (A) (A) (A) (A) (A) (A) (A) (A) (A) (A)
                 (A) (A) (A)
       Virtual   (A) (A) (A) (A) (A) (A) (A) (A) (A) (A) (A) (A)
                 (A) (A) (A) (A) (A) (A) (A) (A) (A) (A) (A) (A)
                 (A) (A) (A) (A) (A) (A) (A) (A) (A) (A) (A) (A)
                 (A) (A) (A) (A) (A) (A) (A) (A) (A) (A) (A) (A)
                 (A) (A) (A) (A) (A) (A) (A) (A) (A) (A) (A) (A)
                 (A) (A) (A) (A) (A) (A) (A) (A) (A) (A) (A) (A)
                 (A) (A) (A) (A) (A) (A) (A) (A) (A) (A) (A) (A)
                 (A) (A) (A) (A) (A) (A) (A) (A) (A) (A) (A) (A)
                 (A) (A) (A) (A) (A) (A) (A) (A) (A) (A) (A) (A)
                 (A) (A) (A) (A) (A) (A) (A) (A) (A) (A) (A) (A)
                 (A) (A) (A) (A) (A) (A) (A) (A) (A) (A) (A) (A)
                 (A) (A) (A) (A) (A) (A) (A) (A) (A) (A) (A) (A)
                 (A) (A) (A) (A) (A) (A) (A) (A) (A) (A) (A) (A)
                 (A) (A) (A) (A) (A) (A) (A) (A) (A) (A) (A) (A)
                 (A) (A) (A) (A) (A) (A) (A) (A) (A) (A) (A) (A)
                 (A) (A) (A) (A) (A) (A) (A) (A) (A) (A) (A) (A)
                 (A) (A) (A) (A) (A) (A) (A) (A) (A) (A) (A) (A)
                 (A) (A) (A) (A) (A) (A) (A) (A) (A) (A) (A) (A)
                 (A) (A) (A) (A) (A) (A) (A) (A) (A) (A) (A) (A)
                 (A) (A) (A) (A) (A) (A) (A) (A) (A) (A) (A) (A)
                 (A) (A) (A) (A) (A) (A) (A) (A) (A) (A) (A) (A)
                 (A) (A) (A) (A) (A) (A) (A) (A) (A) (A) (A) (A)
                 (A) (A) (A) (A) (A) (A) (A) (A) (A) (A) (A) (A)
                 (A) (A) (A) (A) (A) (A) (A) (A) (A) (A) (A) (A)
                 (A) (A) (A) (A) (A) (A) (A) (A) (A) (A) (A) (A)
                 (A) (A) (A) (A) (A) (A) (A) (A) (A) (A) (A) (A)
                 (A) (A) (A) (A) (A) (A) (A) (A) (A) (A) (A) (A)
                 (A) (A) (A) (A) (A) (A) (A) (A) (A) (A) (A) (A)
                 (A) (A) (A) (A) (A) (A) (A) (A) (A) (A) (A) (A)
                 (A) (A) (A) (A) (A) (A) (A) (A) (A) (A) (A) (A)
                 (A) (A) (A) (A) (A) (A) (A) (A) (A) (A) (A) (A)
                 (A) (A) (A) (A) (A) (A) (A) (A) (A) (A) (A) (A)
                 (A) (A) (A) (A) (A) (A) (A) (A) (A) (A) (A) (A)
                 (A) (A) (A) (A) (A) (A) (A) (A) (A) (A) (A) (A)
                 (A) (A) (A) (A) (A) (A) (A) (A) (A) (A) (A) (A)
                 (A) (A) (A) (A) (A) (A) (A) (A) (A) (A) (A) (A)
                 (A) (A) (A) (A) (A) (A) (A) (A) (A) (A) (A) (A)
                 (A) (A) (A) (A) (A) (A) (A) (A) (A) (A) (A) (A)
                 (A) (A) (A) (A) (A) (A) (A) (A) (A) (A) (A) (A)
                 (A) (A) (A) (A) (A) (A) (A) (A) (A) (A) (A) (A)
                 (A) (A) (A) (A) (A) (A) (A) (A) (A) (A) (A) (A)
                 (A) (A) (A) (A) (A) (A) (A) (A) (A) (A) (A) (A)
                 (A) (A) (A) (A) (A) (A) (A) (A) (A) (A) (A) (A)
                 (A) (A) (A) (A) (A) (A) (A) (A) (A) (A) (A) (A)
                 (A) (A) (A) (A) (A) (A) (A) (A) (A) (A) (A) (A)
                 (A) (A) (A) (A) (A) (A) (A) (A) (A) (A) (A) (A)
                 (A) (A) (A) (A) (A) (A) (A) (A) (A) (A) (A) (A)
                 (A) (A) (A) (A) (A) (A) (A) (A) (A) (A) (A) (A)
                 (A)
 The electronic state is 1-A.
 Alpha  occ. eigenvalues --  -88.99967 -88.93362 -88.92893 -14.39456 -14.38894
 Alpha  occ. eigenvalues --  -14.36221 -14.36167 -14.34869 -14.34029 -10.26762
 Alpha  occ. eigenvalues --  -10.26697 -10.26431 -10.25179 -10.24533 -10.24497
 Alpha  occ. eigenvalues --  -10.24235 -10.24120 -10.23771 -10.23588 -10.23515
 Alpha  occ. eigenvalues --  -10.23163 -10.22237 -10.21990 -10.21937 -10.21860
 Alpha  occ. eigenvalues --  -10.21385 -10.21204 -10.20858 -10.20842 -10.20700
 Alpha  occ. eigenvalues --  -10.20645 -10.20252 -10.20190  -8.05212  -7.99508
 Alpha  occ. eigenvalues --   -7.98799  -6.01778  -6.01186  -6.00980  -5.95874
 Alpha  occ. eigenvalues --   -5.95456  -5.95319  -5.95168  -5.94808  -5.94617
 Alpha  occ. eigenvalues --   -1.03654  -0.98711  -0.96036  -0.95898  -0.91828
 Alpha  occ. eigenvalues --   -0.91372  -0.91013  -0.90425  -0.85092  -0.82326
 Alpha  occ. eigenvalues --   -0.82249  -0.81313  -0.79642  -0.77630  -0.76473
 Alpha  occ. eigenvalues --   -0.74498  -0.73794  -0.70938  -0.69009  -0.68459
 Alpha  occ. eigenvalues --   -0.66104  -0.65228  -0.64520  -0.63951  -0.62239
 Alpha  occ. eigenvalues --   -0.60018  -0.58806  -0.58340  -0.57013  -0.54628
 Alpha  occ. eigenvalues --   -0.54099  -0.53463  -0.52017  -0.51696  -0.50992
 Alpha  occ. eigenvalues --   -0.49600  -0.49154  -0.48757  -0.47528  -0.46941
 Alpha  occ. eigenvalues --   -0.46303  -0.45850  -0.45329  -0.45099  -0.43904
 Alpha  occ. eigenvalues --   -0.42683  -0.42386  -0.41982  -0.41777  -0.41632
 Alpha  occ. eigenvalues --   -0.41068  -0.40483  -0.40178  -0.39663  -0.38236
 Alpha  occ. eigenvalues --   -0.37918  -0.37554  -0.36662  -0.36178  -0.35617
 Alpha  occ. eigenvalues --   -0.35404  -0.34265  -0.33912  -0.33530  -0.32455
 Alpha  occ. eigenvalues --   -0.31256  -0.30471  -0.30214  -0.29516  -0.29061
 Alpha  occ. eigenvalues --   -0.28395  -0.27056  -0.26788  -0.26386  -0.25584
 Alpha  occ. eigenvalues --   -0.25010  -0.21927  -0.19615
 Alpha virt. eigenvalues --   -0.12466  -0.09482  -0.07145  -0.04780  -0.03912
 Alpha virt. eigenvalues --   -0.02836  -0.02366  -0.02302  -0.01060  -0.00544
 Alpha virt. eigenvalues --   -0.00170   0.00273   0.00410   0.00683   0.00872
 Alpha virt. eigenvalues --    0.00990   0.01518   0.01924   0.02027   0.02190
 Alpha virt. eigenvalues --    0.02591   0.02924   0.03173   0.03257   0.03752
 Alpha virt. eigenvalues --    0.03866   0.04173   0.04545   0.04879   0.04965
 Alpha virt. eigenvalues --    0.05718   0.05820   0.05923   0.06047   0.06280
 Alpha virt. eigenvalues --    0.06900   0.06980   0.07614   0.07673   0.08396
 Alpha virt. eigenvalues --    0.08729   0.08807   0.08898   0.09427   0.09643
 Alpha virt. eigenvalues --    0.09679   0.10136   0.10319   0.10547   0.10762
 Alpha virt. eigenvalues --    0.11193   0.11233   0.11271   0.11454   0.11557
 Alpha virt. eigenvalues --    0.11750   0.11988   0.12075   0.12085   0.12554
 Alpha virt. eigenvalues --    0.12672   0.12746   0.12982   0.13028   0.13265
 Alpha virt. eigenvalues --    0.13429   0.13719   0.13962   0.14070   0.14185
 Alpha virt. eigenvalues --    0.14327   0.14608   0.14740   0.15084   0.15236
 Alpha virt. eigenvalues --    0.15248   0.15515   0.15901   0.16104   0.16346
 Alpha virt. eigenvalues --    0.16669   0.16845   0.16967   0.17128   0.17629
 Alpha virt. eigenvalues --    0.17702   0.18100   0.18273   0.18414   0.18526
 Alpha virt. eigenvalues --    0.19104   0.19500   0.19705   0.19937   0.20098
 Alpha virt. eigenvalues --    0.20401   0.20598   0.20856   0.20993   0.21230
 Alpha virt. eigenvalues --    0.21528   0.21821   0.22003   0.22209   0.22281
 Alpha virt. eigenvalues --    0.22874   0.23058   0.23428   0.23479   0.23849
 Alpha virt. eigenvalues --    0.24020   0.24223   0.24488   0.24767   0.24900
 Alpha virt. eigenvalues --    0.25121   0.25250   0.25789   0.26001   0.26041
 Alpha virt. eigenvalues --    0.26234   0.26516   0.26731   0.26833   0.27313
 Alpha virt. eigenvalues --    0.27403   0.27545   0.27641   0.27768   0.28293
 Alpha virt. eigenvalues --    0.28374   0.28635   0.28767   0.29101   0.29251
 Alpha virt. eigenvalues --    0.29487   0.29751   0.30118   0.30341   0.30499
 Alpha virt. eigenvalues --    0.30553   0.30652   0.30887   0.31396   0.31690
 Alpha virt. eigenvalues --    0.32072   0.32124   0.32582   0.32801   0.32996
 Alpha virt. eigenvalues --    0.33195   0.33423   0.33653   0.33943   0.34261
 Alpha virt. eigenvalues --    0.34521   0.34608   0.34716   0.34986   0.35425
 Alpha virt. eigenvalues --    0.35691   0.35962   0.36335   0.36612   0.36817
 Alpha virt. eigenvalues --    0.36942   0.37494   0.37963   0.38319   0.38383
 Alpha virt. eigenvalues --    0.38979   0.39046   0.39810   0.40013   0.40740
 Alpha virt. eigenvalues --    0.41130   0.41588   0.42365   0.42979   0.43330
 Alpha virt. eigenvalues --    0.44051   0.44243   0.45129   0.45504   0.45965
 Alpha virt. eigenvalues --    0.47040   0.48105   0.48654   0.49518   0.50768
 Alpha virt. eigenvalues --    0.51292   0.51602   0.52512   0.53304   0.53543
 Alpha virt. eigenvalues --    0.54541   0.54802   0.55559   0.56215   0.56916
 Alpha virt. eigenvalues --    0.57763   0.59031   0.60704   0.60901   0.62376
 Alpha virt. eigenvalues --    0.62649   0.63340   0.64236   0.65079   0.65267
 Alpha virt. eigenvalues --    0.65793   0.66165   0.66495   0.67103   0.67367
 Alpha virt. eigenvalues --    0.67748   0.68053   0.68352   0.68684   0.68768
 Alpha virt. eigenvalues --    0.69200   0.69845   0.70174   0.70229   0.70584
 Alpha virt. eigenvalues --    0.71666   0.72273   0.72926   0.73674   0.74151
 Alpha virt. eigenvalues --    0.74317   0.75054   0.75269   0.75537   0.75719
 Alpha virt. eigenvalues --    0.76580   0.76867   0.77164   0.77407   0.77887
 Alpha virt. eigenvalues --    0.78232   0.78898   0.79987   0.80199   0.81150
 Alpha virt. eigenvalues --    0.81816   0.82073   0.82846   0.83132   0.83785
 Alpha virt. eigenvalues --    0.83984   0.85283   0.85850   0.86218   0.87296
 Alpha virt. eigenvalues --    0.87727   0.88299   0.88913   0.89246   0.90419
 Alpha virt. eigenvalues --    0.90852   0.91766   0.92320   0.93112   0.93819
 Alpha virt. eigenvalues --    0.94100   0.94757   0.94949   0.95535   0.95817
 Alpha virt. eigenvalues --    0.96805   0.97496   0.97985   0.98336   0.98683
 Alpha virt. eigenvalues --    0.99632   0.99819   1.00069   1.00848   1.01999
 Alpha virt. eigenvalues --    1.02442   1.02875   1.03174   1.03936   1.04375
 Alpha virt. eigenvalues --    1.05112   1.05245   1.05554   1.05935   1.06845
 Alpha virt. eigenvalues --    1.07211   1.07508   1.07751   1.08658   1.09444
 Alpha virt. eigenvalues --    1.09758   1.10401   1.10727   1.11257   1.12809
 Alpha virt. eigenvalues --    1.13123   1.13836   1.14354   1.14603   1.15886
 Alpha virt. eigenvalues --    1.16260   1.16658   1.17652   1.18143   1.18722
 Alpha virt. eigenvalues --    1.18948   1.19860   1.20363   1.20793   1.21780
 Alpha virt. eigenvalues --    1.22578   1.22894   1.23278   1.23737   1.24012
 Alpha virt. eigenvalues --    1.24262   1.24823   1.25368   1.26070   1.26395
 Alpha virt. eigenvalues --    1.26591   1.27574   1.28517   1.29039   1.29413
 Alpha virt. eigenvalues --    1.29548   1.30091   1.30378   1.30962   1.31593
 Alpha virt. eigenvalues --    1.32120   1.32996   1.33734   1.34284   1.34578
 Alpha virt. eigenvalues --    1.35473   1.35896   1.36121   1.36967   1.37332
 Alpha virt. eigenvalues --    1.38182   1.39052   1.39369   1.40175   1.40827
 Alpha virt. eigenvalues --    1.41498   1.41978   1.42637   1.43485   1.44158
 Alpha virt. eigenvalues --    1.44749   1.45072   1.45527   1.45929   1.47696
 Alpha virt. eigenvalues --    1.48588   1.50130   1.51071   1.52053   1.52852
 Alpha virt. eigenvalues --    1.54019   1.55695   1.56481   1.58467   1.59755
 Alpha virt. eigenvalues --    1.61346   1.62573   1.65521   1.66414   1.67824
 Alpha virt. eigenvalues --    1.69128   1.70629   1.71330   1.75023   1.75367
 Alpha virt. eigenvalues --    1.75760   1.76074   1.76680   1.77890   1.78702
 Alpha virt. eigenvalues --    1.79864   1.80625   1.81618   1.82393   1.82786
 Alpha virt. eigenvalues --    1.83128   1.83711   1.84518   1.85354   1.85575
 Alpha virt. eigenvalues --    1.86339   1.86675   1.87785   1.88759   1.89163
 Alpha virt. eigenvalues --    1.89409   1.92269   1.92723   1.93368   1.94127
 Alpha virt. eigenvalues --    1.94578   1.95483   1.95593   1.96243   1.97807
 Alpha virt. eigenvalues --    1.98047   1.98491   1.99539   1.99937   2.00663
 Alpha virt. eigenvalues --    2.01787   2.01924   2.03744   2.04637   2.04781
 Alpha virt. eigenvalues --    2.05476   2.06131   2.06760   2.09491   2.12240
 Alpha virt. eigenvalues --    2.13735   2.15366   2.16905   2.16984   2.17404
 Alpha virt. eigenvalues --    2.18717   2.20078   2.20609   2.21785   2.22903
 Alpha virt. eigenvalues --    2.24620   2.24814   2.25733   2.26384   2.27819
 Alpha virt. eigenvalues --    2.28550   2.28913   2.29511   2.30348   2.31190
 Alpha virt. eigenvalues --    2.31937   2.32233   2.34434   2.34615   2.35185
 Alpha virt. eigenvalues --    2.36314   2.36655   2.36847   2.37866   2.38350
 Alpha virt. eigenvalues --    2.38662   2.40042   2.40606   2.41761   2.42718
 Alpha virt. eigenvalues --    2.43138   2.43736   2.44255   2.44861   2.45611
 Alpha virt. eigenvalues --    2.46680   2.46891   2.47655   2.48055   2.49684
 Alpha virt. eigenvalues --    2.50388   2.51350   2.51874   2.52289   2.53718
 Alpha virt. eigenvalues --    2.54270   2.55091   2.55253   2.56451   2.56792
 Alpha virt. eigenvalues --    2.57702   2.58059   2.59809   2.60650   2.61603
 Alpha virt. eigenvalues --    2.62161   2.62296   2.62824   2.64202   2.65997
 Alpha virt. eigenvalues --    2.66455   2.67414   2.68587   2.69203   2.69558
 Alpha virt. eigenvalues --    2.70006   2.70989   2.71211   2.72643   2.73516
 Alpha virt. eigenvalues --    2.74330   2.75581   2.75956   2.79347   2.80300
 Alpha virt. eigenvalues --    2.81170   2.83052   2.85097   2.86686   2.89148
 Alpha virt. eigenvalues --    2.89906   2.90728   2.92240   2.95849   2.96122
 Alpha virt. eigenvalues --    2.98363   3.00958   3.02410   3.05444   3.08213
 Alpha virt. eigenvalues --    3.08801   3.10609   3.11414   3.13750   3.22214
 Alpha virt. eigenvalues --    3.23867   3.25372   3.27577   3.29276   3.30749
 Alpha virt. eigenvalues --    3.32194   3.33321   3.34263   3.36080   3.38760
 Alpha virt. eigenvalues --    3.39329   3.43229   3.47879   3.53127   3.59559
 Alpha virt. eigenvalues --    3.60449   3.69612   3.80673   3.87414   3.96119
 Alpha virt. eigenvalues --    3.98462   4.00079   4.15312   4.20084   4.25860
 Alpha virt. eigenvalues --    4.30024   4.31846   4.32253   4.33189   4.34071
 Alpha virt. eigenvalues --    4.34673   4.35449   4.37587   4.38420   4.41036
 Alpha virt. eigenvalues --    4.44227   4.45415   4.48839   4.51503   4.51973
 Alpha virt. eigenvalues --    4.54141   4.55753   4.56304   4.59245   4.60741
 Alpha virt. eigenvalues --    4.62660   4.64119   4.73184   4.79328   4.81549
 Alpha virt. eigenvalues --    4.86809   4.92191
          Condensed to atoms (all electrons):
              1          2          3          4          5          6
     1  C   11.799165  -0.319652  -1.608013  -1.697670  -1.343052   0.961398
     2  S   -0.319652  16.074379  -0.224439   0.312289   0.138925   0.039763
     3  C   -1.608013  -0.224439  12.293136  -2.898781  -0.212855  -2.069356
     4  C   -1.697670   0.312289  -2.898781  10.098951   2.110204  -0.674374
     5  C   -1.343052   0.138925  -0.212855   2.110204  10.865111  -1.170503
     6  C    0.961398   0.039763  -2.069356  -0.674374  -1.170503  11.563443
     7  C   -0.305656  -0.047921   1.320484  -0.081283  -1.927648  -1.985208
     8  C    0.043288   0.049126  -0.932158   0.744550   1.181157  -1.423327
     9  C   -1.512294   0.103451  -0.819167   0.989558  -1.005767   1.737653
    10  C   -0.097435  -0.015919   0.292687   0.648422   1.822974  -0.455327
    11  C   -0.164485  -0.118873  -0.627718  -0.827845  -0.464590   0.139423
    12  N    0.008472   0.015171   0.123821  -0.067175  -0.083691  -0.008843
    13  C    0.025242  -0.020726  -0.009792   0.538854   1.205289  -0.356222
    14  C   -0.005682   0.003860  -0.026284   0.147208   0.300530  -0.063739
    15  S   -0.000946   0.000747   0.016794  -0.028945  -0.009894   0.002380
    16  C   -0.000188   0.000351   0.002306  -0.009975  -0.042433   0.008762
    17  C    0.000009   0.000013   0.000653  -0.001680  -0.005799  -0.000047
    18  C   -0.000006   0.000004  -0.000073  -0.000041  -0.001279   0.000196
    19  C   -0.000000  -0.000000  -0.000014   0.000086   0.000418  -0.000154
    20  C   -0.000000   0.000000  -0.000001  -0.000008  -0.000057   0.000016
    21  C    0.000000  -0.000000   0.000003   0.000007   0.000057  -0.000009
    22  N    0.000000   0.000000   0.000001   0.000001  -0.000023   0.000004
    23  C    0.000172   0.000265   0.004882  -0.008442  -0.032478  -0.005015
    24  N   -0.000000  -0.000000  -0.000057   0.000047   0.000222   0.000025
    25  C    0.000008  -0.000134  -0.000263   0.001796   0.006137  -0.000914
    26  C   -0.000101   0.000478   0.002730  -0.006478  -0.015145   0.001245
    27  N    0.000063   0.000319   0.002515  -0.002562  -0.005194   0.000421
    28  C    0.001637  -0.002135  -0.004153   0.015669   0.005566  -0.030061
    29  C   -0.037663   0.028526   0.203373  -0.778098  -1.633903  -0.232249
    30  N    0.000464  -0.000374  -0.000379   0.002899  -0.000878  -0.005570
    31  S   -0.004549   0.003280   0.049155  -0.061728  -0.163877   0.029134
    32  N    0.006365   0.003301   0.016126   0.004819  -0.143694   0.047863
    33  C   -0.263371   0.098814   0.443424  -1.833191  -2.650878  -0.431516
    34  H    0.289473  -0.073175   0.051099  -0.005194   0.002492  -0.007046
    35  H    0.063427  -0.062696   0.664400  -0.229337  -0.078798  -0.088161
    36  H    0.031134   0.001005  -0.075877  -0.005081   0.041972   0.397743
    37  H   -0.038074  -0.000221   0.032509   0.056948  -0.032581  -0.095936
    38  H   -0.290037   0.009820  -0.005141   0.116906   0.129542  -0.047761
    39  H    0.009263  -0.025993  -0.117706  -0.044571  -0.033497   0.029359
    40  H   -0.000002  -0.000002   0.000015   0.000121   0.000377   0.000011
    41  H    0.000000   0.000000   0.000000  -0.000001  -0.000002  -0.000005
    42  H   -0.000000   0.000000  -0.000000  -0.000000  -0.000001   0.000000
    43  H    0.000000  -0.000000   0.000000   0.000000   0.000001  -0.000000
    44  H    0.000001  -0.000003  -0.000014   0.000029   0.000080  -0.000010
    45  H   -0.000018   0.000049  -0.000068  -0.000240  -0.000675   0.000074
              7          8          9         10         11         12
     1  C   -0.305656   0.043288  -1.512294  -0.097435  -0.164485   0.008472
     2  S   -0.047921   0.049126   0.103451  -0.015919  -0.118873   0.015171
     3  C    1.320484  -0.932158  -0.819167   0.292687  -0.627718   0.123821
     4  C   -0.081283   0.744550   0.989558   0.648422  -0.827845  -0.067175
     5  C   -1.927648   1.181157  -1.005767   1.822974  -0.464590  -0.083691
     6  C   -1.985208  -1.423327   1.737653  -0.455327   0.139423  -0.008843
     7  C   10.179198  -0.654281  -0.274563  -0.351220  -0.264648   0.016614
     8  C   -0.654281   9.757723  -2.013808  -0.368672   0.012769  -0.009597
     9  C   -0.274563  -2.013808   9.899256  -0.013767  -0.282090  -0.004648
    10  C   -0.351220  -0.368672  -0.013767  15.475271  -3.404720   0.097760
    11  C   -0.264648   0.012769  -0.282090  -3.404720  17.998165  -0.813457
    12  N    0.016614  -0.009597  -0.004648   0.097760  -0.813457   7.226822
    13  C   -0.097297   0.038204   0.143642   2.712326  -1.970891   0.243366
    14  C   -0.012006   0.012688  -0.001375   1.359928  -0.415303  -0.174441
    15  S    0.003832   0.000006  -0.003412  -0.225558   0.111555   0.090444
    16  C    0.000537   0.000220  -0.001738  -0.021735   0.085518  -0.013185
    17  C    0.000074  -0.000033  -0.000069  -0.078385  -0.020184  -0.004183
    18  C   -0.000007   0.000012  -0.000041   0.007245   0.012406   0.009397
    19  C   -0.000003   0.000000  -0.000001   0.000271  -0.001334   0.003268
    20  C    0.000000   0.000000  -0.000000   0.000177   0.000697  -0.000053
    21  C    0.000000  -0.000000   0.000000  -0.000159  -0.001280  -0.000084
    22  N    0.000000   0.000000  -0.000000   0.000204  -0.000774  -0.000952
    23  C   -0.000029  -0.000369  -0.001105  -0.162877  -0.227820   0.051512
    24  N   -0.000000   0.000000   0.000004   0.000327   0.005456   0.000771
    25  C   -0.000082   0.000007   0.000279   0.037473  -0.021010   0.036319
    26  C    0.000231  -0.000016  -0.000996  -0.102114   0.038478  -0.073328
    27  N    0.000131  -0.000021  -0.000224  -0.024132  -0.103843   0.059832
    28  C   -0.001718  -0.002305   0.002905   0.048224  -0.423913   0.024880
    29  C    0.106376   0.001541  -0.297133  -5.401014  -1.055180   0.148157
    30  N   -0.006954  -0.001228   0.002015   0.075811   0.035257   0.018111
    31  S    0.100101  -0.012625  -0.031768  -0.513494  -0.203295   0.025578
    32  N    0.001136  -0.030981   0.016882  -0.328411  -0.090048  -0.004150
    33  C    0.098442  -0.021561  -1.154440  -4.119572  -1.491340   0.272386
    34  H    0.024852  -0.030284   0.031369  -0.000781   0.000769   0.000060
    35  H    0.017379  -0.013864  -0.025510   0.070308  -0.152735   0.017794
    36  H   -0.248367   0.067374   0.038044  -0.099050  -0.062515   0.001616
    37  H    0.471253  -0.102927   0.016977   0.017247   0.005096  -0.000010
    38  H   -0.085919   0.506588  -0.057506  -0.002574   0.001088  -0.000092
    39  H   -0.019641  -0.001350  -0.010685  -0.376901   1.009845  -0.194977
    40  H   -0.000005   0.000007  -0.000016   0.006693   0.000970   0.000685
    41  H   -0.000000  -0.000000   0.000000  -0.000210  -0.000040  -0.000003
    42  H    0.000000   0.000000  -0.000000  -0.000005   0.000007  -0.000001
    43  H    0.000000  -0.000000   0.000000   0.000003  -0.000017   0.000011
    44  H   -0.000001  -0.000000   0.000005   0.000375  -0.000475   0.000977
    45  H    0.000010  -0.000001  -0.000102  -0.004610   0.004208  -0.004576
             13         14         15         16         17         18
     1  C    0.025242  -0.005682  -0.000946  -0.000188   0.000009  -0.000006
     2  S   -0.020726   0.003860   0.000747   0.000351   0.000013   0.000004
     3  C   -0.009792  -0.026284   0.016794   0.002306   0.000653  -0.000073
     4  C    0.538854   0.147208  -0.028945  -0.009975  -0.001680  -0.000041
     5  C    1.205289   0.300530  -0.009894  -0.042433  -0.005799  -0.001279
     6  C   -0.356222  -0.063739   0.002380   0.008762  -0.000047   0.000196
     7  C   -0.097297  -0.012006   0.003832   0.000537   0.000074  -0.000007
     8  C    0.038204   0.012688   0.000006   0.000220  -0.000033   0.000012
     9  C    0.143642  -0.001375  -0.003412  -0.001738  -0.000069  -0.000041
    10  C    2.712326   1.359928  -0.225558  -0.021735  -0.078385   0.007245
    11  C   -1.970891  -0.415303   0.111555   0.085518  -0.020184   0.012406
    12  N    0.243366  -0.174441   0.090444  -0.013185  -0.004183   0.009397
[...]
 0003315,-0.00000703,0.00000266,0.00006811,-0.00002487,-0.00001801,0.00
 009123,-0.00002803,0.00011462,0.00027297,0.00037940,-0.00183256,-0.001
 55940,0.00018150,-0.00238343,-0.00383217,-0.00108771,0.00999117,-0.020
 26197,0.00953670,-0.07443244,0.05752652,-0.03189528,0.00099287,0.02775
 960,-0.01079092,-0.00541941,0.00131228,-0.00362857,0.00000765,-0.00013
 098,0.00000498,-0.00000187,0.00003026,-0.00010673,0.00002563,0.0000147
 4,0.00005594,-0.00001705,0.00001760,0.00001975,-0.00000902,0.00000565,
 -0.00002316,0.00002518,-0.00001291,0.00003495,-0.00000094,0.00000795,0
 .00000044,0.00000030,0.00000530,0.00000262,0.00000493,-0.00000170,0.00
 000041,-0.00000323,0.00000663,-0.00000057,-0.00000125,-0.00000007,0.00
 000210,-0.00000110,0.00000062,-0.00000022,0.00000009,-0.00000173,-0.00
 000074,-0.00000172,-0.00000006,0.00000014,0.00000017,0.00000028,0.0000
 0063,0.00000018,-0.00000076,0.00000047,-0.00000205,0.00000122,-0.00000
 052,0.00040936,-0.00106549,0.00045042,0.00071978,0.00096419,0.00081346
 ,0.07137002,-0.00001294,0.00000064,0.00000426,-0.00000996,0.00000460,0
 .00000332,0.00000176,-0.00000247,0.00000309,-0.00000863,0.00001045,-0.
 00000233,-0.00000787,-0.00000133,0.00003337,0.00001932,0.00000466,-0.0
 0000906,0.00000542,-0.00001737,-0.00000592,-0.00000467,0.00000361,0.00
 000355,0.00001836,-0.00000613,-0.00002268,0.00000351,0.00002939,-0.000
 01424,-0.00003984,0.00000657,-0.00001963,0.00003008,-0.00004036,0.0000
 0541,0.00001072,0.00010364,0.00003876,0.00000456,-0.00003917,-0.000004
 15,-0.00001186,0.00000172,0.00002328,0.00013436,-0.00010520,-0.0005764
 7,-0.00047598,0.00057893,-0.00043982,-0.00450087,-0.00026241,0.0019738
 9,0.00800918,-0.01446699,0.00863251,0.05743141,-0.27849154,0.10807607,
 -0.00174812,-0.00132074,0.00044741,0.00064765,0.00206089,0.00223910,0.
 00002325,0.00005080,-0.00002684,-0.00000053,-0.00001841,0.00006019,0.0
 0000145,-0.00002827,-0.00002070,0.00001819,0.00001831,-0.00001507,-0.0
 0001004,-0.00000448,0.00001523,0.00000248,-0.00003335,0.00002459,-0.00
 000203,-0.00003438,-0.00000915,0.00000355,-0.00002084,-0.00000284,-0.0
 0001015,0.00003251,0.00000307,0.00000690,-0.00004212,0.00000034,0.0000
 2541,-0.00000351,0.00001347,0.00000086,0.00000030,0.00000297,-0.000004
 56,-0.00000200,0.00000506,-0.00000334,0.00000451,-0.00000011,-0.000000
 97,-0.00000053,-0.00000131,0.00000011,-0.00000576,0.00000121,0.0000021
 0,-0.00000426,-0.00000134,0.00053278,-0.00061392,0.00049647,0.00023864
 ,0.00033720,-0.00160217,-0.06094326,0.29233993,0.00001077,-0.00000514,
 -0.00000715,0.00000633,-0.00000142,0.00000085,-0.00000632,-0.00000106,
 -0.00000120,0.00000614,-0.00000530,-0.00000083,0.00001497,0.00000116,-
 0.00002826,-0.00001529,-0.00000472,0.00000823,-0.00000558,0.00001425,0
 .00000491,0.00000333,-0.00000586,-0.00000238,-0.00001137,0.00001312,0.
 00001500,-0.00000298,-0.00002104,0.00001392,0.00003535,-0.00000225,0.0
 0000795,-0.00000920,0.00001846,-0.00000667,-0.00002128,-0.00006076,0.0
 0001270,0.00003093,0.00006961,0.00007534,0.00007432,-0.00022731,-0.000
 04546,0.00034437,-0.00042520,-0.00135943,-0.00008806,-0.00081157,0.000
 05064,-0.00096484,0.00223118,0.00667461,-0.00110381,0.00139543,0.00182
 455,-0.03190670,0.10814345,-0.08509419,0.00068258,0.00808747,-0.001912
 68,-0.00356926,0.00226202,0.00576128,-0.00010720,0.00027093,-0.0001020
 2,0.00006200,-0.00000463,0.00005926,-0.00000286,0.00008112,-0.00005792
 ,0.00002761,-0.00008674,-0.00002193,0.00002428,0.00003658,0.00003467,-
 0.00009031,-0.00014988,-0.00000447,-0.00001467,0.00003285,0.00000654,-
 0.00001243,-0.00000351,-0.00001138,0.00001561,-0.00001828,0.00000762,-
 0.00000216,0.00001511,0.00000255,-0.00002296,0.00000388,-0.00001404,-0
 .00000126,0.00000037,-0.00000126,0.00000237,-0.00000003,-0.00000173,0.
 00000070,-0.00000237,0.00000012,0.00000093,0.00000083,0.00000169,0.000
 00030,0.00000242,0.00000008,-0.00000315,0.00000307,0.00000185,-0.00013
 483,0.00014736,0.00027086,0.00101226,-0.00139891,-0.00314270,0.0351649
 6,-0.11837026,0.07932055,0.00000532,-0.00001194,-0.00000209,0.00001271
 ,0.00000590,-0.00000419,-0.00000086,0.00000675,-0.00000412,-0.00000720
 ,-0.00001857,0.00000049,-0.00000694,-0.00000217,-0.00001174,-0.0000007
 3,0.00000043,0.00000917,0.00000971,0.00000957,-0.00000283,-0.00000674,
 -0.00001424,0.00000267,-0.00000708,0.00000441,0.00001368,0.00001513,0.
 00000256,0.00000415,-0.00001062,-0.00000094,-0.00000159,0.00001530,-0.
 00001321,0.00001039,-0.00000170,0.00006547,0.00000802,0.00000355,-0.00
 002716,0.00001548,0.00000113,0.00009967,-0.00000205,0.00038929,-0.0000
 0563,-0.00002077,0.00247134,0.00303719,-0.00333089,0.00003351,0.000944
 18,-0.00021369,-0.00439127,0.00188772,-0.00357822,-0.01473181,-0.02162
 975,0.00300521,-0.20688122,-0.13787215,0.01240261,0.01279848,0.0078033
 0,0.00109253,-0.00004003,0.00003925,0.00001425,0.00000156,-0.00003736,
 0.00013574,-0.00002529,-0.00002180,-0.00004504,0.00001020,0.00000277,-
 0.00001616,0.00000794,-0.00001294,0.00002435,0.00001862,-0.00000757,-0
 .00002590,-0.00003778,0.00000657,-0.00001431,0.00000659,-0.00000643,0.
 00000982,-0.00000807,0.00000411,-0.00000785,0.00000896,-0.00000506,0.0
 0000834,-0.00001367,-0.00001525,-0.00001528,-0.00000067,-0.00000056,-0
 .00000082,-0.00000017,0.00000201,-0.00000112,0.00000407,0.00000041,-0.
 00000273,-0.00000171,-0.00000291,0.00000148,0.00000139,0.00000123,-0.0
 0000079,0.00000241,0.00000016,0.00000540,-0.00004462,0.00007785,0.0004
 0387,-0.00087991,-0.00113393,0.00031447,0.00045711,0.00062173,0.000613
 48,0.21082103,0.00000370,-0.00002450,-0.00000575,0.00001288,0.00001290
 ,-0.00000085,-0.00000678,0.00000514,-0.00000045,-0.00001869,-0.0000198
 7,-0.00000512,-0.00000320,-0.00000640,-0.00000916,0.00001133,0.0000012
 8,0.00001180,0.00001623,0.00000528,-0.00000629,-0.00001487,-0.00002560
 ,0.00000691,0.00000250,0.00001898,0.00000647,0.00003025,0.00002073,-0.
 00000100,-0.00005067,0.00000693,0.00000204,0.00007141,-0.00009070,0.00
 002911,0.00008148,0.00025373,-0.00000097,0.00002255,-0.00027845,0.0000
 4050,0.00004021,0.00005207,0.00010944,-0.00083684,-0.00021119,-0.00008
 179,0.00015239,-0.00138920,0.00467219,0.00029269,-0.00038209,0.0000334
 0,0.00110707,0.00151578,0.00246306,0.00514047,0.00806017,0.00086719,-0
 .13699181,-0.17621287,0.01758974,-0.01534570,-0.03134177,0.00676149,0.
 00001708,-0.00001300,-0.00006460,-0.00003448,0.00001662,-0.00000841,0.
 00004506,-0.00004336,0.00006363,-0.00001360,0.00006029,-0.00001153,0.0
 0003430,-0.00002108,0.00002527,-0.00002189,-0.00008996,-0.00000227,-0.
 00005750,-0.00000273,-0.00003403,0.00000971,-0.00000581,0.00001945,-0.
 00003044,0.00001254,-0.00001481,0.00001654,-0.00003408,0.00000883,-0.0
 0000331,-0.00003123,-0.00000522,-0.00000146,0.00000049,0.00000091,-0.0
 0000582,-0.00000115,0.00000231,0.00000128,0.00000418,-0.00000390,-0.00
 000283,-0.00000474,0.00000179,0.00000239,-0.00000345,0.00000030,0.0000
 0300,-0.00000568,0.00000711,-0.00009529,-0.00020223,-0.00065205,0.0004
 3840,0.00022777,-0.00014218,-0.00025458,-0.00002410,-0.00122606,0.1462
 2072,0.20019311,-0.00000510,0.00000730,0.00000509,0.00000240,-0.000003
 97,-0.00000381,0.00000622,0.00000349,-0.00000469,0.00000157,-0.0000010
 5,0.00000460,-0.00001389,0.00000618,0.00001081,0.00000076,0.00000039,-
 0.00000500,0.00000089,-0.00000269,-0.00000204,0.00000133,0.00000580,-0
 .00000114,-0.00000055,-0.00001446,0.00000049,-0.00001123,-0.00000745,-
 0.00000789,0.00000533,0.00001788,0.00000231,0.00000365,0.00000854,0.00
 000320,-0.00004774,0.00000261,-0.00002051,0.00007050,0.00007389,0.0000
 8672,-0.00012807,0.00004117,-0.00023443,0.00010211,0.00051906,0.000335
 06,-0.00207988,0.00493324,0.00850794,0.00009028,0.00020318,-0.00053724
 ,-0.00324758,0.00287587,0.00516765,-0.00781922,-0.00587792,0.00719149,
 0.01238658,0.01720388,-0.04565910,0.01035427,0.01266975,-0.00644217,0.
 00007413,-0.00007246,0.00013598,-0.00010983,-0.00004017,-0.00022695,0.
 00003653,0.00007818,0.00003608,-0.00003198,0.00001061,-0.00001827,0.00
 000220,-0.00000645,-0.00001198,0.00000170,0.00002113,-0.00002663,0.000
 00317,-0.00000530,0.00000115,0.00001140,0.00000487,-0.00000090,-0.0000
 0633,-0.00000038,0.00000003,0.00000288,0.00000457,-0.00000194,0.000000
 54,-0.00000190,0.00000152,0.00000157,-0.00000091,-0.00000011,0.0000017
 3,0.00000239,0.00000039,0.00000281,-0.00000124,0.00000084,0.00000032,0
 .00000023,-0.00000039,-0.00000049,0.00000260,-0.00000070,0.00000201,0.
 00000168,-0.00000013,0.00047469,-0.00066248,-0.00146388,-0.00028456,-0
 .00054969,-0.00029323,0.00096262,-0.00098205,-0.00234831,-0.01080710,-
 0.03047663,0.03584604,-0.00000250,-0.00000763,-0.00000287,-0.00000722,
 0.00000791,0.00000458,-0.00000159,-0.00000303,0.00000519,-0.00001164,0
 .00000403,-0.00000571,0.00000393,-0.00001807,0.00001310,0.00001691,0.0
 0000701,-0.00000003,0.00000682,-0.00001016,-0.00000198,-0.00000772,-0.
 00000575,0.00000318,0.00001146,0.00000955,-0.00000988,0.00000772,0.000
 03694,0.00000443,-0.00004372,-0.00001839,-0.00001864,0.00001722,-0.000
 08048,0.00002823,0.00006686,0.00008312,0.00004076,-0.00065772,-0.00000
 625,0.00076826,-0.00076889,-0.00005526,0.00019616,0.00021683,-0.000558
 31,-0.00032316,0.00049897,-0.00037779,-0.00009499,-0.00007007,0.000063
 47,-0.00003177,-0.00001942,-0.00008030,0.00006517,0.00007918,0.0000386
 2,0.00000008,-0.00008165,0.00010994,0.00003177,0.00010244,0.00010166,0
 .00002956,0.00711224,0.00095559,-0.00813656,-0.01812797,-0.01081112,-0
 .01355359,-0.09335191,-0.08349638,-0.07005194,0.00660970,0.00397369,0.
 00199655,0.00223086,0.00137107,-0.00115052,0.00005867,0.00031210,-0.00
 103367,0.00001804,-0.00003577,-0.00008451,-0.00003815,-0.00004854,-0.0
 0001090,0.00002752,0.00004442,0.00002069,0.00000374,-0.00005752,0.0000
 0491,0.00002237,-0.00001484,0.00000762,-0.00000078,0.00000099,0.000001
 72,-0.00000453,-0.00000323,0.00000231,-0.00000415,0.00000433,-0.000002
 23,-0.00000161,-0.00000174,-0.00000069,0.00000071,-0.00000579,0.000000
 87,0.00000369,-0.00000440,-0.00000682,0.00001508,-0.00000401,0.0000006
 5,-0.00000120,-0.00000092,-0.00000115,0.00000364,0.00000037,-0.0000265
 3,-0.00000246,0.00000981,-0.00000665,0.09696779,-0.00001043,-0.0000081
 9,0.00000921,0.00000576,0.00000610,-0.00000629,0.00000592,0.00000919,-
 0.00000410,-0.00001465,-0.00001094,0.00000268,-0.00003384,0.00000304,0
 .00002202,0.00001980,0.00000168,-0.00000183,0.00001764,-0.00000890,-0.
 00000838,-0.00001171,-0.00000812,0.00000582,0.00001088,-0.00001280,-0.
 00000785,0.00000073,0.00000243,-0.00000958,-0.00009797,0.00006967,-0.0
 0002916,0.00004943,-0.00013419,-0.00013495,0.00010109,0.00009945,0.000
 08242,-0.00006663,-0.00008454,-0.00012622,0.00007451,0.00024793,0.0000
 9500,-0.00008907,0.00046374,-0.00008873,0.00000984,0.00000191,-0.00001
 325,-0.00001975,-0.00000358,-0.00000924,-0.00000212,-0.00000417,0.0000
 1074,-0.00000630,0.00000537,0.00000312,0.00000655,-0.00003227,0.000020
 53,-0.00000129,0.00000648,-0.00009150,0.00261426,0.00139019,0.00329350
 ,0.00510064,0.01549760,0.00676896,-0.08473200,-0.20331642,-0.10848095,
 -0.01452287,-0.01186975,-0.01918684,0.00065838,-0.00692599,0.00166394,
 0.00149459,0.00039625,0.00176476,-0.00002552,-0.00001301,0.00002565,0.
 00003051,0.00001212,0.00000297,-0.00004771,0.00000330,-0.00002496,0.00
 000503,-0.00002372,0.00000495,0.00001841,-0.00002405,-0.00000053,0.000
 00109,-0.00000085,0.00000071,-0.00000558,0.00000268,0.00000344,0.00000
 323,0.00000375,-0.00000346,-0.00000252,-0.00000403,-0.00000087,0.00000
 091,-0.00000210,-0.00000117,0.00001230,-0.00000490,0.00000552,-0.00000
 033,-0.00000002,-0.00000007,-0.00000147,-0.00000076,-0.00000304,-0.000
 00241,0.00000456,-0.00000173,0.00000207,-0.00000133,0.00000308,0.08902
 607,0.20414162,-0.00000484,-0.00001319,0.00000220,0.00000549,0.0000077
 3,-0.00000148,-0.00000205,0.00000384,0.00000114,-0.00001426,-0.0000084
 9,-0.00000236,-0.00000956,0.00000387,0.00001144,0.00001443,0.00000048,
 0.00000382,0.00001224,-0.00000350,-0.00000745,-0.00001036,-0.00001327,
 0.00000616,0.00000974,0.00000432,-0.00000663,0.00002835,0.00001919,-0.
 00001523,-0.00004565,0.00000700,-0.00001235,0.00007221,-0.00000663,0.0
 0003733,-0.00010339,0.00018438,-0.00009897,0.00062068,-0.00038794,-0.0
 0044933,0.00025287,-0.00000855,-0.00051174,-0.00037116,-0.00080678,-0.
 00004660,-0.00028222,0.00002541,0.00022202,0.00001254,0.00006501,-0.00
 003862,-0.00000223,0.00001442,-0.00001809,-0.00004225,0.00004225,-0.00
 001554,-0.00002538,-0.00015281,-0.00002687,-0.00001542,0.00010444,-0.0
 0013276,-0.00761497,0.00086422,0.00392982,-0.01379555,-0.01321901,-0.0
 2496195,-0.06996129,-0.10803431,-0.12773456,0.00205043,0.00615929,0.00
 775324,-0.00123785,0.00148467,0.00122504,-0.00080527,0.00058942,-0.000
 19218,-0.00005634,-0.00005070,0.00003067,0.00002372,-0.00000743,0.0000
 3317,-0.00003786,0.00000623,-0.00002152,0.00001256,-0.00003145,0.00000
 230,-0.00000929,-0.00000565,-0.00000374,-0.00000029,0.00000007,0.00000
 100,-0.00000651,-0.00000073,0.00000213,0.00000028,0.00000420,-0.000002
 65,-0.00000204,-0.00000316,-0.00000006,0.00000130,-0.00000364,0.000000
 21,0.00000068,-0.00000692,0.00000833,0.00001047,-0.00000411,-0.0000032
 9,-0.00000324,0.00000760,-0.00000713,-0.00001242,0.00001328,0.00000764
 ,0.00000797,0.00001964,-0.00002351,0.09068838,0.11382714,0.14154343,0.
 00000277,-0.00001389,-0.00000050,0.00000813,0.00001013,-0.00000374,0.0
 0000266,0.00000682,-0.00000045,-0.00001525,-0.00002203,-0.00000030,0.0
 0001655,-0.00000928,-0.00004569,0.00000385,0.00001130,0.00001006,0.000
 01932,0.00000361,0.00000050,-0.00001103,-0.00001853,0.00000701,-0.0000
 0050,0.00000594,0.00000638,0.00005826,0.00003480,0.00004107,-0.0001261
 6,-0.00009250,0.00014942,0.00034234,0.00005204,-0.00005269,0.00028192,
 0.00049948,-0.00026508,0.00022629,0.00019568,-0.00055282,-0.00071148,-
 0.00010860,0.00022198,-0.00066387,0.00007882,0.00079531,0.00017269,-0.
 00006380,0.00001838,-0.00005388,0.00002548,-0.00004029,0.00002839,0.00
 001023,0.00001979,0.00001065,0.00003074,-0.00000300,-0.00004816,-0.000
 00425,0.00001856,0.00000484,0.00010102,-0.00009252,0.00038341,-0.00031
 487,-0.00028719,0.00214310,0.00092782,-0.00098554,0.00263453,-0.000824
 68,-0.00388787,-0.13425820,0.04779309,-0.12687334,-0.01535318,-0.00354
 324,-0.01002958,0.00839574,-0.00179737,-0.00650230,-0.00012467,-0.0000
 0869,0.00004157,0.00004197,-0.00001855,0.00004083,-0.00002679,0.000014
 10,-0.00003050,0.00004059,-0.00002862,0.00002201,-0.00006394,-0.000002
 60,-0.00001851,-0.00000067,-0.00000029,-0.00000028,-0.00000263,0.00000
 059,-0.00000229,-0.00000002,0.00000201,-0.00000862,-0.00000320,-0.0000
 0358,-0.00000011,0.00000108,-0.00000172,-0.00000238,0.00000053,-0.0000
 0808,0.00000633,0.00002732,-0.00000322,-0.00000439,-0.00000686,0.00000
 018,0.00000063,-0.00000002,0.00000149,-0.00001053,0.00000521,0.0000062
 8,-0.00000401,-0.00089748,0.00042453,0.00064737,0.13751585,-0.00000007
 ,0.00000254,0.00000350,0.00000377,-0.00000386,-0.00000400,0.00000697,0
 .00000471,0.00000341,-0.00000722,-0.00000246,0.00000364,-0.00000866,-0
 .00000738,0.00001145,0.00000705,0.00000162,0.00000081,0.00000292,-0.00
 000492,-0.00000061,-0.00000351,-0.00000209,0.00000168,0.00000001,-0.00
 000271,-0.00000180,0.00001099,-0.00000419,0.00000247,-0.00004716,-0.00
 001684,-0.00003923,0.00004581,-0.00003618,0.00007636,-0.00001451,0.000
 11147,0.00003308,-0.00020546,0.00078548,-0.00032679,-0.00026817,0.0000
 8724,-0.00031106,0.00012805,0.00015322,0.00011320,-0.00009197,-0.00003
 805,-0.00005642,-0.00001563,0.00001037,-0.00001959,0.00000259,-0.00000
 737,0.00001339,0.00002236,-0.00001103,-0.00001520,0.00001278,0.0000676
 1,-0.00002566,0.00000535,-0.00001614,0.00012603,-0.00146806,-0.0011461
 5,-0.00167786,0.00169412,-0.00688446,0.00173916,0.01729011,0.00017610,
 0.02337102,0.04910077,-0.08232286,0.06604337,-0.01921770,0.00681454,-0
 .02583381,-0.00323240,-0.00180379,-0.00343527,0.00002497,-0.00003899,0
 .00001212,-0.00000469,-0.00000603,-0.00000185,0.00001090,0.00001382,0.
 00000508,0.00000083,-0.00001379,0.00000204,-0.00000177,0.00000740,-0.0
 0001451,0.00000061,-0.00000035,-0.00000116,-0.00000265,0.00000003,-0.0
 0000623,-0.00000038,0.00000006,-0.00000208,0.00000002,-0.00000062,-0.0
 0000147,-0.00000017,0.00000071,-0.00000079,0.00000467,-0.00002371,-0.0
 0001190,0.00001533,0.00000127,-0.00000411,0.00000145,0.00000110,0.0000
 0203,0.00000704,-0.00000354,0.00000339,-0.00000646,-0.00000142,0.00000
 565,-0.00045503,0.00012558,-0.00068985,-0.04334779,0.08403405,0.000005
 54,-0.00002772,-0.00000200,0.00001355,0.00000813,-0.00000320,-0.000008
 88,0.00000449,0.00001062,-0.00001498,-0.00001335,-0.00000555,-0.000017
 44,0.00001123,0.00001591,0.00000993,-0.00001373,0.00001308,0.00000725,
 0.00000702,-0.00000450,-0.00001145,-0.00002703,0.00000640,0.00000565,0
 .00002689,0.00000079,-0.00002002,-0.00004842,-0.00002501,-0.00003635,0
 .00017266,-0.00015374,-0.00007732,-0.00031312,-0.00003009,-0.00019909,
 0.00002339,0.00020582,-0.00055906,0.00023431,-0.00012899,0.00034366,-0
 .00006401,-0.00036372,0.00043105,0.00020114,-0.00068785,-0.00006720,-0
 .00013218,0.00001555,-0.00002646,0.00009100,0.00000659,-0.00001947,-0.
 00004232,-0.00000414,0.00001558,0.00003105,0.00000347,-0.00002569,-0.0
 0004659,-0.00000530,0.00002145,0.00001619,-0.00002884,0.00020802,-0.00
 045478,0.00082651,-0.00147958,0.00185141,0.00105230,-0.00407962,-0.002
 13931,0.00014103,-0.12721227,0.06591562,-0.20738600,-0.00947452,-0.006
 08254,-0.01929100,-0.00600433,-0.00058856,0.00562273,0.00000520,-0.000
 03706,-0.00007736,-0.00001702,-0.00001142,0.00000792,-0.00001220,0.000
 00603,-0.00000674,-0.00001192,-0.00004220,-0.00000022,0.00001994,-0.00
 002875,-0.00000328,-0.00000222,0.00000047,-0.00000111,-0.00001246,-0.0
 0000307,-0.00000291,0.00000056,0.00000553,-0.00000373,-0.00000196,-0.0
 0000474,0.00000075,0.00000217,-0.00000422,0.00000053,0.00001418,-0.000
 02214,-0.00000230,-0.00000373,-0.00000669,0.00000118,-0.00000579,0.000
 00376,-0.00000695,-0.00000641,0.00000624,0.00000061,0.00000576,0.00001
 050,-0.00000245,0.00064063,0.00061854,-0.00048648,0.14765732,-0.059091
 63,0.22078165\\0.00000063,0.00000626,0.00000316,-0.00000387,0.00000048
 ,0.00000872,0.00000737,-0.00000432,0.00000106,0.00000057,0.00000328,-0
 .00000315,-0.00000018,-0.00000978,0.00000106,-0.00000191,0.00000285,-0
 .00000013,-0.00000537,-0.00000136,-0.00000230,0.00000360,0.00000114,0.
 00000014,-0.00000023,-0.00000530,-0.00000647,0.00000825,0.00001560,0.0
 0000137,-0.00000422,-0.00000809,-0.00000510,0.00000036,0.00000860,0.00
 000157,-0.00000056,-0.00000384,0.00001804,0.00001006,0.00000619,0.0000
 0001,-0.00000276,-0.00000807,-0.00000163,0.00000841,0.00000279,0.00000
 135,0.00000860,0.00000668,0.00000099,0.00000498,-0.00000334,0.00000192
 ,0.00000201,0.00000295,-0.00000252,0.00000066,0.00000087,-0.00000257,0
 .00000636,-0.00000158,0.00000819,-0.00000671,-0.00000045,0.00000020,-0
 .00001331,0.00001179,-0.00000216,0.00000016,-0.00000389,0.00000519,-0.
 00001097,0.00001090,0.00000274,-0.00000179,-0.00001680,0.00001052,-0.0
 0000348,-0.00000113,-0.00000351,-0.00000277,-0.00000838,-0.00000406,-0
 .00000726,0.00000109,0.00000127,0.00000767,0.00000504,-0.00001345,-0.0
 0000446,-0.00000102,-0.00000095,0.00000715,-0.00000332,-0.00000229,-0.
 00000406,-0.00000616,-0.00001211,0.00000020,-0.00000015,0.00000026,-0.
 00000021,0.00000014,0.00000192,-0.00000127,0.00000047,-0.00000485,0.00
 000042,-0.00000188,-0.00000458,-0.00000016,-0.00000118,-0.00000389,-0.
 00000306,-0.00000038,0.00000444,-0.00000108,0.00000296,-0.00000466,0.0
 0000298,-0.00000034,-0.00000345,0.00000420,0.00000083,0.00000221,0.000
 00182,0.00000154,0.00000045,-0.00000126,-0.00000107,0.00000304,-0.0000
 0552,-0.00000061,0.00000400\\\@


 WE LEARN WISDOM FROM FAILURE MUCH MORE THAN FROM SUCCESS.
 WE DISCOVER WHAT WILL DO BY FINDING OUT WHAT WILL NOT DO...
 AND HE WHO NEVER MADE A MISTAKE NEVER MADE A DISCOVERY
 Job cpu time:  1 days  8 hours  2 minutes 33.2 seconds.
 File lengths (MBytes):  RWF=   2370 Int=      0 D2E=      0 Chk=     37 Scr=      1
 Normal termination of Gaussian 09 at Sun Dec 29 05:38:04 2013.
