 Entering Gaussian System, Link 0=g09
 Initial command:
 /opt/gaussian/g09/l1.exe /panfs/panfs.cluster/home/shuo/Gau-12158.inp -scrdir=/panfs/panfs.cluster/home/shuo/
 Default is to use a total of  12 processors:
                               12 via shared-memory
                                1 via Linda
 Entering Link 1 = /opt/gaussian/g09/l1.exe PID=     12159.
  
 Copyright (c) 1988,1990,1992,1993,1995,1998,2003,2009,2011,
            Gaussian, Inc.  All Rights Reserved.
  
 This is part of the Gaussian(R) 09 program.  It is based on
 the Gaussian(R) 03 system (copyright 2003, Gaussian, Inc.),
 the Gaussian(R) 98 system (copyright 1998, Gaussian, Inc.),
 the Gaussian(R) 94 system (copyright 1995, Gaussian, Inc.),
 the Gaussian 92(TM) system (copyright 1992, Gaussian, Inc.),
 the Gaussian 90(TM) system (copyright 1990, Gaussian, Inc.),
 the Gaussian 88(TM) system (copyright 1988, Gaussian, Inc.),
 the Gaussian 86(TM) system (copyright 1986, Carnegie Mellon
 University), and the Gaussian 82(TM) system (copyright 1983,
 Carnegie Mellon University). Gaussian is a federally registered
 trademark of Gaussian, Inc.
  
 This software contains proprietary and confidential information,
 including trade secrets, belonging to Gaussian, Inc.
  
 This software is provided under written license and may be
 used, copied, transmitted, or stored only in accord with that
 written license.
  
 The following legend is applicable only to US Government
 contracts under FAR:
  
                    RESTRICTED RIGHTS LEGEND
  
 Use, reproduction and disclosure by the US Government is
 subject to restrictions as set forth in subparagraphs (a)
 and (c) of the Commercial Computer Software - Restricted
 Rights clause in FAR 52.227-19.
  
 Gaussian, Inc.
 340 Quinnipiac St., Bldg. 40, Wallingford CT 06492
  
  
 ---------------------------------------------------------------
 Warning -- This program may not be used in any manner that
 competes with the business of Gaussian, Inc. or will provide
 assistance to any competitor of Gaussian, Inc.  The licensee
 of this program is prohibited from giving any competitor of
 Gaussian, Inc. access to this program.  By using this program,
 the user acknowledges that Gaussian, Inc. is engaged in the
 business of creating and licensing software in the field of
 computational chemistry and represents and warrants to the
 licensee that it is not a competitor of Gaussian, Inc. and that
 it will not use this program in any manner prohibited above.
 ---------------------------------------------------------------
  

 Cite this work as:
 Gaussian 09, Revision C.01,
 M. J. Frisch, G. W. Trucks, H. B. Schlegel, G. E. Scuseria, 
 M. A. Robb, J. R. Cheeseman, G. Scalmani, V. Barone, B. Mennucci, 
 G. A. Petersson, H. Nakatsuji, M. Caricato, X. Li, H. P. Hratchian, 
 A. F. Izmaylov, J. Bloino, G. Zheng, J. L. Sonnenberg, M. Hada, 
 M. Ehara, K. Toyota, R. Fukuda, J. Hasegawa, M. Ishida, T. Nakajima, 
 Y. Honda, O. Kitao, H. Nakai, T. Vreven, J. A. Montgomery, Jr., 
 J. E. Peralta, F. Ogliaro, M. Bearpark, J. J. Heyd, E. Brothers, 
 K. N. Kudin, V. N. Staroverov, T. Keith, R. Kobayashi, J. Normand, 
 K. Raghavachari, A. Rendell, J. C. Burant, S. S. Iyengar, J. Tomasi, 
 M. Cossi, N. Rega, J. M. Millam, M. Klene, J. E. Knox, J. B. Cross, 
 V. Bakken, C. Adamo, J. Jaramillo, R. Gomperts, R. E. Stratmann, 
 O. Yazyev, A. J. Austin, R. Cammi, C. Pomelli, J. W. Ochterski, 
 R. L. Martin, K. Morokuma, V. G. Zakrzewski, G. A. Voth, 
 P. Salvador, J. J. Dannenberg, S. Dapprich, A. D. Daniels, 
 O. Farkas, J. B. Foresman, J. V. Ortiz, J. Cioslowski, 
 and D. J. Fox, Gaussian, Inc., Wallingford CT, 2010.
 
 ******************************************
 Gaussian 09:  EM64L-G09RevC.01 23-Sep-2011
                28-Dec-2013 
 ******************************************
 %chk=25_C26H14N4S2Si.chk
 %NProcShared=12
 Will use up to   12 processors via shared memory.
 %Mem=8000MB
 Default route:  MaxDisk=100GB
 --------------------------------------------
 #B3LYP/6-31++G(d,p) opt scf=direct freq test
 --------------------------------------------
 1/14=-1,18=20,19=15,26=3,38=1/1,3;
 2/9=110,12=2,17=6,18=5,40=1/2;
 3/5=1,6=6,7=1111,11=2,16=1,25=1,30=1,71=1,74=-5/1,2,3;
 4//1;
 5/5=2,38=5/2;
 6/7=2,8=2,9=2,10=2,28=1/1;
 7//1,2,3,16;
 1/14=-1,18=20,19=15/3(2);
 2/9=110/2;
 99//99;
 2/9=110/2;
 3/5=1,6=6,7=1111,11=2,16=1,25=1,30=1,71=1,74=-5/1,2,3;
 4/5=5,16=3/1;
 5/5=2,38=5/2;
 7//1,2,3,16;
 1/14=-1,18=20,19=15/3(-5);
 2/9=110/2;
 6/7=2,8=2,9=2,10=2,19=2,28=1/1;
 99/9=1/99;
 ----------------------------------------------------------------------
 Geom opt of No.25 candidate from the CEPDB database with SMILE code of
  c1scc2c1ccc1[nH]c3c(ncc4cc(cnc34)-c3cncc4nsnc34)c21, HPC, 20131227, S
 huo Dai, Gaussian09
 ----------------------------------------------------------------------
 Charge =  0 Multiplicity = 1
 Symbolic Z-Matrix:
 C                     2.44063   0.6476    0.12165 
 S                     3.66167  -0.38971  -0.07186 
 C                     3.06048   1.78994   0.35088 
 C                     4.27184   2.10761   0.40905 
 C                     4.30874   0.77332   0.15017 
 C                     6.0474    0.97967   0.18826 
 C                     6.94877   2.21055   0.42882 
 C                     6.24855   3.38169   0.65732 
 N                     6.51149   4.72022   0.91944 
 H                     7.41652   5.16791   1.00732 
 C                     5.30883   5.41388   1.05555 
 C                     4.27603   4.50024   0.87576 
 N                     2.95585   4.77969   0.92935 
 C                     2.65826   6.04876   1.17615 
 C                     3.59966   7.03082   1.3671 
 C                     3.20183   8.3218    1.61259 
 C                     4.16984   9.28448   1.83321 
 C                     5.51297   8.89924   1.76076 
 N                     5.95059   7.64525   1.49905 
 C                     4.97281   6.73698   1.31605 
 C                     3.7885    10.63958   2.11209 
 C                     4.48592   11.73346   1.60512 
 N                     4.22605   13.04558   1.84193 
 C                     3.17633   13.40349   2.63704 
 C                     2.36716   12.3991   3.19833 
 N                     1.29704   12.57109   3.98968 
 S                     0.73194   11.05682   4.36105 
 N                     1.82729   10.13064   3.54063 
 C                     2.68079   10.97482   2.92932 
 C                     4.89093   3.30094   0.64163 
 H                     1.44569   0.13336   0.02493 
 H                     2.14362   2.44376   0.47571 
 H                     6.72168   0.11512   0.02215 
 H                     8.04441   2.23865   0.43458 
 H                     1.59945   6.28015   1.22318 
 H                     2.14554   8.57992   1.64147 
 H                     6.29236   9.64199   1.92449 
 H                     5.33464   11.55068   0.94322 
 H                     3.00481   14.45285   2.80291 
 

 GradGradGradGradGradGradGradGradGradGradGradGradGradGradGradGradGradGrad
 Berny optimization.
 Initialization pass.
                           ----------------------------
                           !    Initial Parameters    !
                           ! (Angstroms and Degrees)  !
 --------------------------                            --------------------------
 ! Name  Definition              Value          Derivative Info.                !
 --------------------------------------------------------------------------------
 ! R1    R(1,2)                  1.6138         estimate D2E/DX2                !
 ! R2    R(1,3)                  1.3197         estimate D2E/DX2                !
 ! R3    R(1,5)                  1.8726         estimate D2E/DX2                !
 ! R4    R(1,31)                 1.1241         estimate D2E/DX2                !
 ! R5    R(2,5)                  1.3493         estimate D2E/DX2                !
 ! R6    R(3,4)                  1.2537         estimate D2E/DX2                !
 ! R7    R(3,5)                  1.6223         estimate D2E/DX2                !
 ! R8    R(3,32)                 1.133          estimate D2E/DX2                !
 ! R9    R(4,5)                  1.3597         estimate D2E/DX2                !
 ! R10   R(4,30)                 1.3643         estimate D2E/DX2                !
 ! R11   R(5,6)                  1.7513         estimate D2E/DX2                !
 ! R12   R(6,7)                  1.5445         estimate D2E/DX2                !
 ! R13   R(6,33)                 1.1089         estimate D2E/DX2                !
 ! R14   R(7,8)                  1.3835         estimate D2E/DX2                !
 ! R15   R(7,34)                 1.096          estimate D2E/DX2                !
 ! R16   R(8,9)                  1.3891         estimate D2E/DX2                !
 ! R17   R(8,30)                 1.3601         estimate D2E/DX2                !
 ! R18   R(9,10)                 1.0135         estimate D2E/DX2                !
 ! R19   R(9,11)                 1.395          estimate D2E/DX2                !
 ! R20   R(11,12)                1.3906         estimate D2E/DX2                !
 ! R21   R(11,20)                1.3897         estimate D2E/DX2                !
 ! R22   R(12,13)                1.3505         estimate D2E/DX2                !
 ! R23   R(12,30)                1.3679         estimate D2E/DX2                !
 ! R24   R(13,14)                1.3267         estimate D2E/DX2                !
 ! R25   R(14,15)                1.3737         estimate D2E/DX2                !
 ! R26   R(14,35)                1.0848         estimate D2E/DX2                !
 ! R27   R(15,16)                1.373          estimate D2E/DX2                !
 ! R28   R(15,20)                1.4052         estimate D2E/DX2                !
 ! R29   R(16,17)                1.3829         estimate D2E/DX2                !
 ! R30   R(16,36)                1.0878         estimate D2E/DX2                !
 ! R31   R(17,18)                1.3992         estimate D2E/DX2                !
 ! R32   R(17,21)                1.4351         estimate D2E/DX2                !
 ! R33   R(18,19)                1.3537         estimate D2E/DX2                !
 ! R34   R(18,37)                1.089          estimate D2E/DX2                !
 ! R35   R(19,20)                1.347          estimate D2E/DX2                !
 ! R36   R(21,22)                1.3928         estimate D2E/DX2                !
 ! R37   R(21,29)                1.4168         estimate D2E/DX2                !
 ! R38   R(22,23)                1.3584         estimate D2E/DX2                !
 ! R39   R(22,38)                1.0917         estimate D2E/DX2                !
 ! R40   R(23,24)                1.3646         estimate D2E/DX2                !
 ! R41   R(24,25)                1.4066         estimate D2E/DX2                !
 ! R42   R(24,39)                1.0761         estimate D2E/DX2                !
 ! R43   R(25,26)                1.342          estimate D2E/DX2                !
 ! R44   R(25,29)                1.483          estimate D2E/DX2                !
 ! R45   R(26,27)                1.6584         estimate D2E/DX2                !
 ! R46   R(27,28)                1.6525         estimate D2E/DX2                !
 ! R47   R(28,29)                1.3471         estimate D2E/DX2                !
 ! A1    A(2,1,3)              102.8166         estimate D2E/DX2                !
 ! A2    A(2,1,31)             111.4262         estimate D2E/DX2                !
 ! A3    A(3,1,31)             145.751          estimate D2E/DX2                !
 ! A4    A(5,1,31)             156.2038         estimate D2E/DX2                !
 ! A5    A(1,3,4)              132.9388         estimate D2E/DX2                !
 ! A6    A(1,3,32)              97.9645         estimate D2E/DX2                !
 ! A7    A(4,3,32)             129.0931         estimate D2E/DX2                !
 ! A8    A(3,4,30)             131.9125         estimate D2E/DX2                !
 ! A9    A(5,4,30)             151.4591         estimate D2E/DX2                !
 ! A10   A(1,5,4)               92.3905         estimate D2E/DX2                !
 ! A11   A(2,5,3)              101.0407         estimate D2E/DX2                !
 ! A12   A(2,5,4)              149.788          estimate D2E/DX2                !
 ! A13   A(2,5,6)              125.538          estimate D2E/DX2                !
 ! A14   A(3,5,6)              133.421          estimate D2E/DX2                !
 ! A15   A(4,5,6)               84.6738         estimate D2E/DX2                !
 ! A16   A(5,6,7)              132.586          estimate D2E/DX2                !
 ! A17   A(5,6,33)             120.5674         estimate D2E/DX2                !
 ! A18   A(7,6,33)             106.8461         estimate D2E/DX2                !
 ! A19   A(6,7,8)              113.8895         estimate D2E/DX2                !
 ! A20   A(6,7,34)             127.2044         estimate D2E/DX2                !
 ! A21   A(8,7,34)             118.9061         estimate D2E/DX2                !
 ! A22   A(7,8,9)              138.6828         estimate D2E/DX2                !
 ! A23   A(7,8,30)             116.9383         estimate D2E/DX2                !
 ! A24   A(9,8,30)             104.3789         estimate D2E/DX2                !
 ! A25   A(8,9,10)             127.6646         estimate D2E/DX2                !
 ! A26   A(8,9,11)             109.5342         estimate D2E/DX2                !
 ! A27   A(10,9,11)            122.8012         estimate D2E/DX2                !
 ! A28   A(9,11,12)            107.5168         estimate D2E/DX2                !
 ! A29   A(9,11,20)            134.4378         estimate D2E/DX2                !
 ! A30   A(12,11,20)           118.0455         estimate D2E/DX2                !
 ! A31   A(11,12,13)           125.7996         estimate D2E/DX2                !
 ! A32   A(11,12,30)           105.3252         estimate D2E/DX2                !
 ! A33   A(13,12,30)           128.8753         estimate D2E/DX2                !
 ! A34   A(12,13,14)           115.1257         estimate D2E/DX2                !
 ! A35   A(13,14,15)           123.7791         estimate D2E/DX2                !
 ! A36   A(13,14,35)           115.5338         estimate D2E/DX2                !
 ! A37   A(15,14,35)           120.687          estimate D2E/DX2                !
 ! A38   A(14,15,16)           119.8985         estimate D2E/DX2                !
 ! A39   A(14,15,20)           121.0062         estimate D2E/DX2                !
 ! A40   A(16,15,20)           119.0953         estimate D2E/DX2                !
 ! A41   A(15,16,17)           118.7008         estimate D2E/DX2                !
 ! A42   A(15,16,36)           120.6128         estimate D2E/DX2                !
 ! A43   A(17,16,36)           120.6842         estimate D2E/DX2                !
 ! A44   A(16,17,18)           118.1652         estimate D2E/DX2                !
 ! A45   A(16,17,21)           120.1536         estimate D2E/DX2                !
 ! A46   A(18,17,21)           121.6773         estimate D2E/DX2                !
 ! A47   A(17,18,19)           125.1275         estimate D2E/DX2                !
 ! A48   A(17,18,37)           119.436          estimate D2E/DX2                !
 ! A49   A(19,18,37)           115.4364         estimate D2E/DX2                !
 ! A50   A(18,19,20)           114.5959         estimate D2E/DX2                !
 ! A51   A(11,20,15)           116.2428         estimate D2E/DX2                !
 ! A52   A(11,20,19)           119.4657         estimate D2E/DX2                !
 ! A53   A(15,20,19)           124.2914         estimate D2E/DX2                !
 ! A54   A(17,21,22)           122.534          estimate D2E/DX2                !
 ! A55   A(17,21,29)           122.9073         estimate D2E/DX2                !
 ! A56   A(22,21,29)           114.5576         estimate D2E/DX2                !
 ! A57   A(21,22,23)           126.824          estimate D2E/DX2                !
 ! A58   A(21,22,38)           118.5849         estimate D2E/DX2                !
 ! A59   A(23,22,38)           114.591          estimate D2E/DX2                !
 ! A60   A(22,23,24)           120.1372         estimate D2E/DX2                !
 ! A61   A(23,24,25)           119.1914         estimate D2E/DX2                !
 ! A62   A(23,24,39)           117.9148         estimate D2E/DX2                !
 ! A63   A(25,24,39)           122.8934         estimate D2E/DX2                !
 ! A64   A(24,25,26)           127.0492         estimate D2E/DX2                !
 ! A65   A(24,25,29)           119.4541         estimate D2E/DX2                !
 ! A66   A(26,25,29)           113.4961         estimate D2E/DX2                !
 ! A67   A(25,26,27)           106.6631         estimate D2E/DX2                !
 ! A68   A(26,27,28)           100.0626         estimate D2E/DX2                !
 ! A69   A(27,28,29)           107.0994         estimate D2E/DX2                !
 ! A70   A(21,29,25)           119.817          estimate D2E/DX2                !
 ! A71   A(21,29,28)           127.5045         estimate D2E/DX2                !
 ! A72   A(25,29,28)           112.6765         estimate D2E/DX2                !
 ! A73   A(4,30,8)             120.4531         estimate D2E/DX2                !
 ! A74   A(4,30,12)            126.302          estimate D2E/DX2                !
 ! A75   A(8,30,12)            113.2449         estimate D2E/DX2                !
 ! A76   L(5,3,32,1,-1)        176.2803         estimate D2E/DX2                !
 ! A77   L(1,5,6,4,-1)         177.0643         estimate D2E/DX2                !
 ! A78   L(5,3,32,1,-2)        180.2025         estimate D2E/DX2                !
 ! A79   L(1,5,6,4,-2)         180.1869         estimate D2E/DX2                !
 ! D1    D(2,1,3,4)              0.8641         estimate D2E/DX2                !
 ! D2    D(2,1,3,32)          -179.7961         estimate D2E/DX2                !
 ! D3    D(31,1,3,4)           179.7667         estimate D2E/DX2                !
 ! D4    D(31,1,3,32)           -0.8935         estimate D2E/DX2                !
 ! D5    D(31,1,5,4)          -179.3454         estimate D2E/DX2                !
 ! D6    D(31,1,6,7)          -179.4617         estimate D2E/DX2                !
 ! D7    D(31,1,6,33)            0.4072         estimate D2E/DX2                !
 ! D8    D(1,3,4,30)           179.611          estimate D2E/DX2                !
 ! D9    D(32,3,4,30)            0.4535         estimate D2E/DX2                !
 ! D10   D(30,4,5,1)          -179.9664         estimate D2E/DX2                !
 ! D11   D(30,4,5,2)           179.6094         estimate D2E/DX2                !
 ! D12   D(30,4,5,6)            -0.1533         estimate D2E/DX2                !
 ! D13   D(3,4,30,8)           179.7766         estimate D2E/DX2                !
 ! D14   D(3,4,30,12)           -0.206          estimate D2E/DX2                !
 ! D15   D(5,4,30,8)             0.1039         estimate D2E/DX2                !
 ! D16   D(5,4,30,12)         -179.8787         estimate D2E/DX2                !
 ! D17   D(2,5,6,7)           -179.7154         estimate D2E/DX2                !
 ! D18   D(2,5,6,33)             0.0079         estimate D2E/DX2                !
 ! D19   D(3,5,6,7)              0.0375         estimate D2E/DX2                !
 ! D20   D(3,5,6,33)           179.7608         estimate D2E/DX2                !
 ! D21   D(4,5,6,7)              0.1379         estimate D2E/DX2                !
 ! D22   D(4,5,6,33)           179.8612         estimate D2E/DX2                !
 ! D23   D(5,6,7,8)             -0.1147         estimate D2E/DX2                !
 ! D24   D(5,6,7,34)           179.8851         estimate D2E/DX2                !
 ! D25   D(33,6,7,8)          -179.8658         estimate D2E/DX2                !
 ! D26   D(33,6,7,34)            0.134          estimate D2E/DX2                !
 ! D27   D(6,7,8,9)            179.9572         estimate D2E/DX2                !
 ! D28   D(6,7,8,30)             0.0191         estimate D2E/DX2                !
 ! D29   D(34,7,8,9)            -0.0426         estimate D2E/DX2                !
 ! D30   D(34,7,8,30)         -179.9807         estimate D2E/DX2                !
 ! D31   D(7,8,9,10)             0.037          estimate D2E/DX2                !
 ! D32   D(7,8,9,11)          -179.9366         estimate D2E/DX2                !
 ! D33   D(30,8,9,10)          179.98           estimate D2E/DX2                !
 ! D34   D(30,8,9,11)            0.0064         estimate D2E/DX2                !
 ! D35   D(7,8,30,4)             0.009          estimate D2E/DX2                !
 ! D36   D(7,8,30,12)          179.9937         estimate D2E/DX2                !
 ! D37   D(9,8,30,4)          -179.9488         estimate D2E/DX2                !
 ! D38   D(9,8,30,12)            0.0359         estimate D2E/DX2                !
 ! D39   D(8,9,11,12)           -0.0445         estimate D2E/DX2                !
 ! D40   D(8,9,11,20)          179.9275         estimate D2E/DX2                !
 ! D41   D(10,9,11,12)         179.9804         estimate D2E/DX2                !
 ! D42   D(10,9,11,20)          -0.0477         estimate D2E/DX2                !
 ! D43   D(9,11,12,13)        -179.9446         estimate D2E/DX2                !
 ! D44   D(9,11,12,30)           0.0633         estimate D2E/DX2                !
 ! D45   D(20,11,12,13)          0.0781         estimate D2E/DX2                !
 ! D46   D(20,11,12,30)       -179.914          estimate D2E/DX2                !
 ! D47   D(9,11,20,15)         179.7226         estimate D2E/DX2                !
 ! D48   D(9,11,20,19)          -0.174          estimate D2E/DX2                !
 ! D49   D(12,11,20,15)         -0.3077         estimate D2E/DX2                !
 ! D50   D(12,11,20,19)        179.7957         estimate D2E/DX2                !
 ! D51   D(11,12,13,14)          0.0678         estimate D2E/DX2                !
 ! D52   D(30,12,13,14)       -179.9419         estimate D2E/DX2                !
 ! D53   D(11,12,30,4)         179.9205         estimate D2E/DX2                !
 ! D54   D(11,12,30,8)          -0.0632         estimate D2E/DX2                !
 ! D55   D(13,12,30,4)          -0.0713         estimate D2E/DX2                !
 ! D56   D(13,12,30,8)         179.9451         estimate D2E/DX2                !
 ! D57   D(12,13,14,15)          0.0364         estimate D2E/DX2                !
 ! D58   D(12,13,14,35)       -179.8486         estimate D2E/DX2                !
 ! D59   D(13,14,15,16)        179.7366         estimate D2E/DX2                !
 ! D60   D(13,14,15,20)         -0.2864         estimate D2E/DX2                !
 ! D61   D(35,14,15,16)         -0.384          estimate D2E/DX2                !
 ! D62   D(35,14,15,20)        179.593          estimate D2E/DX2                !
 ! D63   D(14,15,16,17)        178.4556         estimate D2E/DX2                !
 ! D64   D(14,15,16,36)         -1.0162         estimate D2E/DX2                !
 ! D65   D(20,15,16,17)         -1.5219         estimate D2E/DX2                !
 ! D66   D(20,15,16,36)        179.0064         estimate D2E/DX2                !
 ! D67   D(14,15,20,11)          0.4125         estimate D2E/DX2                !
 ! D68   D(14,15,20,19)       -179.6964         estimate D2E/DX2                !
 ! D69   D(16,15,20,11)       -179.6103         estimate D2E/DX2                !
 ! D70   D(16,15,20,19)          0.2808         estimate D2E/DX2                !
 ! D71   D(15,16,17,18)          1.6193         estimate D2E/DX2                !
 ! D72   D(15,16,17,21)       -179.0892         estimate D2E/DX2                !
 ! D73   D(36,16,17,18)       -178.9093         estimate D2E/DX2                !
 ! D74   D(36,16,17,21)          0.3821         estimate D2E/DX2                !
 ! D75   D(16,17,18,19)         -0.5118         estimate D2E/DX2                !
 ! D76   D(16,17,18,37)        179.5996         estimate D2E/DX2                !
 ! D77   D(21,17,18,19)       -179.7919         estimate D2E/DX2                !
 ! D78   D(21,17,18,37)          0.3196         estimate D2E/DX2                !
 ! D79   D(16,17,21,22)       -141.3074         estimate D2E/DX2                !
 ! D80   D(16,17,21,29)         39.0911         estimate D2E/DX2                !
 ! D81   D(18,17,21,22)         37.9586         estimate D2E/DX2                !
 ! D82   D(18,17,21,29)       -141.6429         estimate D2E/DX2                !
 ! D83   D(17,18,19,20)         -0.69           estimate D2E/DX2                !
 ! D84   D(37,18,19,20)        179.2026         estimate D2E/DX2                !
 ! D85   D(18,19,20,11)       -179.3046         estimate D2E/DX2                !
 ! D86   D(18,19,20,15)          0.8076         estimate D2E/DX2                !
 ! D87   D(17,21,22,23)       -178.022          estimate D2E/DX2                !
 ! D88   D(17,21,22,38)          2.1092         estimate D2E/DX2                !
 ! D89   D(29,21,22,23)          1.6102         estimate D2E/DX2                !
 ! D90   D(29,21,22,38)       -178.2586         estimate D2E/DX2                !
 ! D91   D(17,21,29,25)        178.5575         estimate D2E/DX2                !
 ! D92   D(17,21,29,28)         -0.8868         estimate D2E/DX2                !
 ! D93   D(22,21,29,25)         -1.0731         estimate D2E/DX2                !
 ! D94   D(22,21,29,28)        179.4826         estimate D2E/DX2                !
 ! D95   D(21,22,23,24)         -0.9146         estimate D2E/DX2                !
 ! D96   D(38,22,23,24)        178.9586         estimate D2E/DX2                !
 ! D97   D(22,23,24,25)         -0.3659         estimate D2E/DX2                !
 ! D98   D(22,23,24,39)        179.8272         estimate D2E/DX2                !
 ! D99   D(23,24,25,26)       -179.5094         estimate D2E/DX2                !
 ! D100  D(23,24,25,29)          0.7707         estimate D2E/DX2                !
 ! D101  D(39,24,25,26)          0.2874         estimate D2E/DX2                !
 ! D102  D(39,24,25,29)       -179.4325         estimate D2E/DX2                !
 ! D103  D(24,25,26,27)       -179.8269         estimate D2E/DX2                !
 ! D104  D(29,25,26,27)         -0.0929         estimate D2E/DX2                !
 ! D105  D(24,25,29,21)         -0.0124         estimate D2E/DX2                !
 ! D106  D(24,25,29,28)        179.5098         estimate D2E/DX2                !
 ! D107  D(26,25,29,21)       -179.7687         estimate D2E/DX2                !
 ! D108  D(26,25,29,28)         -0.2464         estimate D2E/DX2                !
 ! D109  D(25,26,27,28)          0.3214         estimate D2E/DX2                !
 ! D110  D(26,27,28,29)         -0.4615         estimate D2E/DX2                !
 ! D111  D(27,28,29,21)        179.9298         estimate D2E/DX2                !
 ! D112  D(27,28,29,25)          0.4523         estimate D2E/DX2                !
 --------------------------------------------------------------------------------
 Trust Radius=3.00D-01 FncErr=1.00D-07 GrdErr=1.00D-06
 Number of steps in this run=    234 maximum allowed number of steps=    234.
 GradGradGradGradGradGradGradGradGradGradGradGradGradGradGradGradGradGrad

                          Input orientation:                          
 ---------------------------------------------------------------------
 Center     Atomic      Atomic             Coordinates (Angstroms)
 Number     Number       Type             X           Y           Z
 ---------------------------------------------------------------------
      1          6           0        2.440630    0.647600    0.121650
      2         16           0        3.661670   -0.389710   -0.071860
      3          6           0        3.060480    1.789940    0.350880
      4          6           0        4.271840    2.107610    0.409050
      5          6           0        4.308740    0.773320    0.150170
      6          6           0        6.047400    0.979670    0.188260
      7          6           0        6.948770    2.210550    0.428820
      8          6           0        6.248550    3.381690    0.657320
      9          7           0        6.511490    4.720220    0.919440
     10          1           0        7.416520    5.167910    1.007320
     11          6           0        5.308830    5.413880    1.055550
     12          6           0        4.276030    4.500240    0.875760
     13          7           0        2.955850    4.779690    0.929350
     14          6           0        2.658260    6.048760    1.176150
     15          6           0        3.599660    7.030820    1.367100
     16          6           0        3.201830    8.321800    1.612590
     17          6           0        4.169840    9.284480    1.833210
     18          6           0        5.512970    8.899240    1.760760
     19          7           0        5.950590    7.645250    1.499050
     20          6           0        4.972810    6.736980    1.316050
     21          6           0        3.788500   10.639580    2.112090
     22          6           0        4.485920   11.733460    1.605120
     23          7           0        4.226050   13.045580    1.841930
     24          6           0        3.176330   13.403490    2.637040
     25          6           0        2.367160   12.399100    3.198330
     26          7           0        1.297040   12.571090    3.989680
     27         16           0        0.731940   11.056820    4.361050
     28          7           0        1.827290   10.130640    3.540630
     29          6           0        2.680790   10.974820    2.929320
     30          6           0        4.890930    3.300940    0.641630
     31          1           0        1.445690    0.133360    0.024930
     32          1           0        2.143620    2.443760    0.475710
     33          1           0        6.721680    0.115120    0.022150
     34          1           0        8.044410    2.238650    0.434580
     35          1           0        1.599450    6.280150    1.223180
     36          1           0        2.145540    8.579920    1.641470
     37          1           0        6.292360    9.641990    1.924490
     38          1           0        5.334640   11.550680    0.943220
     39          1           0        3.004810   14.452850    2.802910
 ---------------------------------------------------------------------
                    Distance matrix (angstroms):
                    1          2          3          4          5
     1  C    0.000000
     2  S    1.613814   0.000000
     3  C    1.319735   2.300220   0.000000
     4  C    2.359567   2.615376   1.253671   0.000000
     5  C    1.872553   1.349309   1.622330   1.359673   0.000000
     6  C    3.622637   2.763073   3.099141   2.115091   1.751277
     7  C    4.781265   4.221026   3.911750   2.678981   3.018780
     8  C    4.718310   4.631102   3.576502   2.364804   3.289933
     9  N    5.813313   5.934268   4.562814   3.478830   4.584965
    10  H    6.780641   6.793428   5.551277   4.428586   5.450268
    11  C    5.640582   6.137251   4.322566   3.524873   4.832669
    12  C    4.333614   5.018668   3.016420   2.437727   3.797036
    13  N    4.241698   5.312561   3.046995   3.023666   4.299818
    14  C    5.507437   6.634626   4.356650   4.327210   5.622009
    15  C    6.606057   7.559016   5.365654   5.060403   6.414049
    16  C    7.854659   8.884775   6.654103   6.419469   7.768106
    17  C    8.973032   9.873068   7.719852   7.317520   8.677083
    18  C    8.956312   9.647300   7.651445   7.035180   8.371066
    19  N    7.948846   8.501029   6.629908   5.888273   7.192953
    20  C    6.702169   7.378014   5.390896   4.769180   6.112733
    21  C   10.277075  11.244152   9.052514   8.713695  10.072878
    22  C   11.370145  12.266332  10.123171   9.702237  11.057710
    23  N   12.643457  13.582641  11.413642  11.031520  12.388594
    24  C   13.022334  14.065065  11.836997  11.565508  12.922386
    25  C   12.147803  13.263618  11.006495  10.831558  12.174554
    26  N   12.587258  13.786585  11.514503  11.452282  12.767128
    27  S   11.368553  12.619709  10.362366  10.403728  11.673705
    28  N   10.099191  11.273544   9.014574   8.952744  10.257302
    29  C   10.704773  11.794988   9.547489   9.354711  10.697874
    30  C    3.648913   3.954876   2.391277   1.364332   2.639951
    31  H    1.124146   2.278933   2.336246   3.468766   2.936373
    32  H    1.854660   3.260807   1.133003   2.155635   2.753923
    33  H    4.315185   3.102798   4.039489   3.181419   2.504375
    34  H    5.833671   5.135481   5.004788   3.774931   4.022849
    35  H    5.800566   7.100487   4.801823   5.021411   6.230311
    36  H    8.081994   9.256804   6.971841   6.923208   8.236893
    37  H    9.949126  10.561295   8.635739   7.946442   9.259388
    38  H   11.310501  12.099675  10.039657   9.517692  10.855086
    39  H   14.074530  15.132659  12.898249  12.638864  13.995242
                    6          7          8          9         10
     6  C    0.000000
     7  C    1.544475   0.000000
     8  C    2.455642   1.383506   0.000000
     9  N    3.839495   2.594295   1.389067   0.000000
    10  H    4.481819   3.049497   2.162692   1.013523   0.000000
    11  C    4.578198   3.652878   2.274084   1.395020   2.122542
    12  C    4.000603   3.547672   2.278092   2.246682   3.213373
    13  N    4.954498   4.774350   3.587517   3.556151   4.478211
    14  C    6.177206   5.805070   4.502514   4.083907   4.842049
    15  C    6.633062   5.944065   4.564708   3.744065   4.262428
    16  C    8.002053   7.265552   5.882154   4.940211   5.298772
    17  C    8.671849   7.728858   6.367628   5.210640   5.307464
    18  C    8.091845   6.969516   5.674682   4.378250   4.256054
    19  N    6.793931   5.628296   4.356057   3.034198   2.920268
    20  C    5.964333   5.017984   3.649577   2.567520   2.920447
    21  C   10.105326   9.158016   7.800331   6.623889   6.657493
    22  C   10.958545   9.906318   8.588204   7.332027   7.214723
    23  N   12.314143  11.260904   9.944072   8.682502   8.540103
    24  C   12.984255  12.016216  10.667441   9.458997   9.405316
    25  C   12.369643  11.509469  10.140789   9.018537   9.087721
    26  N   13.091132  12.327310  10.957516   9.912266  10.057315
    27  S   12.133229  11.505125  10.151760   9.241232   9.518948
    28  N   10.620168   9.931805   8.567925   7.621352   7.892138
    29  C   10.897270  10.063825   8.691750   7.604860   7.735724
    30  C    2.632729   2.338577   1.360110   2.172038   3.161947
    31  H    4.681736   5.895908   5.832583   6.892152   7.871632
    32  H    4.179197   4.811034   4.214635   4.945448   5.958781
    33  H    1.108915   2.146573   3.361216   4.696409   5.194617
    34  H    2.373553   1.096015   2.140389   2.956877   3.050056
    35  H    6.996457   6.768152   5.507758   5.162730   5.926380
    36  H    8.666033   8.069102   6.695135   5.871978   6.310879
    37  H    8.838002   7.608824   6.387409   5.028117   4.703438
    38  H   10.621876   9.492526   8.224924   6.931142   6.714022
    39  H   14.057750  13.079183  11.734393  10.515149  10.435394
                   11         12         13         14         15
    11  C    0.000000
    12  C    1.390589   0.000000
    13  N    2.440213   1.350496   0.000000
    14  C    2.728212   2.259497   1.326653   0.000000
    15  C    2.373356   2.665094   2.381954   1.373731   0.000000
    16  C    3.633970   4.037468   3.615780   2.377532   1.373013
    17  C    4.108966   4.880260   4.752249   3.631320   2.370938
    18  C    3.561843   4.654508   4.919431   4.076319   2.703094
    19  N    2.363802   3.617144   4.183833   3.673211   2.433476
    20  C    1.389735   2.383771   2.837014   2.418752   1.405165
    21  C    5.543972   6.281536   6.035768   4.819653   3.689691
    22  C    6.396585   7.272929   7.152111   5.986666   4.791339
    23  N    7.748139   8.599931   8.412559   7.201161   6.065902
    24  C    8.419177   9.142172   8.794017   7.516292   6.511749
    25  C    7.876435   8.451633   7.971840   6.670890   5.804385
    26  N    8.713738   9.149290   8.533650   7.232542   6.547868
    27  S    7.982294   8.227792   7.491642   6.239789   5.778947
    28  N    6.367462   6.693225   6.060123   4.789887   4.180241
    29  C    6.429748   6.977255   6.515763   5.228784   4.340506
    30  C    2.193282   1.367933   2.452350   3.580648   4.013189
    31  H    6.623437   5.272986   4.968595   6.147161   7.349555
    32  H    4.379085   2.989368   2.514374   3.708301   4.894461
    33  H    5.580405   5.093047   6.063225   7.283624   7.706024
    34  H    4.236872   4.417026   5.709214   6.639087   6.602294
    35  H    3.812876   3.233088   2.043902   1.084819   2.141275
    36  H    4.513703   4.665736   3.950375   2.624152   2.142301
    37  H    4.427110   5.621656   5.980348   5.165075   3.792035
    38  H    6.137882   7.129790   7.176708   6.122776   4.859935
    39  H    9.490245  10.216866   9.853053   8.567098   7.583002
                   16         17         18         19         20
    16  C    0.000000
    17  C    1.382921   0.000000
    18  C    2.386789   1.399163   0.000000
    19  N    2.833071   2.443319   1.353697   0.000000
    20  C    2.394987   2.720656   2.272643   1.347033   0.000000
    21  C    2.442496   1.435092   2.475078   3.743857   4.155305
    22  C    3.645321   2.479805   3.018586   4.343958   5.028463
    23  N    4.838979   3.761530   4.342221   5.679363   6.374373
    24  C    5.183987   4.312708   5.149371   6.492216   7.029560
    25  C    4.453720   3.848904   4.920543   6.190930   6.510913
    26  N    5.228312   4.868793   6.018690   7.219603   7.395703
    27  S    4.597252   4.620641   5.854478   6.860332   6.776284
    28  N    2.979698   3.019737   4.274169   5.229418   5.134197
    29  C    3.007287   2.505190   3.700650   4.880912   5.080874
    30  C    5.385616   6.143499   5.742852   4.553139   3.502559
    31  H    8.523804   9.717709   9.818173   8.882322   7.597063
    32  H    6.079775   7.262494   7.394396   6.526541   5.209820
    33  H    9.070195   9.688601   9.035735   7.712242   6.970061
    34  H    7.864032   8.161628   7.247786   5.894786   5.517852
    35  H    2.624423   4.000630   4.739648   4.568591   3.405419
    36  H    1.087754   2.151966   3.384639   3.920752   3.390543
    37  H    3.375138   2.154353   1.089006   2.069970   3.248152
    38  H    3.927162   2.698982   2.780343   3.992584   4.841656
    39  H    6.248636   5.386062   6.182194   7.531340   8.100520
                   21         22         23         24         25
    21  C    0.000000
    22  C    1.392834   0.000000
    23  N    2.460340   1.358407   0.000000
    24  C    2.879153   2.359849   1.364629   0.000000
    25  C    2.509190   2.733229   2.390236   1.406628   0.000000
    26  N    3.669257   4.068993   3.662932   2.460540   1.342003
    27  S    3.817652   4.705885   4.744464   3.801857   2.414038
    28  N    2.479131   3.658353   4.139626   3.653482   2.356807
    29  C    1.416782   2.363797   2.803265   2.495882   1.483005
    30  C    7.565265   8.497043   9.840772  10.439494   9.781751
    31  H   10.964746  12.095550  13.332566  13.635050  12.703069
    32  H    8.517913   9.646785  10.890439  11.218445  10.323344
    33  H   11.123653  11.936928  13.294230  13.999569  13.414400
    34  H    9.565690  10.207078  11.547738  12.377507  11.962618
    35  H    4.958501   6.181923   7.283744   7.431522   6.475503
    36  H    2.676378   3.927278   4.930601   5.031949   4.130262
    37  H    2.701795   2.781990   3.982572   4.936218   4.963015
    38  H    2.141707   1.091717   2.066731   3.310624   3.822470
    39  H    3.953787   3.320161   2.096502   1.076145   2.186514
                   26         27         28         29         30
    26  N    0.000000
    27  S    1.658393   0.000000
    28  N    2.537441   1.652480   0.000000
    29  C    2.363727   2.419626   1.347146   0.000000
    30  C   10.491004   9.554316   8.027135   8.307026   0.000000
    31  H   13.055208  11.774267  10.604309  11.291510   4.720547
    32  H   10.753023   9.553717   8.281420   8.893129   2.882707
    33  H   14.153417  13.206962  11.689542  11.946276   3.726238
    34  H   12.842315  12.109893  10.515875  10.550489   3.334031
    35  H    6.879019   5.780604   4.499862   5.110786   4.477470
    36  H    4.707811   3.940738   2.472413   2.771389   6.033612
    37  H    6.147996   6.233525   4.773629   3.978638   6.619566
    38  H    5.159881   5.754156   4.589614   3.364391   8.267167
    39  H    2.804625   4.373415   4.540075   3.495377  11.514933
                   31         32         33         34         35
    31  H    0.000000
    32  H    2.455251   0.000000
    33  H    5.276022   5.156250   0.000000
    34  H    6.938528   5.904497   2.535566   0.000000
    35  H    6.264381   3.946229   8.104771   7.648080   0.000000
    36  H    8.628289   6.245915   9.757873   8.744424   2.400442
    37  H   10.840322   8.433595   9.724426   7.752352   5.815257
    38  H   12.096379   9.661116  11.556136   9.711615   6.465950
    39  H   14.669554  12.262779  15.070443  13.423607   8.441778
                   36         37         38         39
    36  H    0.000000
    37  H    4.290013   0.000000
    38  H    4.413992   2.350152   0.000000
    39  H    6.048024   5.892706   4.160426   0.000000
 Stoichiometry    C21H10N6S2
 Framework group  C1[X(C21H10N6S2)]
 Deg. of freedom   111
 Full point group                 C1      NOp   1
 Largest Abelian subgroup         C1      NOp   1
 Largest concise Abelian subgroup C1      NOp   1
                         Standard orientation:                         
 ---------------------------------------------------------------------
 Center     Atomic      Atomic             Coordinates (Angstroms)
 Number     Number       Type             X           Y           Z
 ---------------------------------------------------------------------
      1          6           0       -5.786188    2.363419   -0.543938
      2         16           0       -7.032520    1.407182   -0.174255
      3          6           0       -4.747322    1.565449   -0.383620
      4          6           0       -4.638485    0.361294   -0.052173
      5          6           0       -5.980480    0.577014   -0.017189
      6          6           0       -6.073351   -1.103727    0.465979
      7          6           0       -4.995747   -2.185481    0.698322
      8          6           0       -3.702696   -1.744000    0.481060
      9          7           0       -2.407393   -2.243043    0.532563
     10          1           0       -2.114593   -3.181351    0.779699
     11          6           0       -1.505859   -1.237467    0.183090
     12          6           0       -2.243501   -0.091380   -0.092787
     13          7           0       -1.736942    1.102432   -0.469682
     14          6           0       -0.415265    1.145221   -0.576213
     15          6           0        0.406042    0.072088   -0.329279
     16          6           0        1.765469    0.204107   -0.469615
     17          6           0        2.571320   -0.882720   -0.183469
     18          6           0        1.955342   -2.077946    0.203393
     19          7           0        0.620140   -2.259932    0.332275
     20          6           0       -0.122670   -1.167791    0.067777
     21          6           0        3.997435   -0.773428   -0.300690
     22          6           0        4.789244   -1.804911   -0.799757
     23          7           0        6.142855   -1.810094   -0.913692
     24          6           0        6.866536   -0.717108   -0.534381
     25          6           0        6.192940    0.411691   -0.033697
     26          7           0        6.742254    1.566381    0.373632
     27         16           0        5.493106    2.539286    0.866942
     28          7           0        4.214377    1.529727    0.590660
     29          6           0        4.715152    0.384746    0.087624
     30          6           0       -3.550113   -0.447058    0.100851
     31          1           0       -6.129111    3.400059   -0.811302
     32          1           0       -3.935711    2.307845   -0.655342
     33          1           0       -7.054299   -1.577613    0.673020
     34          1           0       -5.155918   -3.225124    1.006117
     35          1           0       -0.001049    2.101933   -0.876147
     36          1           0        2.200062    1.147982   -0.791233
     37          1           0        2.569846   -2.948704    0.427223
     38          1           0        4.300717   -2.717887   -1.145680
     39          1           0        7.936842   -0.761014   -0.637362
 ---------------------------------------------------------------------
 Rotational constants (GHZ):      0.4668518      0.0571339      0.0519173
 Standard basis: 6-31++G(d,p) (6D, 7F)
 There are   619 symmetry adapted basis functions of A   symmetry.
 Integral buffers will be    131072 words long.
 Raffenetti 2 integral format.
 Two-electron integral symmetry is turned on.
   619 basis functions,  1056 primitive gaussians,   619 cartesian basis functions
   105 alpha electrons      105 beta electrons
       nuclear repulsion energy      2690.7701390488 Hartrees.
 NAtoms=   39 NActive=   39 NUniq=   39 SFac= 1.00D+00 NAtFMM=   60 NAOKFM=F Big=F
 One-electron integrals computed using PRISM.
 NBasis=   619 RedAO= T  NBF=   619
 NBsUse=   609 1.00D-06 NBFU=   609
 Harris functional with IExCor=  402 diagonalized for initial guess.
 ExpMin= 3.60D-02 ExpMax= 2.19D+04 ExpMxC= 3.30D+03 IAcc=3 IRadAn=         5 AccDes= 0.00D+00
 HarFok:  IExCor=  402 AccDes= 0.00D+00 IRadAn=         5 IDoV= 1
 ScaDFX=  1.000000  1.000000  1.000000  1.000000
 FoFCou: FMM=F IPFlag=           0 FMFlag=      100000 FMFlg1=           0
         NFxFlg=           0 DoJE=T BraDBF=F KetDBF=T FulRan=T
         Omega=  0.000000  0.000000  1.000000  0.000000  0.000000 ICntrl=     500 IOpCl=  0
         NMat0=    1 NMatS0=    1 NMatT0=    0 NMatD0=    1 NMtDS0=    0 NMtDT0=    0
         I1Cent=           4 NGrid=           0.
 Petite list used in FoFCou.
 Initial guess orbital symmetries:
       Occupied  (A) (A) (A) (A) (A) (A) (A) (A) (A) (A) (A) (A)
                 (A) (A) (A) (A) (A) (A) (A) (A) (A) (A) (A) (A)
                 (A) (A) (A) (A) (A) (A) (A) (A) (A) (A) (A) (A)
                 (A) (A) (A) (A) (A) (A) (A) (A) (A) (A) (A) (A)
                 (A) (A) (A) (A) (A) (A) (A) (A) (A) (A) (A) (A)
                 (A) (A) (A) (A) (A) (A) (A) (A) (A) (A) (A) (A)
                 (A) (A) (A) (A) (A) (A) (A) (A) (A) (A) (A) (A)
                 (A) (A) (A) (A) (A) (A) (A) (A) (A) (A) (A) (A)
                 (A) (A) (A) (A) (A) (A) (A) (A) (A)
       Virtual   (A) (A) (A) (A) (A) (A) (A) (A) (A) (A) (A) (A)
                 (A) (A) (A) (A) (A) (A) (A) (A) (A) (A) (A) (A)
                 (A) (A) (A) (A) (A) (A) (A) (A) (A) (A) (A) (A)
                 (A) (A) (A) (A) (A) (A) (A) (A) (A) (A) (A) (A)
                 (A) (A) (A) (A) (A) (A) (A) (A) (A) (A) (A) (A)
                 (A) (A) (A) (A) (A) (A) (A) (A) (A) (A) (A) (A)
                 (A) (A) (A) (A) (A) (A) (A) (A) (A) (A) (A) (A)
                 (A) (A) (A) (A) (A) (A) (A) (A) (A) (A) (A) (A)
                 (A) (A) (A) (A) (A) (A) (A) (A) (A) (A) (A) (A)
                 (A) (A) (A) (A) (A) (A) (A) (A) (A) (A) (A) (A)
                 (A) (A) (A) (A) (A) (A) (A) (A) (A) (A) (A) (A)
                 (A) (A) (A) (A) (A) (A) (A) (A) (A) (A) (A) (A)
                 (A) (A) (A) (A) (A) (A) (A) (A) (A) (A) (A) (A)
                 (A) (A) (A) (A) (A) (A) (A) (A) (A) (A) (A) (A)
                 (A) (A) (A) (A) (A) (A) (A) (A) (A) (A) (A) (A)
                 (A) (A) (A) (A) (A) (A) (A) (A) (A) (A) (A) (A)
                 (A) (A) (A) (A) (A) (A) (A) (A) (A) (A) (A) (A)
                 (A) (A) (A) (A) (A) (A) (A) (A) (A) (A) (A) (A)
                 (A) (A) (A) (A) (A) (A) (A) (A) (A) (A) (A) (A)
                 (A) (A) (A) (A) (A) (A) (A) (A) (A) (A) (A) (A)
                 (A) (A) (A) (A) (A) (A) (A) (A) (A) (A) (A) (A)
                 (A) (A) (A) (A) (A) (A) (A) (A) (A) (A) (A) (A)
                 (A) (A) (A) (A) (A) (A) (A) (A) (A) (A) (A) (A)
                 (A) (A) (A) (A) (A) (A) (A) (A) (A) (A) (A) (A)
                 (A) (A) (A) (A) (A) (A) (A) (A) (A) (A) (A) (A)
                 (A) (A) (A) (A) (A) (A) (A) (A) (A) (A) (A) (A)
                 (A) (A) (A) (A) (A) (A) (A) (A) (A) (A) (A) (A)
                 (A) (A) (A) (A) (A) (A) (A) (A) (A) (A) (A) (A)
                 (A) (A) (A) (A) (A) (A) (A) (A) (A) (A) (A) (A)
                 (A) (A) (A) (A) (A) (A) (A) (A) (A) (A) (A) (A)
                 (A) (A) (A) (A) (A) (A) (A) (A) (A) (A) (A) (A)
                 (A) (A) (A) (A) (A) (A) (A) (A) (A) (A) (A) (A)
                 (A) (A) (A) (A) (A) (A) (A) (A) (A) (A) (A) (A)
                 (A) (A) (A) (A) (A) (A) (A) (A) (A) (A) (A) (A)
                 (A) (A) (A) (A) (A) (A) (A) (A) (A) (A) (A) (A)
                 (A) (A) (A) (A) (A) (A) (A) (A) (A) (A) (A) (A)
                 (A) (A) (A) (A) (A) (A) (A) (A) (A) (A) (A) (A)
                 (A) (A) (A) (A) (A) (A) (A) (A) (A) (A) (A) (A)
                 (A) (A) (A) (A) (A) (A) (A) (A) (A) (A) (A) (A)
                 (A) (A) (A) (A) (A) (A) (A) (A) (A) (A) (A) (A)
                 (A) (A) (A) (A) (A) (A) (A) (A) (A) (A) (A) (A)
                 (A) (A) (A) (A) (A) (A) (A) (A) (A) (A) (A) (A)
 The electronic state of the initial guess is 1-A.
 Requested convergence on RMS density matrix=1.00D-08 within 128 cycles.
 Requested convergence on MAX density matrix=1.00D-06.
 Requested convergence on             energy=1.00D-06.
 No special actions if energy rises.
 EnCoef did     3 forward-backward iterations
 EnCoef did     3 forward-backward iterations
 Restarting incremental Fock formation.
 SCF Done:  E(RB3LYP) =  -1930.67320969     A.U. after   24 cycles
             Convg  =    0.6656D-08             -V/T =  2.0052

 **********************************************************************

            Population analysis using the SCF density.

 **********************************************************************

 Orbital symmetries:
       Occupied  (A) (A) (A) (A) (A) (A) (A) (A) (A) (A) (A) (A)
                 (A) (A) (A) (A) (A) (A) (A) (A) (A) (A) (A) (A)
                 (A) (A) (A) (A) (A) (A) (A) (A) (A) (A) (A) (A)
                 (A) (A) (A) (A) (A) (A) (A) (A) (A) (A) (A) (A)
                 (A) (A) (A) (A) (A) (A) (A) (A) (A) (A) (A) (A)
                 (A) (A) (A) (A) (A) (A) (A) (A) (A) (A) (A) (A)
                 (A) (A) (A) (A) (A) (A) (A) (A) (A) (A) (A) (A)
                 (A) (A) (A) (A) (A) (A) (A) (A) (A) (A) (A) (A)
                 (A) (A) (A) (A) (A) (A) (A) (A) (A)
       Virtual   (A) (A) (A) (A) (A) (A) (A) (A) (A) (A) (A) (A)
                 (A) (A) (A) (A) (A) (A) (A) (A) (A) (A) (A) (A)
                 (A) (A) (A) (A) (A) (A) (A) (A) (A) (A) (A) (A)
                 (A) (A) (A) (A) (A) (A) (A) (A) (A) (A) (A) (A)
                 (A) (A) (A) (A) (A) (A) (A) (A) (A) (A) (A) (A)
                 (A) (A) (A) (A) (A) (A) (A) (A) (A) (A) (A) (A)
                 (A) (A) (A) (A) (A) (A) (A) (A) (A) (A) (A) (A)
                 (A) (A) (A) (A) (A) (A) (A) (A) (A) (A) (A) (A)
                 (A) (A) (A) (A) (A) (A) (A) (A) (A) (A) (A) (A)
                 (A) (A) (A) (A) (A) (A) (A) (A) (A) (A) (A) (A)
                 (A) (A) (A) (A) (A) (A) (A) (A) (A) (A) (A) (A)
                 (A) (A) (A) (A) (A) (A) (A) (A) (A) (A) (A) (A)
                 (A) (A) (A) (A) (A) (A) (A) (A) (A) (A) (A) (A)
                 (A) (A) (A) (A) (A) (A) (A) (A) (A) (A) (A) (A)
                 (A) (A) (A) (A) (A) (A) (A) (A) (A) (A) (A) (A)
                 (A) (A) (A) (A) (A) (A) (A) (A) (A) (A) (A) (A)
                 (A) (A) (A) (A) (A) (A) (A) (A) (A) (A) (A) (A)
                 (A) (A) (A) (A) (A) (A) (A) (A) (A) (A) (A) (A)
                 (A) (A) (A) (A) (A) (A) (A) (A) (A) (A) (A) (A)
                 (A) (A) (A) (A) (A) (A) (A) (A) (A) (A) (A) (A)
                 (A) (A) (A) (A) (A) (A) (A) (A) (A) (A) (A) (A)
                 (A) (A) (A) (A) (A) (A) (A) (A) (A) (A) (A) (A)
                 (A) (A) (A) (A) (A) (A) (A) (A) (A) (A) (A) (A)
                 (A) (A) (A) (A) (A) (A) (A) (A) (A) (A) (A) (A)
                 (A) (A) (A) (A) (A) (A) (A) (A) (A) (A) (A) (A)
                 (A) (A) (A) (A) (A) (A) (A) (A) (A) (A) (A) (A)
                 (A) (A) (A) (A) (A) (A) (A) (A) (A) (A) (A) (A)
                 (A) (A) (A) (A) (A) (A) (A) (A) (A) (A) (A) (A)
                 (A) (A) (A) (A) (A) (A) (A) (A) (A) (A) (A) (A)
                 (A) (A) (A) (A) (A) (A) (A) (A) (A) (A) (A) (A)
                 (A) (A) (A) (A) (A) (A) (A) (A) (A) (A) (A) (A)
                 (A) (A) (A) (A) (A) (A) (A) (A) (A) (A) (A) (A)
                 (A) (A) (A) (A) (A) (A) (A) (A) (A) (A) (A) (A)
                 (A) (A) (A) (A) (A) (A) (A) (A) (A) (A) (A) (A)
                 (A) (A) (A) (A) (A) (A) (A) (A) (A) (A) (A) (A)
                 (A) (A) (A) (A) (A) (A) (A) (A) (A) (A) (A) (A)
                 (A) (A) (A) (A) (A) (A) (A) (A) (A) (A) (A) (A)
                 (A) (A) (A) (A) (A) (A) (A) (A) (A) (A) (A) (A)
                 (A) (A) (A) (A) (A) (A) (A) (A) (A) (A) (A) (A)
                 (A) (A) (A) (A) (A) (A) (A) (A) (A) (A) (A) (A)
                 (A) (A) (A) (A) (A) (A) (A) (A) (A) (A) (A) (A)
                 (A) (A) (A) (A) (A) (A) (A) (A) (A) (A) (A) (A)
 The electronic state is 1-A.
 Alpha  occ. eigenvalues --  -89.00499 -88.91221 -14.40334 -14.40022 -14.40013
 Alpha  occ. eigenvalues --  -14.36890 -14.35665 -14.34145 -10.27583 -10.27122
 Alpha  occ. eigenvalues --  -10.26087 -10.25053 -10.24999 -10.24981 -10.24731
 Alpha  occ. eigenvalues --  -10.23932 -10.23665 -10.23511 -10.23076 -10.22894
 Alpha  occ. eigenvalues --  -10.22683 -10.22535 -10.22159 -10.21924 -10.21280
 Alpha  occ. eigenvalues --  -10.19944 -10.19147 -10.18317 -10.18309  -8.05754
 Alpha  occ. eigenvalues --   -7.99146  -6.02310  -6.01725  -6.01526  -5.95391
 Alpha  occ. eigenvalues --   -5.95031  -5.94727  -1.04060  -1.03902  -1.00927
 Alpha  occ. eigenvalues --   -0.96929  -0.95767  -0.94567  -0.91982  -0.87224
 Alpha  occ. eigenvalues --   -0.86084  -0.82974  -0.81769  -0.80636  -0.79487
 Alpha  occ. eigenvalues --   -0.77655  -0.74011  -0.72327  -0.69358  -0.68749
 Alpha  occ. eigenvalues --   -0.65873  -0.65430  -0.64615  -0.63878  -0.61655
 Alpha  occ. eigenvalues --   -0.60435  -0.57966  -0.56272  -0.55299  -0.54762
 Alpha  occ. eigenvalues --   -0.53762  -0.53424  -0.51989  -0.50801  -0.50613
 Alpha  occ. eigenvalues --   -0.48782  -0.48746  -0.48097  -0.47639  -0.46855
 Alpha  occ. eigenvalues --   -0.46289  -0.44723  -0.44081  -0.42981  -0.42845
 Alpha  occ. eigenvalues --   -0.42356  -0.42233  -0.41178  -0.40553  -0.40071
 Alpha  occ. eigenvalues --   -0.39088  -0.38144  -0.37859  -0.36519  -0.35405
 Alpha  occ. eigenvalues --   -0.33932  -0.33110  -0.32981  -0.32165  -0.30514
 Alpha  occ. eigenvalues --   -0.29646  -0.29029  -0.28893  -0.28489  -0.27038
 Alpha  occ. eigenvalues --   -0.25919  -0.24793  -0.22554  -0.21770  -0.20238
 Alpha virt. eigenvalues --   -0.12454  -0.07746  -0.06859  -0.03793  -0.03402
 Alpha virt. eigenvalues --   -0.02658  -0.01721  -0.01213  -0.00874  -0.00596
 Alpha virt. eigenvalues --   -0.00284   0.00403   0.00687   0.00875   0.01072
 Alpha virt. eigenvalues --    0.01764   0.02094   0.02287   0.02864   0.03155
 Alpha virt. eigenvalues --    0.03726   0.03839   0.04586   0.04699   0.04961
 Alpha virt. eigenvalues --    0.05258   0.05677   0.06006   0.06126   0.06232
 Alpha virt. eigenvalues --    0.06486   0.06672   0.07496   0.07638   0.07779
 Alpha virt. eigenvalues --    0.08252   0.08523   0.08850   0.09144   0.09497
 Alpha virt. eigenvalues --    0.09644   0.10032   0.10288   0.10578   0.10895
 Alpha virt. eigenvalues --    0.11259   0.11461   0.11731   0.12127   0.12288
 Alpha virt. eigenvalues --    0.12452   0.12637   0.12803   0.12901   0.12962
 Alpha virt. eigenvalues --    0.13157   0.13456   0.13488   0.13776   0.14020
 Alpha virt. eigenvalues --    0.14190   0.14833   0.14919   0.15164   0.15499
 Alpha virt. eigenvalues --    0.15718   0.15996   0.16313   0.16489   0.16768
 Alpha virt. eigenvalues --    0.16845   0.17204   0.17650   0.17882   0.18116
 Alpha virt. eigenvalues --    0.18344   0.18521   0.18800   0.19114   0.19420
 Alpha virt. eigenvalues --    0.19578   0.20087   0.20379   0.20520   0.20891
 Alpha virt. eigenvalues --    0.21215   0.21591   0.21704   0.22071   0.22315
 Alpha virt. eigenvalues --    0.22490   0.22573   0.22833   0.22966   0.23228
 Alpha virt. eigenvalues --    0.23386   0.23755   0.24105   0.24137   0.24293
 Alpha virt. eigenvalues --    0.24561   0.25008   0.25035   0.25451   0.25612
 Alpha virt. eigenvalues --    0.25720   0.26016   0.26198   0.26722   0.26803
 Alpha virt. eigenvalues --    0.27220   0.27291   0.27546   0.27818   0.28113
 Alpha virt. eigenvalues --    0.28663   0.28727   0.28909   0.29356   0.29449
 Alpha virt. eigenvalues --    0.29671   0.29957   0.30254   0.30417   0.30688
 Alpha virt. eigenvalues --    0.30809   0.31538   0.31904   0.32069   0.32581
 Alpha virt. eigenvalues --    0.32688   0.33253   0.33381   0.33785   0.34420
 Alpha virt. eigenvalues --    0.34673   0.34845   0.35095   0.35404   0.35515
 Alpha virt. eigenvalues --    0.35730   0.36016   0.36443   0.36861   0.36942
 Alpha virt. eigenvalues --    0.37965   0.38180   0.38627   0.38972   0.39157
 Alpha virt. eigenvalues --    0.39539   0.39785   0.40757   0.40943   0.41388
 Alpha virt. eigenvalues --    0.41709   0.42787   0.43616   0.44722   0.44875
 Alpha virt. eigenvalues --    0.46165   0.46407   0.48592   0.48779   0.49082
 Alpha virt. eigenvalues --    0.50486   0.50920   0.51137   0.52137   0.53373
 Alpha virt. eigenvalues --    0.54564   0.56303   0.57819   0.60288   0.60567
 Alpha virt. eigenvalues --    0.62343   0.64114   0.64158   0.64397   0.64765
 Alpha virt. eigenvalues --    0.65289   0.66256   0.66525   0.67767   0.68528
 Alpha virt. eigenvalues --    0.68785   0.69101   0.69728   0.70724   0.70947
 Alpha virt. eigenvalues --    0.71338   0.71569   0.72407   0.73220   0.73502
 Alpha virt. eigenvalues --    0.73828   0.74036   0.74560   0.74921   0.75447
 Alpha virt. eigenvalues --    0.75890   0.76299   0.77069   0.77538   0.77823
 Alpha virt. eigenvalues --    0.78653   0.78819   0.78925   0.79447   0.80022
 Alpha virt. eigenvalues --    0.80566   0.81282   0.82137   0.82493   0.83241
 Alpha virt. eigenvalues --    0.84178   0.85369   0.85563   0.87136   0.87624
 Alpha virt. eigenvalues --    0.88763   0.89827   0.90384   0.91703   0.91959
 Alpha virt. eigenvalues --    0.92749   0.92831   0.93485   0.94025   0.94569
 Alpha virt. eigenvalues --    0.94882   0.95464   0.97206   0.97724   0.98031
 Alpha virt. eigenvalues --    0.98330   0.98963   0.99626   0.99754   1.01177
 Alpha virt. eigenvalues --    1.01854   1.02105   1.03216   1.03998   1.04218
 Alpha virt. eigenvalues --    1.05216   1.05658   1.06184   1.06678   1.07330
 Alpha virt. eigenvalues --    1.07884   1.08920   1.09355   1.09665   1.10779
 Alpha virt. eigenvalues --    1.11378   1.11452   1.11777   1.12349   1.14324
 Alpha virt. eigenvalues --    1.14724   1.15195   1.15640   1.15970   1.16720
 Alpha virt. eigenvalues --    1.18266   1.18732   1.18967   1.19673   1.20462
 Alpha virt. eigenvalues --    1.20553   1.21244   1.21531   1.22436   1.22922
 Alpha virt. eigenvalues --    1.23656   1.24007   1.24395   1.24941   1.25103
 Alpha virt. eigenvalues --    1.25965   1.26662   1.27820   1.28148   1.28743
 Alpha virt. eigenvalues --    1.29372   1.29712   1.30959   1.31196   1.31905
 Alpha virt. eigenvalues --    1.32664   1.33643   1.34772   1.34912   1.35011
 Alpha virt. eigenvalues --    1.35986   1.36413   1.36589   1.37748   1.38140
 Alpha virt. eigenvalues --    1.39285   1.40644   1.41092   1.41630   1.43502
 Alpha virt. eigenvalues --    1.44180   1.45694   1.46346   1.46724   1.46798
 Alpha virt. eigenvalues --    1.48508   1.48931   1.49615   1.51609   1.53977
 Alpha virt. eigenvalues --    1.56934   1.59636   1.61429   1.62864   1.63476
 Alpha virt. eigenvalues --    1.64331   1.66159   1.67385   1.69978   1.71272
 Alpha virt. eigenvalues --    1.72127   1.72560   1.74127   1.75201   1.75834
 Alpha virt. eigenvalues --    1.76878   1.77115   1.78489   1.79144   1.80221
 Alpha virt. eigenvalues --    1.81285   1.81622   1.81885   1.82472   1.83092
 Alpha virt. eigenvalues --    1.83736   1.84573   1.84962   1.85189   1.85755
 Alpha virt. eigenvalues --    1.86150   1.88069   1.88760   1.89732   1.90815
 Alpha virt. eigenvalues --    1.92223   1.93936   1.95824   1.96267   1.97809
 Alpha virt. eigenvalues --    1.98270   1.98696   2.00502   2.01089   2.03090
 Alpha virt. eigenvalues --    2.05178   2.05826   2.06742   2.08408   2.08870
 Alpha virt. eigenvalues --    2.09984   2.10450   2.11875   2.13335   2.13774
 Alpha virt. eigenvalues --    2.15672   2.16696   2.19350   2.19670   2.20269
 Alpha virt. eigenvalues --    2.20707   2.22763   2.22872   2.25058   2.25625
 Alpha virt. eigenvalues --    2.27244   2.27829   2.29005   2.29891   2.30582
 Alpha virt. eigenvalues --    2.32291   2.32484   2.32896   2.33323   2.35124
 Alpha virt. eigenvalues --    2.36135   2.36948   2.37237   2.39179   2.40010
 Alpha virt. eigenvalues --    2.40929   2.41636   2.42671   2.43879   2.44096
 Alpha virt. eigenvalues --    2.44602   2.44710   2.46771   2.48165   2.48788
 Alpha virt. eigenvalues --    2.49082   2.49390   2.49786   2.50537   2.52513
 Alpha virt. eigenvalues --    2.53173   2.54507   2.54936   2.55032   2.56615
 Alpha virt. eigenvalues --    2.58178   2.58906   2.60073   2.60545   2.61197
 Alpha virt. eigenvalues --    2.61820   2.62882   2.64097   2.64933   2.65825
 Alpha virt. eigenvalues --    2.66352   2.68830   2.69266   2.70113   2.70310
 Alpha virt. eigenvalues --    2.72256   2.73329   2.73931   2.75011   2.77629
 Alpha virt. eigenvalues --    2.77883   2.79120   2.81778   2.82284   2.85010
 Alpha virt. eigenvalues --    2.85317   2.86689   2.87019   2.89532   2.89885
 Alpha virt. eigenvalues --    2.92075   2.94460   2.97196   2.99832   3.02294
 Alpha virt. eigenvalues --    3.03593   3.04419   3.04796   3.08413   3.09614
 Alpha virt. eigenvalues --    3.12593   3.14474   3.17442   3.18620   3.24946
 Alpha virt. eigenvalues --    3.26088   3.32272   3.34290   3.36409   3.39972
 Alpha virt. eigenvalues --    3.43022   3.45938   3.47717   3.51328   3.56773
 Alpha virt. eigenvalues --    3.61776   3.66232   3.70593   3.71629   3.75615
 Alpha virt. eigenvalues --    3.93867   4.05882   4.09957   4.19037   4.26816
 Alpha virt. eigenvalues --    4.27891   4.33116   4.33639   4.37556   4.39565
 Alpha virt. eigenvalues --    4.40667   4.41342   4.45753   4.47172   4.48265
 Alpha virt. eigenvalues --    4.50630   4.50860   4.52936   4.53758   4.58694
 Alpha virt. eigenvalues --    4.60163   4.61372   4.66215   4.68287   4.78541
 Alpha virt. eigenvalues --    4.82179   4.87415   4.92035   5.06347
          Condensed to atoms (all electrons):
              1          2          3          4          5          6
     1  C   15.373914  -2.011246  -4.353132  -2.037613   0.156816   0.810773
     2  S   -2.011246  18.330225   0.619740  -0.074449   0.258272  -1.181154
     3  C   -4.353132   0.619740  15.475565  -0.693667  -2.969632  -0.892727
     4  C   -2.037613  -0.074449  -0.693667   8.895386  -0.705920  -0.759803
     5  C    0.156816   0.258272  -2.969632  -0.705920  10.937882  -0.465225
     6  C    0.810773  -1.181154  -0.892727  -0.759803  -0.465225   9.113996
     7  C   -0.036737   0.029761  -1.686436  -0.494462   0.409145   1.596090
     8  C    0.543613  -0.083599  -3.110090   1.255855   0.922280  -0.006762
     9  N   -0.060583   0.010128   0.012024   0.058268  -0.054110  -0.022857
    10  H   -0.002297   0.001038  -0.003223   0.011681  -0.005973   0.002039
    11  C    0.064908  -0.110407   0.037209   0.195917  -0.600060  -0.233191
    12  C   -1.351137   0.390538   3.223419  -1.434877  -0.798314  -0.788902
    13  N    0.305476  -0.006718   0.253800  -0.134515   0.057242   0.010562
    14  C    0.014085   0.001261  -0.121764   0.441045   0.059459  -0.016315
    15  C    0.128954   0.001172   0.398136  -0.229854  -0.022134  -0.037437
    16  C    0.012908   0.000789  -0.052048   0.102901   0.020444   0.006097
    17  C    0.011030   0.000276   0.073624  -0.048028   0.004350  -0.007157
    18  C   -0.009087   0.001560   0.027689  -0.127640  -0.010426  -0.020851
    19  N    0.001395  -0.000367   0.017389   0.003433  -0.006159  -0.002459
    20  C   -0.111252   0.021566  -0.026786  -0.547834  -0.006275  -0.038213
    21  C   -0.000418   0.000060   0.003225  -0.006928  -0.002349  -0.000415
    22  C    0.000038  -0.000001  -0.001001   0.002495   0.000211   0.000085
    23  N   -0.000000   0.000000  -0.000001  -0.000005  -0.000000   0.000000
    24  C    0.000002  -0.000000   0.000057  -0.000060  -0.000003  -0.000002
    25  C    0.000019  -0.000002  -0.000101   0.000268   0.000003   0.000012
    26  N    0.000000   0.000000   0.000000   0.000001   0.000000   0.000000
    27  S   -0.000019   0.000001   0.000025  -0.000229  -0.000025  -0.000001
    28  N   -0.000009   0.000001   0.000117   0.000110   0.000011  -0.000006
    29  C   -0.000279   0.000015   0.002356  -0.014328  -0.001463  -0.000017
    30  C   -1.582120  -0.065637  -0.156950   1.289741  -0.474288  -0.817968
    31  H    0.478940  -0.043777  -0.104093   0.034954  -0.049042  -0.029370
    32  H   -0.363179   0.132275   0.438118   0.058855  -0.033492  -0.061363
    33  H   -0.054520  -0.025769  -0.050563   0.080548  -0.066345   0.362648
    34  H    0.016354  -0.008532   0.028132   0.001235   0.027825  -0.097478
    35  H   -0.013121   0.000411  -0.003656   0.005900  -0.005032  -0.001430
    36  H    0.000910  -0.000077  -0.006065   0.003765   0.000402   0.000717
    37  H   -0.000198   0.000028  -0.000263  -0.000725  -0.000124  -0.000305
    38  H    0.000006  -0.000000   0.000044  -0.000048  -0.000033   0.000020
    39  H    0.000000   0.000000   0.000001  -0.000000  -0.000000  -0.000000
              7          8          9         10         11         12
     1  C   -0.036737   0.543613  -0.060583  -0.002297   0.064908  -1.351137
     2  S    0.029761  -0.083599   0.010128   0.001038  -0.110407   0.390538
     3  C   -1.686436  -3.110090   0.012024  -0.003223   0.037209   3.223419
     4  C   -0.494462   1.255855   0.058268   0.011681   0.195917  -1.434877
     5  C    0.409145   0.922280  -0.054110  -0.005973  -0.600060  -0.798314
     6  C    1.596090  -0.006762  -0.022857   0.002039  -0.233191  -0.788902
     7  C   10.321423   1.444917  -0.353985  -0.123155   0.145778  -2.089039
     8  C    1.444917  14.985335  -0.424382  -0.172856  -1.611251  -4.538252
     9  N   -0.353985  -0.424382   7.539795   0.315282   0.203066   0.132688
    10  H   -0.123155  -0.172856   0.315282   0.412381   0.075322   0.066539
    11  C    0.145778  -1.611251   0.203066   0.075322  10.519620  -1.130973
    12  C   -2.089039  -4.538252   0.132688   0.066539  -1.130973  12.484916
    13  N   -0.044124   0.040191   0.005294   0.000398  -0.048981  -0.159292
    14  C   -0.215173  -0.735365  -0.017184  -0.017823  -1.086385   0.156396
    15  C   -0.221268  -0.280922   0.052182   0.002193  -1.620807   1.873291
    16  C    0.036817   0.408963   0.041631   0.004142  -0.653948   0.516199
    17  C   -0.042735  -0.252735   0.013087  -0.017230  -0.248851  -0.468603
    18  C   -0.005052  -0.727126  -0.093759   0.014207   1.518615  -1.408048
    19  N   -0.033898  -0.221267   0.016188  -0.001122  -0.201470   0.250403
    20  C    0.340703   0.681963  -0.172917  -0.029550   1.037223  -1.169813
    21  C    0.001544  -0.045528  -0.001464   0.000850   0.186787  -0.025354
    22  C   -0.000041   0.010478   0.002551   0.000464  -0.135564   0.031668
    23  N    0.000003   0.000073   0.000004   0.000018   0.000230   0.000236
    24  C   -0.000012  -0.000552  -0.000014  -0.000064   0.007435  -0.000861
    25  C    0.000048   0.002182   0.000031   0.000240  -0.009978   0.009101
    26  N   -0.000000   0.000002   0.000001  -0.000000   0.000075   0.000167
    27  S    0.000011   0.000040  -0.000002   0.000008   0.001698   0.000221
    28  N   -0.000092  -0.001724  -0.000022  -0.000109  -0.004092   0.007866
    29  C    0.002956   0.017062  -0.001086   0.002771   0.324317  -0.065041
    30  C   -2.976951  -2.185571   0.249329   0.136274  -0.751662   2.094564
    31  H    0.002816   0.015641  -0.000366   0.000006   0.003447  -0.027351
    32  H   -0.004613   0.011513  -0.002015   0.000359  -0.018402   0.045108
    33  H   -0.017372  -0.017710   0.000655   0.000404  -0.004919  -0.011245
    34  H    0.252570   0.029401  -0.016843  -0.003359   0.007937   0.007468
    35  H   -0.000897  -0.030315   0.001985  -0.000350   0.006166   0.002836
    36  H    0.003041   0.037722   0.000797   0.001100   0.039107   0.006344
    37  H   -0.000624  -0.011595  -0.003048  -0.000583   0.000743  -0.015068
    38  H    0.000129   0.001601   0.000432   0.000198  -0.005397   0.005525
    39  H   -0.000000  -0.000008   0.000001  -0.000002  -0.000031   0.000027
             13         14         15         16         17         18
     1  C    0.305476   0.014085   0.128954   0.012908   0.011030  -0.009087
     2  S   -0.006718   0.001261   0.001172   0.000789   0.000276   0.001560
     3  C    0.253800  -0.121764   0.398136  -0.052048   0.073624   0.027689
     4  C   -0.134515   0.441045  -0.229854   0.102901  -0.048028  -0.127640
     5  C    0.057242   0.059459  -0.022134   0.020444   0.004350  -0.010426
     6  C    0.010562  -0.016315  -0.037437   0.006097  -0.007157  -0.020851
     7  C   -0.044124  -0.215173  -0.221268   0.036817  -0.042735  -0.005052
     8  C    0.040191  -0.735365  -0.280922   0.408963  -0.252735  -0.727126
     9  N    0.005294  -0.017184   0.052182   0.041631   0.013087  -0.093759
    10  H    0.000398  -0.017823   0.002193   0.004142  -0.017230   0.014207
    11  C   -0.048981  -1.086385  -1.620807  -0.653948  -0.248851   1.518615
    12  C   -0.159292   0.156396   1.873291   0.516199  -0.468603  -1.408048
    13  N    7.440361  -0.330368   0.310399   0.151700  -0.006362   0.020562
    14  C   -0.330368  13.099460  -0.812695   0.544226  -1.325831  -1.354871
    15  C    0.310399  -0.812695  14.923631   4.644520  -3.636214  -6.129005
    16  C    0.151700   0.544226   4.644520  13.922132  -2.816615  -6.657342
    17  C   -0.006362  -1.325831  -3.636214  -2.816615  23.854390  -2.231649
    18  C    0.020562  -1.354871  -6.129005  -6.657342  -2.231649  20.327929
    19  N   -0.015307   0.080211   0.308237  -0.058740   0.617317  -0.647907
    20  C   -0.200640  -1.685618  -1.745081  -1.506611  -1.074215   0.936677
    21  C   -0.002765   0.404750  -1.106832  -1.438926   2.832196   1.524751
    22  C   -0.001287   0.227859   0.997076   0.730712   0.921634  -1.325187
    23  N   -0.000006  -0.003037   0.008826   0.013669  -0.000510   0.012473
    24  C    0.000139  -0.035611  -0.235109  -0.434811  -0.552993   0.168703
    25  C    0.000716  -0.012978   0.297758   0.482520  -0.162332  -0.231148
    26  N   -0.000001   0.000085   0.001114  -0.013764   0.056075  -0.002515
    27  S   -0.000066  -0.022572   0.024602   0.063309  -0.171635  -0.023847
    28  N   -0.000044   0.010756   0.073021  -0.000843  -0.155789  -0.090619
    29  C    0.010898  -2.212797  -2.407481  -2.459909  -8.412445   1.782116
    30  C   -0.343485   0.376336   0.341544  -0.079888   0.310888   0.078345
    31  H    0.002489   0.001488  -0.000414   0.000272  -0.000132  -0.000133
    32  H   -0.021258  -0.003967   0.019122  -0.006659   0.001695  -0.001542
    33  H   -0.000968  -0.000682  -0.001234   0.000175  -0.000119  -0.000197
    34  H    0.000392   0.003334   0.002276  -0.000843   0.000711   0.000902
    35  H   -0.142139   0.702649  -0.410208  -0.018627   0.069057  -0.006602
    36  H    0.016277  -0.316045   0.162223   0.398965  -0.377346   0.024661
    37  H   -0.000233   0.027548   0.027568  -0.047243  -0.254104   0.816365
    38  H   -0.000033  -0.017454   0.005387   0.012963  -0.237214  -0.144708
    39  H    0.000000   0.000030  -0.002064  -0.006804  -0.002134   0.000040
             19         20         21         22         23         24
     1  C    0.001395  -0.111252  -0.000418   0.000038  -0.000000   0.000002
     2  S   -0.000367   0.021566   0.000060  -0.000001   0.000000  -0.000000
     3  C    0.017389  -0.026786   0.003225  -0.001001  -0.000001   0.000057
     4  C    0.003433  -0.547834  -0.006928   0.002495  -0.000005  -0.000060
     5  C   -0.006159  -0.006275  -0.002349   0.000211  -0.000000  -0.000003
     6  C   -0.002459  -0.038213  -0.000415   0.000085   0.000000  -0.000002
     7  C   -0.033898   0.340703   0.001544  -0.000041   0.000003  -0.000012
     8  C   -0.221267   0.681963  -0.045528   0.010478   0.000073  -0.000552
     9  N    0.016188  -0.172917  -0.001464   0.002551   0.000004  -0.000014
    10  H   -0.001122  -0.029550   0.000850   0.000464   0.000018  -0.000064
    11  C   -0.201470   1.037223   0.186787  -0.135564   0.000230   0.007435
    12  C    0.250403  -1.169813  -0.025354   0.031668   0.000236  -0.000861
    13  N   -0.015307  -0.200640  -0.002765  -0.001287  -0.000006   0.000139
    14  C    0.080211  -1.685618   0.404750   0.227859  -0.003037  -0.035611
    15  C    0.308237  -1.745081  -1.106832   0.997076   0.008826  -0.235109
    16  C   -0.058740  -1.506611  -1.438926   0.730712   0.013669  -0.434811
    17  C    0.617317  -1.074215   2.832196   0.921634  -0.000510  -0.552993
    18  C   -0.647907   0.936677   1.524751  -1.325187   0.012473   0.168703
    19  N    7.322203  -0.276685  -0.021251   0.096132   0.000457  -0.003369
    20  C   -0.276685  10.934868  -0.348017  -0.535289   0.009331   0.075982
    21  C   -0.021251  -0.348017  27.433633  -3.520942   0.501505  -0.395941
    22  C    0.096132  -0.535289  -3.520942  13.986470  -0.026672  -2.276731
    23  N    0.000457   0.009331   0.501505  -0.026672   6.810772  -0.040302
    24  C   -0.003369   0.075982  -0.395941  -2.276731  -0.040302  12.411228
    25  C    0.012920  -0.131339  -0.821844   2.263943   0.261400  -4.193684
    26  N    0.000075  -0.002409   0.309104   0.028201   0.003873  -0.566177
    27  S   -0.000090   0.032945  -0.660322  -0.151526   0.003071   0.049195
    28  N   -0.003310  -0.021310  -0.609443   0.055498  -0.000407   0.127865
    29  C   -0.001397   2.203091 -16.736852  -5.785065  -0.184966   1.415863
    30  C    0.117004  -0.807293  -0.002591  -0.002917  -0.000079   0.000483
    31  H   -0.000007  -0.001172  -0.000003   0.000001  -0.000000  -0.000000
    32  H    0.000901  -0.005576  -0.000438  -0.000029  -0.000000  -0.000000
    33  H   -0.000053   0.000582  -0.000002   0.000001   0.000000  -0.000000
    34  H    0.000411  -0.004614  -0.000047  -0.000006  -0.000000   0.000000
    35  H   -0.002825   0.055520   0.042114  -0.002113  -0.000156   0.001539
    36  H   -0.002795   0.022695  -0.337326   0.062089   0.003398  -0.030752
    37  H   -0.142420   0.026233  -0.018616  -0.045731   0.002464  -0.008115
    38  H    0.009139   0.035703  -0.584252   0.822509  -0.142033   0.000526
    39  H    0.000045   0.000942   0.025964  -0.031524  -0.122055   0.718935
             25         26         27         28         29         30
     1  C    0.000019   0.000000  -0.000019  -0.000009  -0.000279  -1.582120
     2  S   -0.000002   0.000000   0.000001   0.000001   0.000015  -0.065637
     3  C   -0.000101   0.000000   0.000025   0.000117   0.002356  -0.156950
     4  C    0.000268   0.000001  -0.000229   0.000110  -0.014328   1.289741
     5  C    0.000003   0.000000  -0.000025   0.000011  -0.001463  -0.474288
     6  C    0.000012   0.000000  -0.000001  -0.000006  -0.000017  -0.817968
     7  C    0.000048  -0.000000   0.000011  -0.000092   0.002956  -2.976951
     8  C    0.002182   0.000002   0.000040  -0.001724   0.017062  -2.185571
     9  N    0.000031   0.000001  -0.000002  -0.000022  -0.001086   0.249329
    10  H    0.000240  -0.000000   0.000008  -0.000109   0.002771   0.136274
    11  C   -0.009978   0.000075   0.001698  -0.004092   0.324317  -0.751662
    12  C    0.009101   0.000167   0.000221   0.007866  -0.065041   2.094564
    13  N    0.000716  -0.000001  -0.000066  -0.000044   0.010898  -0.343485
    14  C   -0.012978   0.000085  -0.022572   0.010756  -2.212797   0.376336
    15  C    0.297758   0.001114   0.024602   0.073021  -2.407481   0.341544
    16  C    0.482520  -0.013764   0.063309  -0.000843  -2.459909  -0.079888
    17  C   -0.162332   0.056075  -0.171635  -0.155789  -8.412445   0.310888
    18  C   -0.231148  -0.002515  -0.023847  -0.090619   1.782116   0.078345
    19  N    0.012920   0.000075  -0.000090  -0.003310  -0.001397   0.117004
    20  C   -0.131339  -0.002409   0.032945  -0.021310   2.203091  -0.807293
    21  C   -0.821844   0.309104  -0.660322  -0.609443 -16.736852  -0.002591
    22  C    2.263943   0.028201  -0.151526   0.055498  -5.785065  -0.002917
    23  N    0.261400   0.003873   0.003071  -0.000407  -0.184966  -0.000079
    24  C   -4.193684  -0.566177   0.049195   0.127865   1.415863   0.000483
    25  C   14.950657   0.304153  -0.063719   0.168965  -6.991906  -0.001416
    26  N    0.304153   7.396620  -0.024961  -0.127984   0.045867   0.000007
    27  S   -0.063719  -0.024961  15.631771  -0.085607   0.521162  -0.000300
    28  N    0.168965  -0.127984  -0.085607   7.737972   0.299191   0.000958
    29  C   -6.991906   0.045867   0.521162   0.299191  43.843958  -0.025957
    30  C   -0.001416   0.000007  -0.000300   0.000958  -0.025957  11.293113
    31  H    0.000001   0.000000  -0.000001  -0.000000  -0.000010   0.011133
    32  H    0.000043  -0.000000   0.000011   0.000010   0.000085   0.028770
    33  H    0.000000   0.000000  -0.000000  -0.000000   0.000003   0.050687
    34  H   -0.000003  -0.000000  -0.000000   0.000002  -0.000076   0.024208
    35  H   -0.011158  -0.000065  -0.000614  -0.006024  -0.045091  -0.004685
    36  H    0.118305   0.004563  -0.014825   0.067463   0.278134  -0.019249
    37  H   -0.023353  -0.000520   0.000716   0.003371  -0.168697  -0.001154
    38  H    0.064984  -0.000172  -0.000197  -0.000966   0.305122  -0.001055
    39  H   -0.412586  -0.006486  -0.004965  -0.004976   0.036355   0.000005
             31         32         33         34         35         36
     1  C    0.478940  -0.363179  -0.054520   0.016354  -0.013121   0.000910
     2  S   -0.043777   0.132275  -0.025769  -0.008532   0.000411  -0.000077
     3  C   -0.104093   0.438118  -0.050563   0.028132  -0.003656  -0.006065
     4  C    0.034954   0.058855   0.080548   0.001235   0.005900   0.003765
     5  C   -0.049042  -0.033492  -0.066345   0.027825  -0.005032   0.000402
     6  C   -0.029370  -0.061363   0.362648  -0.097478  -0.001430   0.000717
     7  C    0.002816  -0.004613  -0.017372   0.252570  -0.000897   0.003041
     8  C    0.015641   0.011513  -0.017710   0.029401  -0.030315   0.037722
     9  N   -0.000366  -0.002015   0.000655  -0.016843   0.001985   0.000797
    10  H    0.000006   0.000359   0.000404  -0.003359  -0.000350   0.001100
    11  C    0.003447  -0.018402  -0.004919   0.007937   0.006166   0.039107
    12  C   -0.027351   0.045108  -0.011245   0.007468   0.002836   0.006344
    13  N    0.002489  -0.021258  -0.000968   0.000392  -0.142139   0.016277
    14  C    0.001488  -0.003967  -0.000682   0.003334   0.702649  -0.316045
    15  C   -0.000414   0.019122  -0.001234   0.002276  -0.410208   0.162223
[...]
 004015,0.00008659,0.00008150,0.00000233,-0.00004197,0.00001478,0.00001
 581,0.00002306,-0.00001146,-0.00001354,0.00010430,0.00007837,0.0000530
 6,0.00014874,-0.00032734,-0.00004421,0.00048746,0.00012533,0.00015764,
 0.00004793,-0.00010720,0.00004696,-0.00000254,-0.00058794,-0.00011149,
 0.00154126,-0.00336355,-0.00313048,0.03584067,-0.01792049,-0.00310614,
 0.05298212,-0.06441263,-0.00700881,-0.02143987,0.00709417,0.00092427,-
 0.00117352,0.00160327,0.00077723,0.00056305,0.00005656,0.00010299,-0.0
 0015958,0.00055673,0.00014131,-0.00168687,0.00017940,-0.00000373,-0.00
 138222,-0.00382473,-0.00170631,-0.00000466,-0.00006632,-0.00004238,-0.
 00000140,0.00001403,0.00000360,0.00001195,-0.00000597,0.00000057,-0.00
 000703,0.00000306,0.00000379,-0.00000467,0.00000943,-0.00000290,0.0000
 0216,0.00003219,-0.00000213,0.00001746,-0.00002375,-0.00002014,0.00001
 557,0.00001897,0.00003371,-0.00002969,-0.00002248,0.00002432,0.0009428
 0,0.00058658,-0.00006688,0.00000027,-0.00001234,-0.00000364,0.00004931
 ,0.00002316,0.00000644,0.00000222,-0.00000635,-0.00000371,0.00003539,-
 0.00004111,-0.00000344,-0.06768883,0.08063535,-0.00001499,0.00000663,-
 0.00004157,0.00000056,-0.00001220,-0.00000660,0.00000047,-0.00004070,0
 .00008955,0.00002322,0.00000792,0.00004931,-0.00000950,0.00001515,-0.0
 0004496,0.00000819,-0.00001437,0.00004774,0.00001830,0.00005263,-0.000
 16221,0.00003077,-0.00003407,-0.00016383,0.00009599,0.00016623,-0.0006
 2371,0.00000457,0.00004835,-0.00031594,-0.00001498,-0.00012571,-0.0000
 4920,0.00047679,-0.00307992,0.01048924,0.00755837,-0.00263898,-0.00729
 814,0.01675529,-0.00700275,-0.03796741,-0.00425170,0.00032442,0.004889
 56,-0.00028008,0.00070580,-0.00179262,0.00014191,0.00002186,-0.0004361
 9,-0.00007708,0.00015853,-0.00005548,-0.00029435,-0.00007451,0.0002938
 5,-0.00021851,-0.00159229,0.00381805,-0.00000887,0.00006907,0.00005824
 ,-0.00002790,-0.00002267,0.00001664,0.00000535,0.00001445,-0.00002740,
 -0.00001463,-0.00001665,0.00001191,0.00001323,0.00001080,-0.00001481,-
 0.00000727,0.00002293,0.00000346,0.00004205,-0.00005105,-0.00002894,-0
 .00000274,0.00003176,-0.00000786,-0.00001809,0.00002993,0.00002967,0.0
 0021339,-0.00005613,0.00083784,0.00000021,-0.00000406,0.00000367,0.000
 01239,0.00000616,-0.00000346,0.00000045,-0.00000389,0.00000965,0.00000
 754,-0.00000319,-0.00002739,-0.02032047,0.01318289,0.02801026,0.000018
 22,-0.00000875,-0.00000169,-0.00000558,0.00001519,0.00000358,0.0000145
 3,0.00001738,0.00000353,-0.00003548,-0.00003381,-0.00000894,-0.0000230
 9,-0.00000378,-0.00000033,-0.00000091,0.00002433,0.00000464,0.00002304
 ,-0.00000372,-0.00000245,-0.00002200,-0.00000575,0.00000256,0.00000378
 ,0.00004087,0.00002149,-0.00000028,0.00000563,0.00000009,-0.00033746,-
 0.00015839,-0.00003705,0.00019266,-0.00023077,-0.00007337,-0.00008752,
 0.00074919,0.00020817,0.00086369,-0.00192253,-0.00058765,-0.00247604,0
 .00183669,0.00053132,-0.32222660,0.07173653,0.01907450,-0.01668544,0.0
 0781553,0.00223465,-0.00089982,-0.00439141,-0.00036311,0.00020121,0.00
 005669,-0.00021343,0.00199710,0.00032084,0.00038169,0.00063820,0.00113
 399,-0.00003862,-0.00012823,-0.00019203,0.00014534,0.00002464,0.000070
 89,0.00000341,0.00001349,-0.00003870,-0.00000453,-0.00000128,-0.000121
 13,-0.00000181,-0.00011455,0.00048741,-0.00002601,0.00030673,0.0002993
 9,0.00006106,-0.00089122,0.00126554,0.00159757,0.00013973,-0.00075284,
 -0.00018181,0.00001375,0.00007718,0.00001894,0.00000074,0.00000025,-0.
 00000038,-0.00000376,-0.00000606,-0.00000131,0.00000016,0.00000300,0.0
 0000087,-0.00000196,-0.00000123,-0.00000049,0.00023586,0.00071697,0.00
 013169,0.34012653,-0.00000466,-0.00000928,-0.00000143,-0.00000833,0.00
 001017,0.00000161,0.00001389,-0.00000205,-0.00000117,0.00002244,0.0000
 0630,0.00000412,-0.00000217,-0.00000172,-0.00000061,0.00002092,-0.0000
 1327,-0.00000052,-0.00004554,-0.00003482,-0.00001392,0.00016568,-0.000
 01349,-0.00001242,-0.00029757,-0.00043943,-0.00010354,-0.00000559,-0.0
 0000093,0.00000179,0.00176701,0.00018468,0.00005799,0.00006158,-0.0000
 2341,0.00003104,-0.00043081,0.00056081,0.00002619,0.00191748,0.0010323
 2,0.00099112,0.02908305,-0.00337146,-0.00223356,0.07467330,-0.08057787
 ,-0.00786359,-0.02138894,0.01042837,0.00102508,-0.00313055,-0.00295616
 ,-0.00251089,-0.00014780,-0.00037770,0.00074561,-0.00047745,-0.0049662
 4,-0.00259368,-0.00000734,0.00142443,0.00122416,-0.00009907,-0.0004678
 0,0.00016000,-0.00004237,0.00024431,-0.00007618,0.00003972,-0.00008923
 ,-0.00006875,-0.00020587,-0.00022988,0.00012493,-0.00003081,0.00049366
 ,-0.00006893,0.00060283,-0.00030696,-0.00034037,0.00067989,-0.00113452
 ,-0.00082026,-0.00091127,-0.00098463,-0.00011954,-0.00012897,-0.000059
 60,-0.00000713,-0.00000031,-0.00000095,-0.00000057,-0.00000639,-0.0000
 1375,-0.00000404,-0.00000290,-0.00000365,-0.00000013,-0.00000264,0.000
 00352,0.00000089,-0.00111627,-0.00018910,-0.00006151,-0.07940032,0.081
 43765,0.00000784,0.00000071,-0.00000414,-0.00000289,0.00000713,0.00000
 603,0.00000388,0.00000592,-0.00000375,-0.00000754,0.00000977,-0.000003
 68,0.00000653,-0.00000600,0.00000047,-0.00000618,0.00000289,-0.0000095
 3,-0.00000084,-0.00000752,0.00003620,-0.00001090,-0.00005350,0.0000174
 6,-0.00010316,-0.00002153,0.00004609,0.00000543,0.00000084,-0.00000344
 ,0.00035339,0.00008653,-0.00027080,-0.00006383,0.00000271,-0.00012746,
 0.00002851,0.00000502,0.00040692,0.00032591,0.00100875,-0.00339494,0.0
 0538018,-0.00199813,0.00463760,0.02205834,-0.00813424,-0.04225140,-0.0
 0477822,0.00130118,0.00631805,-0.00046661,-0.00262494,0.00810755,-0.00
 013229,0.00091203,-0.00353371,-0.00006665,-0.00233009,0.00656007,0.000
 24742,0.00049535,-0.00403071,0.00011011,0.00063262,-0.00002019,0.00040
 648,-0.00018602,-0.00000531,-0.00021476,-0.00011643,0.00014464,0.00021
 825,0.00020321,0.00026757,-0.00004345,0.00068903,-0.00008175,0.0008495
 1,-0.00054916,-0.00041477,0.00029980,-0.00084565,-0.00051477,-0.001037
 25,-0.00109606,0.00033399,0.00000569,-0.00003658,-0.00004192,0.0000003
 7,-0.00000054,0.00000266,-0.00000362,-0.00000877,0.00000636,-0.0000007
 3,0.00000221,-0.00000356,-0.00000226,0.00000022,0.00000033,-0.00023911
 ,-0.00012187,0.00028986,-0.02285539,0.01238896,0.02818584,-0.00002396,
 0.00000604,0.00000087,0.00000570,-0.00000929,-0.00000244,-0.00000683,-
 0.00001823,-0.00000255,0.00001671,0.00001524,0.00000962,0.00001139,0.0
 0001485,0.00000098,0.00001253,-0.00001666,-0.00000384,-0.00001223,0.00
 000297,0.00000167,0.00000696,0.00001456,0.00000602,-0.00010947,-0.0000
 5489,-0.00001498,-0.00000223,0.00008719,0.00001695,0.00045123,-0.00018
 322,-0.00009444,0.00012904,0.00009072,0.00002438,-0.00010649,0.0000471
 7,0.00000515,0.00000118,-0.00020882,-0.00001917,0.00024126,0.00098020,
 0.00017186,-0.00480906,0.00330733,0.00063221,-0.01670783,-0.01907659,-
 0.00462974,-0.22482389,-0.13019852,-0.03314745,0.01360886,0.00528774,0
 .00168911,0.00196555,0.00379597,0.00048473,0.00067777,-0.00185684,-0.0
 0040042,-0.00045659,0.00035240,0.00087490,0.00046282,-0.00001767,0.000
 00295,0.00014798,-0.00002071,-0.00019709,-0.00011380,-0.00021020,0.000
 04578,0.00004703,0.00008928,-0.00004231,0.00010796,-0.00008753,-0.0000
 9976,0.00017685,0.00013835,0.00001420,-0.00042715,0.00037057,0.0004413
 7,0.00000843,0.00000915,0.00000706,-0.00000068,0.00000020,-0.00000008,
 0.00000107,0.00000308,0.00000038,0.00000031,-0.00000167,-0.00000043,0.
 00000078,0.00000154,0.00000049,0.00004142,0.00005793,0.00000282,-0.000
 89264,-0.00122587,-0.00022396,0.22987345,-0.00003446,0.00001103,0.0000
 0524,0.00000613,-0.00003553,-0.00000996,-0.00001029,-0.00002648,-0.000
 00725,0.00009073,0.00002370,0.00001127,0.00002840,0.00000315,-0.000000
 48,0.00000388,-0.00005120,-0.00001035,-0.00005004,0.00001606,0.0000044
 6,0.00005628,-0.00001027,0.00001434,0.00001297,-0.00002362,-0.00004642
 ,-0.00007085,-0.00000735,-0.00002250,-0.00122665,-0.00029920,-0.000150
 16,0.00033665,-0.00027007,0.00007972,0.00003206,0.00000884,-0.00009783
 ,-0.00012914,0.00016952,0.00035601,-0.00004886,-0.00056039,-0.00013031
 ,0.00233578,-0.00018979,-0.00112262,0.00746677,0.00820385,0.00070691,-
 0.13003901,-0.15280225,-0.02894270,-0.02023894,-0.03326599,-0.00629867
 ,0.00133801,-0.00245347,-0.00316289,0.00021798,0.00035693,0.00046205,0
 .00066960,-0.00071988,0.00069604,0.00006170,-0.00024985,-0.00012644,-0
 .00010208,0.00004935,-0.00000410,0.00003813,0.00002845,-0.00002407,-0.
 00004073,0.00000634,0.00003068,-0.00000350,-0.00000394,0.00002062,-0.0
 0001779,0.00005427,0.00003461,-0.00019304,0.00014781,-0.00004817,-0.00
 013734,-0.00012955,-0.00002161,-0.00000118,-0.00000118,-0.00000054,0.0
 0000187,0.00000585,0.00000044,-0.00000054,-0.00000785,-0.00000185,0.00
 001171,-0.00000160,-0.00000140,-0.00008691,-0.00004196,-0.00004118,0.0
 0054966,0.00037711,0.00030087,0.13800506,0.18304040,-0.00000731,0.0000
 0163,-0.00000548,-0.00000073,-0.00001473,0.00000514,-0.00000129,-0.000
 00624,0.00000189,0.00002083,0.00001678,-0.00001864,0.00001320,0.000002
 08,-0.00001099,-0.00001007,-0.00001778,-0.00000447,-0.00001457,0.00001
 320,0.00000180,0.00000521,0.00002273,-0.00006805,0.00004270,-0.0000716
 1,0.00018167,-0.00002443,-0.00000791,0.00007337,-0.00019582,0.00006830
 ,0.00043309,-0.00008505,0.00006771,-0.00068604,0.00010748,-0.00019081,
 0.00040618,-0.00002241,0.00046200,-0.00131652,0.00009853,-0.00032512,-
 0.00055140,0.00069212,-0.00047857,0.00489461,0.00259392,-0.00156466,0.
 00656865,-0.03433112,-0.02882505,-0.04887880,-0.00368978,-0.00583769,-
 0.00601473,-0.00020775,-0.00311202,0.01137399,0.00024648,0.00195679,-0
 .00153426,-0.00120290,0.00033864,0.00052033,0.00032222,-0.00033951,-0.
 00047118,-0.00019500,-0.00006119,0.00015467,0.00019004,0.00011655,-0.0
 0002484,-0.00006067,0.00000186,0.00004351,0.00015389,-0.00003519,-0.00
 010493,-0.00015055,-0.00007977,0.00005112,0.00030062,-0.00005347,-0.00
 016594,-0.00002428,-0.00005199,0.00003476,-0.00000036,-0.00000048,0.00
 000062,0.00000090,0.00000186,0.00000313,-0.00000017,-0.00000297,0.0000
 0054,0.00000252,-0.00000018,0.00000144,-0.00002569,-0.00003555,0.00010
 769,0.00004484,0.00017118,-0.00048886,0.03541990,0.03704473,0.03542856
 ,0.00001722,-0.00000593,-0.00000203,-0.00000226,0.00001977,0.00000505,
 0.00000902,0.00001544,0.00000199,-0.00003057,-0.00002820,-0.00001685,-
 0.00002462,-0.00000883,0.00000219,0.00000862,0.00002608,0.00000510,0.0
 0002268,-0.00001513,-0.00000825,-0.00000062,0.00000363,0.00000475,-0.0
 0005971,0.00002237,-0.00000329,0.00001810,-0.00000392,0.00000785,0.000
 07254,-0.00012788,0.00000447,0.00016012,-0.00005013,-0.00000622,-0.000
 10262,0.00019235,0.00003449,-0.00015234,-0.00024666,-0.00005407,-0.000
 22344,0.00053340,0.00022571,-0.00037745,-0.00116929,-0.00030048,-0.000
 85548,0.00216882,-0.00140898,-0.00032196,0.00058776,-0.00062457,-0.000
 04681,-0.00027257,-0.00035356,0.00049092,0.00016650,0.00017881,-0.0103
 3457,0.00436263,0.01196914,-0.22426196,0.04478525,0.13651976,-0.000144
 82,0.00558057,-0.00022922,0.00396085,-0.00050681,0.00162423,-0.0001222
 9,-0.00043580,-0.00019781,0.00013497,0.00017787,-0.00022046,-0.0007698
 6,-0.00020382,-0.00050236,-0.00025602,0.00033768,0.00083698,0.00171604
 ,-0.00303922,0.00411929,-0.00002257,0.00004446,0.00000122,0.00000086,0
 .00000014,0.00000081,-0.00000316,-0.00000548,0.00000067,-0.00000016,0.
 00000327,0.00000135,-0.00000358,-0.00000098,0.00000138,0.00001412,-0.0
 0000055,0.00001246,0.00001155,0.00003483,-0.00000494,0.00048195,0.0011
 7084,-0.00002919,0.23090780,0.00002148,-0.00000512,-0.00000064,-0.0000
 0358,0.00001736,0.00000373,0.00000779,0.00001677,0.00000315,-0.0000331
 2,-0.00001748,-0.00000741,-0.00001278,-0.00001080,0.00000138,-0.000004
 30,0.00002004,0.00000281,0.00001978,-0.00000359,0.00000008,-0.00002187
 ,-0.00002741,-0.00000444,-0.00005642,0.00004740,0.00001177,0.00001457,
 -0.00000925,-0.00000052,0.00012329,-0.00003830,-0.00000522,0.00001538,
 -0.00005055,-0.00000181,0.00002388,0.00007477,0.00001110,-0.00008611,-
 0.00004813,0.00000448,-0.00006257,0.00020449,0.00004310,-0.00003512,-0
 .00017399,-0.00015548,0.00004668,0.00096194,0.00038791,-0.00031954,-0.
 00096354,0.00045836,0.00008714,-0.00025056,-0.00008104,0.00019965,0.00
 008189,-0.00005951,-0.01700811,0.00826861,0.01256249,0.04386027,-0.064
 05048,-0.03479235,0.02819414,-0.01922903,-0.02143842,0.00118947,-0.004
 74976,-0.00170963,-0.00028629,-0.00083041,0.00008942,0.00025357,0.0003
 4819,-0.00010627,-0.00029275,0.00005494,0.00029576,-0.00097402,0.00064
 298,0.00062915,-0.00216685,-0.00357611,0.00075509,0.00000687,0.0000169
 8,0.00000196,0.00000080,0.00000037,-0.00000014,-0.00000274,-0.00000508
 ,-0.00000125,-0.00000030,0.00000371,0.00000042,-0.00000351,-0.00000076
 ,-0.00000024,0.00001370,0.00000186,-0.00000196,0.00004376,0.00004772,0
 .00006167,0.00052173,-0.00134868,0.00083855,-0.05407754,0.08478567,-0.
 00001745,-0.00000018,0.00000009,0.00000254,-0.00000678,-0.00000123,-0.
 00000099,-0.00001187,-0.00000426,0.00002266,-0.00000498,-0.00000890,-0
 .00001325,0.00000971,0.00000477,0.00002245,0.00000309,-0.00000064,-0.0
 0000487,-0.00002196,-0.00000617,0.00004101,0.00008055,0.00001393,0.000
 02909,-0.00006986,-0.00002633,-0.00000224,0.00001568,0.00001540,-0.000
 18764,-0.00012690,-0.00001303,0.00019255,0.00003165,0.00001975,-0.0001
 9555,0.00011118,0.00002292,-0.00001680,-0.00018781,-0.00005784,-0.0001
 2851,0.00018720,0.00017474,-0.00013376,-0.00049529,0.00000759,-0.00203
 490,0.00068634,-0.00201774,0.00134410,0.00103535,0.00035302,-0.0006036
 8,-0.00075396,-0.00021357,0.00028855,0.00014575,-0.00004133,0.00963819
 ,-0.00481028,-0.00074468,0.13728191,-0.03451645,-0.14336058,0.00158235
 ,-0.00566377,-0.00193362,0.00186140,-0.00026021,0.00464099,-0.00043465
 ,0.00011200,-0.00014147,-0.00006074,-0.00003979,-0.00022018,-0.0005145
 3,0.00017127,-0.00102662,0.00088032,-0.00022055,0.00037406,0.00378735,
 0.00142563,0.00541042,-0.00004665,0.00002583,0.00000212,-0.00000032,-0
 .00000068,0.00000048,0.00000148,0.00000317,0.00000180,0.00000053,-0.00
 000217,0.00000039,0.00000109,0.00000073,0.00000161,-0.00001747,-0.0000
 0476,0.00000757,-0.00006337,-0.00007113,-0.00008173,-0.00091847,0.0004
 8698,0.00006453,-0.15191072,0.04277051,0.13854682,0.00001549,-0.000007
 73,-0.00000236,-0.00000384,0.00001195,0.00000272,0.00000776,0.00001431
 ,0.00000246,-0.00002391,-0.00002254,-0.00000452,-0.00001877,-0.0000070
 4,-0.00000101,0.00000043,0.00001861,0.00000350,0.00001630,-0.00000900,
 -0.00000159,0.00000369,0.00002504,0.00000539,-0.00000333,-0.00000550,-
 0.00000338,0.00000711,-0.00000138,0.00000078,0.00003379,0.00004904,-0.
 00000775,0.00000980,-0.00003944,-0.00000817,-0.00002176,0.00003740,-0.
 00000835,-0.00003780,-0.00003934,0.00000528,-0.00004551,0.00003749,0.0
 0014516,-0.00008936,-0.00019399,-0.00003256,-0.00035488,0.00031829,-0.
 00102621,0.00004772,0.00007026,-0.00003583,-0.00000824,0.00003123,0.00
 004322,0.00004851,-0.00003419,0.00000286,-0.00069937,0.00027821,0.0000
 7418,0.00185440,0.00135335,0.00741237,-0.00794430,0.03077531,0.0037997
 6,-0.05081850,0.01227600,0.00922153,0.00660230,-0.02122082,-0.00143029
 ,0.00114746,0.00113664,-0.00168103,-0.00007314,-0.00032267,-0.00044727
 ,-0.00040979,-0.00162978,0.00026868,-0.00178108,-0.00040846,0.00401333
 ,-0.00001948,0.00002962,0.00000893,0.00000051,0.00000005,0.00000026,-0
 .00000093,-0.00000222,0.00000021,0.00000001,0.00000185,0.00000046,-0.0
 0000295,-0.00000028,0.00000034,0.00000518,-0.00000093,0.00000514,0.000
 00821,0.00003720,-0.00004305,0.00001463,-0.00000288,0.00002375,0.00008
 951,0.00080356,0.00032900,0.05244412,-0.00000142,-0.00000092,-0.000000
 26,0.00000008,-0.00000114,-0.00000027,0.00000051,0.00000006,-0.0000000
 9,0.00000086,-0.00000329,-0.00000052,-0.00000199,0.00000069,0.00000021
 ,0.00000067,-0.00000088,-0.00000010,-0.00000086,0.00000029,0.00000015,
 0.00001091,0.00001348,0.00000281,0.00001154,-0.00001583,-0.00000340,-0
 .00000133,0.00000222,0.00000004,-0.00001061,0.00001796,0.00000218,0.00
 000523,-0.00000295,0.00000053,-0.00001587,-0.00000382,0.00000309,-0.00
 000508,-0.00000746,-0.00001035,0.00000697,0.00002312,-0.00002040,-0.00
 005363,-0.00004069,0.00002236,0.00007297,0.00005857,0.00014179,0.00003
 907,0.00000389,-0.00004453,0.00002636,-0.00000830,0.00002319,-0.000006
 02,-0.00000984,0.00000055,-0.00035528,-0.00040592,0.00025659,-0.000297
 13,0.00296025,-0.00061984,0.00990801,-0.00648187,-0.00666834,0.0132427
 9,-0.33200064,-0.03441904,0.00322986,-0.01436249,-0.00399839,0.0005391
 4,0.00131716,-0.00012315,-0.00043947,-0.00099293,0.00027832,-0.0004608
 0,-0.00060577,0.00025382,-0.00203739,0.00079419,0.00100182,-0.00001017
 ,0.00000878,0.00000062,-0.00000008,0.00000004,0.00000011,0.00000042,0.
 00000088,0.00000034,0.00000013,-0.00000039,-0.00000015,0.00000002,0.00
 000031,-0.00000006,0.00000194,0.00000036,0.00000226,0.00000432,0.00001
 685,0.00001937,-0.00001255,-0.00000260,-0.00001212,-0.00003492,-0.0002
 0664,-0.00003323,-0.02335723,0.34993526,0.00000173,-0.00000280,-0.0000
 0108,-0.00000081,0.00000174,0.00000052,0.00000170,0.00000199,-0.000000
 36,-0.00000246,-0.00000762,-0.00000025,-0.00000798,-0.00000040,0.00000
 008,0.00000315,0.00000695,0.00000113,0.00000473,-0.00000783,-0.0000017
 3,0.00000784,0.00002478,0.00000633,0.00000812,-0.00001782,-0.00000428,
 0.00000135,0.00000234,0.00000138,-0.00001617,0.00001556,-0.00002254,0.
 00001381,-0.00000138,-0.00000435,-0.00003744,0.00000452,-0.00001742,0.
 00002138,-0.00003690,0.00000196,-0.00009186,-0.00007077,0.00016899,0.0
 0009004,-0.00028103,-0.00003591,-0.00119035,0.00014340,-0.00125057,0.0
 0009766,0.00016972,0.00002921,-0.00004214,-0.00002425,0.00004871,0.000
 01061,0.00000962,0.00000243,0.00022848,-0.00032168,-0.00069221,0.00713
 419,-0.00184245,0.00763546,0.00238977,-0.02057553,-0.00960501,0.009050
 42,-0.03366833,-0.04779715,0.00071840,0.01221969,0.00773425,-0.0017807
 2,-0.00046425,-0.00035642,-0.00049605,0.00018588,-0.00034641,0.0005250
 1,0.00098575,-0.00011880,0.00375837,0.00012690,0.00189111,-0.00001232,
 0.00001193,0.00000487,0.,-0.00000009,0.00000028,0.00000034,0.00000021,
 0.00000074,0.00000022,0.00000005,0.00000020,-0.00000084,0.00000012,0.0
 0000045,-0.00000306,-0.00000129,0.00000397,-0.00000820,0.00001919,-0.0
 0008126,-0.00005624,0.00001653,-0.00000616,0.00031532,-0.00056655,0.00
 023693,-0.02063597,0.04394409,0.04257290\\-0.00002971,0.00002109,0.000
 00343,0.00000394,-0.00001069,0.00000166,-0.00002438,-0.00001550,0.0000
 1049,0.00004743,-0.00000730,-0.00002496,0.00002026,0.00003372,0.000058
 71,-0.00001906,-0.00000677,-0.00005840,-0.00000736,-0.00000067,0.00003
 994,-0.00001697,0.00001117,-0.00001626,0.00000402,-0.00001580,-0.00000
 298,-0.00000024,0.00000094,-0.00000024,-0.00000637,0.00000942,0.000001
 04,-0.00000627,-0.00000029,-0.00000165,0.00000199,0.00000153,0.0000032
 9,0.00000161,0.00000081,0.00000105,0.00000728,0.00000058,-0.00000277,0
 .00000364,-0.00000440,0.00000770,-0.00001444,0.00001762,-0.00000026,0.
 00000526,-0.00001319,0.00000003,0.00000659,0.00001019,0.,-0.00001189,-
 0.00001381,-0.00000333,0.00000787,-0.00001574,-0.00000765,0.00000017,0
 .00000325,-0.00000146,0.00001017,-0.00000701,-0.00000862,0.00000340,0.
 00000316,0.00002179,0.00004012,-0.00000436,0.00002575,-0.00003765,-0.0
 0000924,-0.00005141,0.00001060,-0.00000524,0.00005323,-0.00002251,0.00
 001816,-0.00001182,0.00000251,0.00001096,-0.00002171,0.00001895,0.0000
 0394,-0.00000186,0.00000197,-0.00000986,-0.00000567,0.00000239,-0.0000
 0476,0.00000310,-0.00000792,-0.00000237,-0.00000512,0.00000208,-0.0000
 0035,0.00000804,0.00000038,0.00000056,-0.00000016,0.00000229,-0.000001
 66,-0.00000134,0.00000151,0.00000113,-0.00000459,0.00000223,-0.0000000
 7,-0.00000061,-0.00000391,0.00000084,-0.00000638\\\@


 I do not feel obliged to believe that the same God who
 has endowed us with sense, reason, and intellect has
 intended us to forgo their use.
                   --Galileo Galilei
 Job cpu time:  0 days 18 hours 34 minutes 59.1 seconds.
 File lengths (MBytes):  RWF=   1565 Int=      0 D2E=      0 Chk=     29 Scr=      1
 Normal termination of Gaussian 09 at Sun Dec 29 03:26:54 2013.
