 Entering Gaussian System, Link 0=g09
 Initial command:
 /opt/gaussian/g09/l1.exe /panfs/panfs.cluster/home/shuo/Gau-4200.inp -scrdir=/panfs/panfs.cluster/home/shuo/
 Default is to use a total of  12 processors:
                               12 via shared-memory
                                1 via Linda
 Entering Link 1 = /opt/gaussian/g09/l1.exe PID=      4201.
  
 Copyright (c) 1988,1990,1992,1993,1995,1998,2003,2009,2011,
            Gaussian, Inc.  All Rights Reserved.
  
 This is part of the Gaussian(R) 09 program.  It is based on
 the Gaussian(R) 03 system (copyright 2003, Gaussian, Inc.),
 the Gaussian(R) 98 system (copyright 1998, Gaussian, Inc.),
 the Gaussian(R) 94 system (copyright 1995, Gaussian, Inc.),
 the Gaussian 92(TM) system (copyright 1992, Gaussian, Inc.),
 the Gaussian 90(TM) system (copyright 1990, Gaussian, Inc.),
 the Gaussian 88(TM) system (copyright 1988, Gaussian, Inc.),
 the Gaussian 86(TM) system (copyright 1986, Carnegie Mellon
 University), and the Gaussian 82(TM) system (copyright 1983,
 Carnegie Mellon University). Gaussian is a federally registered
 trademark of Gaussian, Inc.
  
 This software contains proprietary and confidential information,
 including trade secrets, belonging to Gaussian, Inc.
  
 This software is provided under written license and may be
 used, copied, transmitted, or stored only in accord with that
 written license.
  
 The following legend is applicable only to US Government
 contracts under FAR:
  
                    RESTRICTED RIGHTS LEGEND
  
 Use, reproduction and disclosure by the US Government is
 subject to restrictions as set forth in subparagraphs (a)
 and (c) of the Commercial Computer Software - Restricted
 Rights clause in FAR 52.227-19.
  
 Gaussian, Inc.
 340 Quinnipiac St., Bldg. 40, Wallingford CT 06492
  
  
 ---------------------------------------------------------------
 Warning -- This program may not be used in any manner that
 competes with the business of Gaussian, Inc. or will provide
 assistance to any competitor of Gaussian, Inc.  The licensee
 of this program is prohibited from giving any competitor of
 Gaussian, Inc. access to this program.  By using this program,
 the user acknowledges that Gaussian, Inc. is engaged in the
 business of creating and licensing software in the field of
 computational chemistry and represents and warrants to the
 licensee that it is not a competitor of Gaussian, Inc. and that
 it will not use this program in any manner prohibited above.
 ---------------------------------------------------------------
  

 Cite this work as:
 Gaussian 09, Revision C.01,
 M. J. Frisch, G. W. Trucks, H. B. Schlegel, G. E. Scuseria, 
 M. A. Robb, J. R. Cheeseman, G. Scalmani, V. Barone, B. Mennucci, 
 G. A. Petersson, H. Nakatsuji, M. Caricato, X. Li, H. P. Hratchian, 
 A. F. Izmaylov, J. Bloino, G. Zheng, J. L. Sonnenberg, M. Hada, 
 M. Ehara, K. Toyota, R. Fukuda, J. Hasegawa, M. Ishida, T. Nakajima, 
 Y. Honda, O. Kitao, H. Nakai, T. Vreven, J. A. Montgomery, Jr., 
 J. E. Peralta, F. Ogliaro, M. Bearpark, J. J. Heyd, E. Brothers, 
 K. N. Kudin, V. N. Staroverov, T. Keith, R. Kobayashi, J. Normand, 
 K. Raghavachari, A. Rendell, J. C. Burant, S. S. Iyengar, J. Tomasi, 
 M. Cossi, N. Rega, J. M. Millam, M. Klene, J. E. Knox, J. B. Cross, 
 V. Bakken, C. Adamo, J. Jaramillo, R. Gomperts, R. E. Stratmann, 
 O. Yazyev, A. J. Austin, R. Cammi, C. Pomelli, J. W. Ochterski, 
 R. L. Martin, K. Morokuma, V. G. Zakrzewski, G. A. Voth, 
 P. Salvador, J. J. Dannenberg, S. Dapprich, A. D. Daniels, 
 O. Farkas, J. B. Foresman, J. V. Ortiz, J. Cioslowski, 
 and D. J. Fox, Gaussian, Inc., Wallingford CT, 2010.
 
 ******************************************
 Gaussian 09:  EM64L-G09RevC.01 23-Sep-2011
                29-Dec-2013 
 ******************************************
 %chk=38_C21H12N4S3Si2.chk
 %NProcShared=12
 Will use up to   12 processors via shared memory.
 %Mem=8000MB
 Default route:  MaxDisk=100GB
 --------------------------------------------
 #B3LYP/6-31++G(d,p) opt scf=direct freq test
 --------------------------------------------
 1/14=-1,18=20,19=15,26=3,38=1/1,3;
 2/9=110,12=2,17=6,18=5,40=1/2;
 3/5=1,6=6,7=1111,11=2,16=1,25=1,30=1,71=1,74=-5/1,2,3;
 4//1;
 5/5=2,38=5/2;
 6/7=2,8=2,9=2,10=2,28=1/1;
 7//1,2,3,16;
 1/14=-1,18=20,19=15/3(2);
 2/9=110/2;
 99//99;
 2/9=110/2;
 3/5=1,6=6,7=1111,11=2,16=1,25=1,30=1,71=1,74=-5/1,2,3;
 4/5=5,16=3/1;
 5/5=2,38=5/2;
 7//1,2,3,16;
 1/14=-1,18=20,19=15/3(-5);
 2/9=110/2;
 6/7=2,8=2,9=2,10=2,19=2,28=1/1;
 99/9=1/99;
 ----------------------------------------------------------------------
 Geom opt of No.38 candidate from the CEPDB database with SMILE code of
  c1occ2c1c(cc1c3cscc3c3c4ccccc4ncc3c21)-c1nccc2nsnc12, HPC, 20131227, 
 Shuo Dai, Gaussian09
 ----------------------------------------------------------------------
 Charge =  0 Multiplicity = 1
 Symbolic Z-Matrix:
 C                     2.54956  -1.21082  -1.25943 
 O                     2.18924  -1.14631   0.35872 
 C                     3.34955  -1.84006   0.56223 
 C                     3.97679  -0.81673  -0.20783 
 C                     4.05607  -1.70943  -1.25047 
 C                     5.69469  -2.05091  -1.18536 
 C                     6.64681  -1.17147  -0.52682 
 C                     6.22645   0.00556   0.05145 
 C                     7.04643   1.11272   0.4313 
 C                     8.42669   1.17342   0.40337 
 S                     9.04173   2.68487   0.91233 
 C                     7.4577    3.26124   1.1217 
 C                     6.45041   2.35393   0.8405 
 C                     5.02327   2.57737   0.90272 
 C                     4.32643   3.75318   1.28312 
 C                     4.99089   4.82693   1.90387 
 C                     4.29107   5.82069   2.575 
 C                     3.46868   6.41911   1.70833 
 C                     2.61308   5.31846   1.39392 
 C                     3.00873   3.95161   1.19331 
 N                     2.1708    2.89958   0.91823 
 C                     2.79929   1.7381    0.60569 
 C                     4.19339   1.45953   0.58826 
 C                     4.83196   0.20719   0.26261 
 C                     6.43507  -3.36398  -1.50044 
 N                     7.77465  -3.31695  -2.00377 
 C                     8.55813  -4.44695  -2.24594 
 C                     8.20716  -5.7664   -2.01439 
 C                     6.98054  -5.87008  -1.33594 
 N                     6.43503  -7.03296  -0.94794 
 S                     5.04559  -6.64914  -0.12987 
 N                     5.05558  -4.99198  -0.22611 
 C                     6.09614  -4.65642  -1.00547 
 H                     1.73459  -0.41847  -1.22373 
 H                     2.97781  -2.85314   0.21106 
 H                     7.71412  -1.40949  -0.48803 
 H                     9.18959   0.45997   0.1442 
 H                     7.48775   4.26944   1.45534 
 H                     6.00204   5.00609   1.71947 
 H                     3.53724   5.83554   3.37626 
 H                     4.33554   7.11195   1.67328 
 H                     1.55448   5.42666   1.61032 
 H                     2.04647   1.01293   0.29083 
 H                     9.53397  -4.26037  -2.71259 
 H                     8.7998   -6.6248   -2.31665 
 

 GradGradGradGradGradGradGradGradGradGradGradGradGradGradGradGradGradGrad
 Berny optimization.
 Initialization pass.
                           ----------------------------
                           !    Initial Parameters    !
                           ! (Angstroms and Degrees)  !
 --------------------------                            --------------------------
 ! Name  Definition              Value          Derivative Info.                !
 --------------------------------------------------------------------------------
 ! R1    R(1,2)                  1.659          estimate D2E/DX2                !
 ! R2    R(1,4)                  1.8161         estimate D2E/DX2                !
 ! R3    R(1,5)                  1.5869         estimate D2E/DX2                !
 ! R4    R(1,34)                 1.1372         estimate D2E/DX2                !
 ! R5    R(2,3)                  1.3671         estimate D2E/DX2                !
 ! R6    R(3,4)                  1.4261         estimate D2E/DX2                !
 ! R7    R(3,35)                 1.1348         estimate D2E/DX2                !
 ! R8    R(4,5)                  1.3749         estimate D2E/DX2                !
 ! R9    R(4,24)                 1.4146         estimate D2E/DX2                !
 ! R10   R(5,6)                  1.6751         estimate D2E/DX2                !
 ! R11   R(6,7)                  1.4538         estimate D2E/DX2                !
 ! R12   R(6,25)                 1.54           estimate D2E/DX2                !
 ! R13   R(7,8)                  1.3771         estimate D2E/DX2                !
 ! R14   R(7,36)                 1.0942         estimate D2E/DX2                !
 ! R15   R(8,9)                  1.4291         estimate D2E/DX2                !
 ! R16   R(8,24)                 1.4247         estimate D2E/DX2                !
 ! R17   R(9,10)                 1.3819         estimate D2E/DX2                !
 ! R18   R(9,13)                 1.4364         estimate D2E/DX2                !
 ! R19   R(10,11)                1.7093         estimate D2E/DX2                !
 ! R20   R(10,37)                1.0762         estimate D2E/DX2                !
 ! R21   R(11,12)                1.6986         estimate D2E/DX2                !
 ! R22   R(12,13)                1.3845         estimate D2E/DX2                !
 ! R23   R(12,38)                1.0624         estimate D2E/DX2                !
 ! R24   R(13,14)                1.4459         estimate D2E/DX2                !
 ! R25   R(14,15)                1.4187         estimate D2E/DX2                !
 ! R26   R(14,23)                1.4273         estimate D2E/DX2                !
 ! R27   R(15,16)                1.407          estimate D2E/DX2                !
 ! R28   R(15,20)                1.3356         estimate D2E/DX2                !
 ! R29   R(16,17)                1.3884         estimate D2E/DX2                !
 ! R30   R(16,39)                1.0433         estimate D2E/DX2                !
 ! R31   R(17,18)                1.3362         estimate D2E/DX2                !
 ! R32   R(17,40)                1.1002         estimate D2E/DX2                !
 ! R33   R(18,19)                1.4291         estimate D2E/DX2                !
 ! R34   R(18,41)                1.1103         estimate D2E/DX2                !
 ! R35   R(19,20)                1.437          estimate D2E/DX2                !
 ! R36   R(19,42)                1.0859         estimate D2E/DX2                !
 ! R37   R(20,21)                1.3728         estimate D2E/DX2                !
 ! R38   R(21,22)                1.3571         estimate D2E/DX2                !
 ! R39   R(22,23)                1.4218         estimate D2E/DX2                !
 ! R40   R(22,43)                1.0917         estimate D2E/DX2                !
 ! R41   R(23,24)                1.443          estimate D2E/DX2                !
 ! R42   R(25,26)                1.4318         estimate D2E/DX2                !
 ! R43   R(25,33)                1.4249         estimate D2E/DX2                !
 ! R44   R(26,27)                1.3962         estimate D2E/DX2                !
 ! R45   R(27,28)                1.3848         estimate D2E/DX2                !
 ! R46   R(27,44)                1.0977         estimate D2E/DX2                !
 ! R47   R(28,29)                1.4056         estimate D2E/DX2                !
 ! R48   R(28,45)                1.086          estimate D2E/DX2                !
 ! R49   R(29,30)                1.3418         estimate D2E/DX2                !
 ! R50   R(29,33)                1.5376         estimate D2E/DX2                !
 ! R51   R(30,31)                1.6574         estimate D2E/DX2                !
 ! R52   R(31,32)                1.66           estimate D2E/DX2                !
 ! R53   R(32,33)                1.3427         estimate D2E/DX2                !
 ! A1    A(2,1,4)               66.2634         estimate D2E/DX2                !
 ! A2    A(2,1,5)              102.292          estimate D2E/DX2                !
 ! A3    A(2,1,34)              77.681          estimate D2E/DX2                !
 ! A4    A(4,1,34)             113.1924         estimate D2E/DX2                !
 ! A5    A(5,1,34)             154.0361         estimate D2E/DX2                !
 ! A6    A(1,2,3)               86.625          estimate D2E/DX2                !
 ! A7    A(2,3,4)               85.9157         estimate D2E/DX2                !
 ! A8    A(2,3,35)              97.4076         estimate D2E/DX2                !
 ! A9    A(4,3,35)             128.1403         estimate D2E/DX2                !
 ! A10   A(1,4,3)               79.123          estimate D2E/DX2                !
 ! A11   A(1,4,24)             145.5622         estimate D2E/DX2                !
 ! A12   A(3,4,5)               88.2199         estimate D2E/DX2                !
 ! A13   A(3,4,24)             127.282          estimate D2E/DX2                !
 ! A14   A(5,4,24)             133.4183         estimate D2E/DX2                !
 ! A15   A(4,5,6)               99.1659         estimate D2E/DX2                !
 ! A16   A(5,6,7)              122.3396         estimate D2E/DX2                !
 ! A17   A(5,6,25)             129.5065         estimate D2E/DX2                !
 ! A18   A(7,6,25)             107.0733         estimate D2E/DX2                !
 ! A19   A(6,7,8)              120.4852         estimate D2E/DX2                !
 ! A20   A(6,7,36)             121.5522         estimate D2E/DX2                !
 ! A21   A(8,7,36)             117.9544         estimate D2E/DX2                !
 ! A22   A(7,8,9)              126.7701         estimate D2E/DX2                !
 ! A23   A(7,8,24)             118.8133         estimate D2E/DX2                !
 ! A24   A(9,8,24)             114.3651         estimate D2E/DX2                !
 ! A25   A(8,9,10)             126.9947         estimate D2E/DX2                !
 ! A26   A(8,9,13)             120.4686         estimate D2E/DX2                !
 ! A27   A(10,9,13)            112.4732         estimate D2E/DX2                !
 ! A28   A(9,10,11)            113.0925         estimate D2E/DX2                !
 ! A29   A(9,10,37)            133.1416         estimate D2E/DX2                !
 ! A30   A(11,10,37)           113.7553         estimate D2E/DX2                !
 ! A31   A(10,11,12)            90.0685         estimate D2E/DX2                !
 ! A32   A(11,12,13)           115.5353         estimate D2E/DX2                !
 ! A33   A(11,12,38)           109.5328         estimate D2E/DX2                !
 ! A34   A(13,12,38)           134.9308         estimate D2E/DX2                !
 ! A35   A(9,13,12)            108.7987         estimate D2E/DX2                !
 ! A36   A(9,13,14)            123.7353         estimate D2E/DX2                !
 ! A37   A(12,13,14)           127.4522         estimate D2E/DX2                !
 ! A38   A(13,14,15)           128.6398         estimate D2E/DX2                !
 ! A39   A(13,14,23)           116.3207         estimate D2E/DX2                !
 ! A40   A(15,14,23)           114.9973         estimate D2E/DX2                !
 ! A41   A(14,15,16)           121.2516         estimate D2E/DX2                !
 ! A42   A(14,15,20)           126.1354         estimate D2E/DX2                !
 ! A43   A(16,15,20)           112.4702         estimate D2E/DX2                !
 ! A44   A(15,16,17)           121.4282         estimate D2E/DX2                !
 ! A45   A(15,16,39)           120.7134         estimate D2E/DX2                !
 ! A46   A(17,16,39)           116.8091         estimate D2E/DX2                !
 ! A47   A(16,17,18)           108.4959         estimate D2E/DX2                !
 ! A48   A(16,17,40)           134.9941         estimate D2E/DX2                !
 ! A49   A(18,17,40)            92.5574         estimate D2E/DX2                !
 ! A50   A(17,18,19)            99.5698         estimate D2E/DX2                !
 ! A51   A(17,18,41)            79.5963         estimate D2E/DX2                !
 ! A52   A(19,18,41)           160.2375         estimate D2E/DX2                !
 ! A53   A(18,19,20)           126.7576         estimate D2E/DX2                !
 ! A54   A(18,19,42)           117.585          estimate D2E/DX2                !
 ! A55   A(20,19,42)           113.0166         estimate D2E/DX2                !
 ! A56   A(15,20,19)           113.8014         estimate D2E/DX2                !
 ! A57   A(15,20,21)           120.1211         estimate D2E/DX2                !
 ! A58   A(19,20,21)           126.0744         estimate D2E/DX2                !
 ! A59   A(20,21,22)           114.7935         estimate D2E/DX2                !
 ! A60   A(21,22,23)           128.6539         estimate D2E/DX2                !
 ! A61   A(21,22,43)           108.396          estimate D2E/DX2                !
 ! A62   A(23,22,43)           122.8537         estimate D2E/DX2                !
 ! A63   A(14,23,22)           114.4545         estimate D2E/DX2                !
 ! A64   A(14,23,24)           118.173          estimate D2E/DX2                !
 ! A65   A(22,23,24)           127.3541         estimate D2E/DX2                !
 ! A66   A(4,24,8)             116.1027         estimate D2E/DX2                !
 ! A67   A(4,24,23)            115.8316         estimate D2E/DX2                !
 ! A68   A(8,24,23)            126.1158         estimate D2E/DX2                !
 ! A69   A(6,25,26)            119.5855         estimate D2E/DX2                !
 ! A70   A(6,25,33)            126.0127         estimate D2E/DX2                !
 ! A71   A(26,25,33)           111.9908         estimate D2E/DX2                !
 ! A72   A(25,26,27)           124.0143         estimate D2E/DX2                !
 ! A73   A(26,27,28)           126.8634         estimate D2E/DX2                !
 ! A74   A(26,27,44)           115.7881         estimate D2E/DX2                !
 ! A75   A(28,27,44)           117.2811         estimate D2E/DX2                !
 ! A76   A(27,28,29)           111.8489         estimate D2E/DX2                !
 ! A77   A(27,28,45)           124.6288         estimate D2E/DX2                !
 ! A78   A(29,28,45)           123.5222         estimate D2E/DX2                !
 ! A79   A(28,29,30)           123.9379         estimate D2E/DX2                !
 ! A80   A(28,29,33)           123.1926         estimate D2E/DX2                !
 ! A81   A(30,29,33)           112.8345         estimate D2E/DX2                !
 ! A82   A(29,30,31)           106.43           estimate D2E/DX2                !
 ! A83   A(30,31,32)           101.392          estimate D2E/DX2                !
 ! A84   A(31,32,33)           106.727          estimate D2E/DX2                !
 ! A85   A(25,33,29)           120.2959         estimate D2E/DX2                !
 ! A86   A(25,33,32)           127.783          estimate D2E/DX2                !
 ! A87   A(29,33,32)           111.9155         estimate D2E/DX2                !
 ! A88   L(1,5,6,3,-1)         179.2147         estimate D2E/DX2                !
 ! A89   L(1,5,6,3,-2)         187.1195         estimate D2E/DX2                !
 ! D1    D(4,1,2,3)            -43.1421         estimate D2E/DX2                !
 ! D2    D(5,1,2,3)            -12.1653         estimate D2E/DX2                !
 ! D3    D(34,1,2,3)          -165.5798         estimate D2E/DX2                !
 ! D4    D(2,1,4,3)             41.7888         estimate D2E/DX2                !
 ! D5    D(2,1,4,24)          -102.3553         estimate D2E/DX2                !
 ! D6    D(34,1,4,3)           105.5598         estimate D2E/DX2                !
 ! D7    D(34,1,4,24)          -38.5844         estimate D2E/DX2                !
 ! D8    D(2,1,6,7)            -60.6816         estimate D2E/DX2                !
 ! D9    D(2,1,6,25)           106.3827         estimate D2E/DX2                !
 ! D10   D(34,1,6,7)            24.409          estimate D2E/DX2                !
 ! D11   D(34,1,6,25)         -168.5267         estimate D2E/DX2                !
 ! D12   D(1,2,3,4)             53.0534         estimate D2E/DX2                !
 ! D13   D(1,2,3,35)           -74.905          estimate D2E/DX2                !
 ! D14   D(2,3,4,1)            -47.9151         estimate D2E/DX2                !
 ! D15   D(2,3,4,5)           -105.3148         estimate D2E/DX2                !
 ! D16   D(2,3,4,24)           107.4827         estimate D2E/DX2                !
 ! D17   D(35,3,4,1)            48.3006         estimate D2E/DX2                !
 ! D18   D(35,3,4,5)            -9.0991         estimate D2E/DX2                !
 ! D19   D(35,3,4,24)         -156.3015         estimate D2E/DX2                !
 ! D20   D(3,4,5,6)           -105.7556         estimate D2E/DX2                !
 ! D21   D(24,4,5,6)            37.8486         estimate D2E/DX2                !
 ! D22   D(1,4,24,8)          -124.7967         estimate D2E/DX2                !
 ! D23   D(1,4,24,23)           40.3119         estimate D2E/DX2                !
 ! D24   D(3,4,24,8)           101.5018         estimate D2E/DX2                !
 ! D25   D(3,4,24,23)          -93.3896         estimate D2E/DX2                !
 ! D26   D(5,4,24,8)           -30.3064         estimate D2E/DX2                !
 ! D27   D(5,4,24,23)          134.8022         estimate D2E/DX2                !
 ! D28   D(4,5,6,7)            -20.0157         estimate D2E/DX2                !
 ! D29   D(4,5,6,25)           146.4981         estimate D2E/DX2                !
 ! D30   D(5,6,7,8)             -1.3428         estimate D2E/DX2                !
 ! D31   D(5,6,7,36)           179.7171         estimate D2E/DX2                !
 ! D32   D(25,6,7,8)          -170.4934         estimate D2E/DX2                !
 ! D33   D(25,6,7,36)           10.5666         estimate D2E/DX2                !
 ! D34   D(5,6,25,26)          149.9509         estimate D2E/DX2                !
 ! D35   D(5,6,25,33)          -49.137          estimate D2E/DX2                !
 ! D36   D(7,6,25,26)          -41.9442         estimate D2E/DX2                !
 ! D37   D(7,6,25,33)          118.9678         estimate D2E/DX2                !
 ! D38   D(6,7,8,9)           -163.2713         estimate D2E/DX2                !
 ! D39   D(6,7,8,24)            13.9601         estimate D2E/DX2                !
 ! D40   D(36,7,8,9)            15.7062         estimate D2E/DX2                !
 ! D41   D(36,7,8,24)         -167.0624         estimate D2E/DX2                !
 ! D42   D(7,8,9,10)            -6.2078         estimate D2E/DX2                !
 ! D43   D(7,8,9,13)           170.669          estimate D2E/DX2                !
 ! D44   D(24,8,9,10)          176.4552         estimate D2E/DX2                !
 ! D45   D(24,8,9,13)           -6.668          estimate D2E/DX2                !
 ! D46   D(7,8,24,4)            -2.8959         estimate D2E/DX2                !
 ! D47   D(7,8,24,23)         -166.2572         estimate D2E/DX2                !
 ! D48   D(9,8,24,4)           174.6697         estimate D2E/DX2                !
 ! D49   D(9,8,24,23)           11.3084         estimate D2E/DX2                !
 ! D50   D(8,9,10,11)          179.0433         estimate D2E/DX2                !
 ! D51   D(8,9,10,37)           -2.2404         estimate D2E/DX2                !
 ! D52   D(13,9,10,11)           1.9562         estimate D2E/DX2                !
 ! D53   D(13,9,10,37)        -179.3275         estimate D2E/DX2                !
 ! D54   D(8,9,13,12)         -178.6003         estimate D2E/DX2                !
 ! D55   D(8,9,13,14)            0.1378         estimate D2E/DX2                !
 ! D56   D(10,9,13,12)          -1.2994         estimate D2E/DX2                !
 ! D57   D(10,9,13,14)         177.4387         estimate D2E/DX2                !
 ! D58   D(9,10,11,12)          -1.578          estimate D2E/DX2                !
 ! D59   D(37,10,11,12)        179.4453         estimate D2E/DX2                !
 ! D60   D(10,11,12,13)          0.8233         estimate D2E/DX2                !
 ! D61   D(10,11,12,38)       -179.5095         estimate D2E/DX2                !
 ! D62   D(11,12,13,9)           0.1109         estimate D2E/DX2                !
 ! D63   D(11,12,13,14)       -178.5672         estimate D2E/DX2                !
 ! D64   D(38,12,13,9)        -179.446          estimate D2E/DX2                !
 ! D65   D(38,12,13,14)          1.8759         estimate D2E/DX2                !
 ! D66   D(9,13,14,15)        -179.7012         estimate D2E/DX2                !
 ! D67   D(9,13,14,23)           2.8013         estimate D2E/DX2                !
 ! D68   D(12,13,14,15)         -1.206          estimate D2E/DX2                !
 ! D69   D(12,13,14,23)       -178.7036         estimate D2E/DX2                !
 ! D70   D(13,14,15,16)        -12.0016         estimate D2E/DX2                !
 ! D71   D(13,14,15,20)        172.6785         estimate D2E/DX2                !
 ! D72   D(23,14,15,16)        165.5236         estimate D2E/DX2                !
 ! D73   D(23,14,15,20)         -9.7963         estimate D2E/DX2                !
 ! D74   D(13,14,23,22)       -177.4294         estimate D2E/DX2                !
 ! D75   D(13,14,23,24)          1.1284         estimate D2E/DX2                !
 ! D76   D(15,14,23,22)          4.7271         estimate D2E/DX2                !
 ! D77   D(15,14,23,24)       -176.7151         estimate D2E/DX2                !
 ! D78   D(14,15,16,17)       -163.6134         estimate D2E/DX2                !
 ! D79   D(14,15,16,39)         28.4754         estimate D2E/DX2                !
 ! D80   D(20,15,16,17)         12.2974         estimate D2E/DX2                !
 ! D81   D(20,15,16,39)       -155.6138         estimate D2E/DX2                !
 ! D82   D(14,15,20,19)       -168.0693         estimate D2E/DX2                !
 ! D83   D(14,15,20,21)         11.322          estimate D2E/DX2                !
 ! D84   D(16,15,20,19)         16.2597         estimate D2E/DX2                !
 ! D85   D(16,15,20,21)       -164.349          estimate D2E/DX2                !
 ! D86   D(15,16,17,18)        -60.3404         estimate D2E/DX2                !
 ! D87   D(15,16,17,40)         53.2991         estimate D2E/DX2                !
 ! D88   D(39,16,17,18)        108.0212         estimate D2E/DX2                !
 ! D89   D(39,16,17,40)       -138.3393         estimate D2E/DX2                !
 ! D90   D(16,17,18,19)         64.0939         estimate D2E/DX2                !
 ! D91   D(16,17,18,41)        -95.8542         estimate D2E/DX2                !
 ! D92   D(40,17,18,19)        -75.4788         estimate D2E/DX2                !
 ! D93   D(40,17,18,41)        124.5732         estimate D2E/DX2                !
 ! D94   D(17,18,19,20)        -40.094          estimate D2E/DX2                !
 ! D95   D(17,18,19,42)        120.1038         estimate D2E/DX2                !
 ! D96   D(41,18,19,20)         45.7567         estimate D2E/DX2                !
 ! D97   D(41,18,19,42)       -154.0455         estimate D2E/DX2                !
 ! D98   D(18,19,20,15)         -2.0651         estimate D2E/DX2                !
 ! D99   D(18,19,20,21)        178.5864         estimate D2E/DX2                !
 ! D100  D(42,19,20,15)       -163.0246         estimate D2E/DX2                !
 ! D101  D(42,19,20,21)         17.6268         estimate D2E/DX2                !
 ! D102  D(15,20,21,22)         -7.2129         estimate D2E/DX2                !
 ! D103  D(19,20,21,22)        172.098          estimate D2E/DX2                !
 ! D104  D(20,21,22,23)          3.2235         estimate D2E/DX2                !
 ! D105  D(20,21,22,43)       -173.2364         estimate D2E/DX2                !
 ! D106  D(21,22,23,14)         -2.2289         estimate D2E/DX2                !
 ! D107  D(21,22,23,24)        179.3705         estimate D2E/DX2                !
 ! D108  D(43,22,23,14)        173.7717         estimate D2E/DX2                !
 ! D109  D(43,22,23,24)         -4.6289         estimate D2E/DX2                !
 ! D110  D(14,23,24,4)        -172.1195         estimate D2E/DX2                !
 ! D111  D(14,23,24,8)          -8.7187         estimate D2E/DX2                !
 ! D112  D(22,23,24,4)           6.2288         estimate D2E/DX2                !
 ! D113  D(22,23,24,8)         169.6296         estimate D2E/DX2                !
 ! D114  D(6,25,26,27)         176.1019         estimate D2E/DX2                !
 ! D115  D(33,25,26,27)         12.6773         estimate D2E/DX2                !
 ! D116  D(6,25,33,29)        -176.1923         estimate D2E/DX2                !
 ! D117  D(6,25,33,32)           2.8775         estimate D2E/DX2                !
 ! D118  D(26,25,33,29)        -14.0526         estimate D2E/DX2                !
 ! D119  D(26,25,33,32)        165.0173         estimate D2E/DX2                !
 ! D120  D(25,26,27,28)         -1.9707         estimate D2E/DX2                !
 ! D121  D(25,26,27,44)        174.9419         estimate D2E/DX2                !
 ! D122  D(26,27,28,29)         -7.0455         estimate D2E/DX2                !
 ! D123  D(26,27,28,45)        172.9079         estimate D2E/DX2                !
 ! D124  D(44,27,28,29)        176.0824         estimate D2E/DX2                !
 ! D125  D(44,27,28,45)         -3.9642         estimate D2E/DX2                !
 ! D126  D(27,28,29,30)       -177.5713         estimate D2E/DX2                !
 ! D127  D(27,28,29,33)          4.7355         estimate D2E/DX2                !
 ! D128  D(45,28,29,30)          2.4747         estimate D2E/DX2                !
 ! D129  D(45,28,29,33)       -175.2185         estimate D2E/DX2                !
 ! D130  D(28,29,30,31)        177.2132         estimate D2E/DX2                !
 ! D131  D(33,29,30,31)         -4.8813         estimate D2E/DX2                !
 ! D132  D(28,29,33,25)          6.1912         estimate D2E/DX2                !
 ! D133  D(28,29,33,32)       -173.0165         estimate D2E/DX2                !
 ! D134  D(30,29,33,25)       -171.7323         estimate D2E/DX2                !
 ! D135  D(30,29,33,32)          9.06           estimate D2E/DX2                !
 ! D136  D(29,30,31,32)          0.1785         estimate D2E/DX2                !
 ! D137  D(30,31,32,33)          5.0662         estimate D2E/DX2                !
 ! D138  D(31,32,33,25)        172.6936         estimate D2E/DX2                !
 ! D139  D(31,32,33,29)         -8.1721         estimate D2E/DX2                !
 --------------------------------------------------------------------------------
 Trust Radius=3.00D-01 FncErr=1.00D-07 GrdErr=1.00D-06
 Number of steps in this run=    270 maximum allowed number of steps=    270.
 GradGradGradGradGradGradGradGradGradGradGradGradGradGradGradGradGradGrad

                          Input orientation:                          
 ---------------------------------------------------------------------
 Center     Atomic      Atomic             Coordinates (Angstroms)
 Number     Number       Type             X           Y           Z
 ---------------------------------------------------------------------
      1          6           0        2.549560   -1.210820   -1.259430
      2          8           0        2.189240   -1.146310    0.358720
      3          6           0        3.349550   -1.840060    0.562230
      4          6           0        3.976790   -0.816730   -0.207830
      5          6           0        4.056070   -1.709430   -1.250470
      6          6           0        5.694690   -2.050910   -1.185360
      7          6           0        6.646810   -1.171470   -0.526820
      8          6           0        6.226450    0.005560    0.051450
      9          6           0        7.046430    1.112720    0.431300
     10          6           0        8.426690    1.173420    0.403370
     11         16           0        9.041730    2.684870    0.912330
     12          6           0        7.457700    3.261240    1.121700
     13          6           0        6.450410    2.353930    0.840500
     14          6           0        5.023270    2.577370    0.902720
     15          6           0        4.326430    3.753180    1.283120
     16          6           0        4.990890    4.826930    1.903870
     17          6           0        4.291070    5.820690    2.575000
     18          6           0        3.468680    6.419110    1.708330
     19          6           0        2.613080    5.318460    1.393920
     20          6           0        3.008730    3.951610    1.193310
     21          7           0        2.170800    2.899580    0.918230
     22          6           0        2.799290    1.738100    0.605690
     23          6           0        4.193390    1.459530    0.588260
     24          6           0        4.831960    0.207190    0.262610
     25          6           0        6.435070   -3.363980   -1.500440
     26          7           0        7.774650   -3.316950   -2.003770
     27          6           0        8.558130   -4.446950   -2.245940
     28          6           0        8.207160   -5.766400   -2.014390
     29          6           0        6.980540   -5.870080   -1.335940
     30          7           0        6.435030   -7.032960   -0.947940
     31         16           0        5.045590   -6.649140   -0.129870
     32          7           0        5.055580   -4.991980   -0.226110
     33          6           0        6.096140   -4.656420   -1.005470
     34          1           0        1.734590   -0.418470   -1.223730
     35          1           0        2.977810   -2.853140    0.211060
     36          1           0        7.714120   -1.409490   -0.488030
     37          1           0        9.189590    0.459970    0.144200
     38          1           0        7.487750    4.269440    1.455340
     39          1           0        6.002040    5.006090    1.719470
     40          1           0        3.537240    5.835540    3.376260
     41          1           0        4.335540    7.111950    1.673280
     42          1           0        1.554480    5.426660    1.610320
     43          1           0        2.046470    1.012930    0.290830
     44          1           0        9.533970   -4.260370   -2.712590
     45          1           0        8.799800   -6.624800   -2.316650
 ---------------------------------------------------------------------
                    Distance matrix (angstroms):
                    1          2          3          4          5
     1  C    0.000000
     2  O    1.659036   0.000000
     3  C    2.086713   1.367123   0.000000
     4  C    1.816082   1.903927   1.426053   0.000000
     5  C    1.586904   2.528171   1.949902   1.374881   0.000000
     6  C    3.256237   3.935818   2.932270   2.330224   1.675089
     7  C    4.162418   4.544749   3.536236   2.712306   2.743174
     8  C    4.088705   4.209547   3.455975   2.409223   3.057243
     9  C    5.336595   5.357311   4.733178   3.681570   4.442424
    10  C    6.556688   6.654992   5.906238   4.912827   5.490749
    11  S    7.876624   7.870263   7.280005   6.258560   6.988876
    12  C    7.054002   6.911245   6.573672   5.523968   6.473472
    13  C    5.686280   5.535464   5.223248   4.155824   5.159061
    14  C    5.014431   4.710993   4.736133   3.721338   4.893706
    15  C    5.853471   5.424675   5.723488   4.819674   6.027626
    16  C    7.240234   6.776159   6.995910   6.110530   7.317633
    17  C    8.196209   7.607146   7.976515   7.204045   8.449388
    18  C    8.238217   7.790635   8.339162   7.502481   8.670218
    19  C    7.048106   6.560833   7.244205   6.485820   7.646323
    20  C    5.733886   5.230382   5.835911   5.063339   6.254307
    21  N    4.667017   4.084436   4.896976   4.282589   5.431434
    22  C    3.498166   2.958543   3.620484   2.928392   4.112212
    23  C    3.639630   3.295407   3.405883   2.421164   3.666346
    24  C    3.088156   2.970718   2.545298   1.414582   2.562196
    25  C    4.448749   5.138250   4.012153   3.768616   2.908550
    26  N    5.682551   6.441261   5.324197   4.888787   4.120609
    27  C    6.895553   7.631595   6.466143   6.190401   5.362231
    28  C    7.302856   7.949355   6.756589   6.757139   5.854411
    29  C    6.430252   6.938475   5.747017   5.985941   5.086338
    30  N    7.006512   7.374737   6.226316   6.725490   5.838745
    31  S    6.089450   6.219212   5.146145   5.930044   5.160972
    32  N    4.652425   4.831885   3.669689   4.312405   3.580987
    33  C    4.951251   5.426394   4.234776   4.457700   3.592584
    34  H    1.137220   1.800168   2.796188   2.493617   2.656419
    35  H    2.245652   1.885978   1.134831   2.306598   2.146343
    36  H    5.225630   5.595583   4.509757   3.794405   3.748681
    37  H    6.989400   7.185475   6.290545   5.378399   5.744948
    38  H    7.860595   7.655529   7.432922   6.400164   7.405722
    39  H    7.709957   7.364856   7.432676   6.459207   7.596417
    40  H    8.492133   7.724563   8.177336   7.569122   8.865799
    41  H    9.003278   8.633280   9.074420   8.156669   9.297482
    42  H    7.299438   6.721113   7.558174   6.939249   8.084915
    43  H    2.757076   2.165020   3.148210   2.706003   3.718244
    44  H    7.758441   8.548414   7.404688   7.001052   6.217112
    45  H    8.336330   8.992828   7.803007   7.838509   6.913796
                    6          7          8          9         10
     6  C    0.000000
     7  C    1.453830   0.000000
     8  C    2.457954   1.377134   0.000000
     9  C    3.801229   2.509027   1.429145   0.000000
    10  C    4.514885   3.087351   2.515711   1.381876   0.000000
    11  S    6.166895   4.762158   3.980655   2.585395   1.709326
    12  C    6.053897   4.798341   3.641547   2.293890   2.411210
    13  C    4.906917   3.786368   2.487489   1.436415   2.343154
    14  C    5.121705   4.328195   2.964205   2.541774   3.715332
    15  C    6.453913   5.736918   4.378555   3.885361   4.923541
    16  C    7.572540   6.680653   5.310713   4.493224   5.234917
    17  C    8.835867   8.003818   6.627951   5.861095   6.589116
    18  C    9.223329   8.527210   7.175247   6.526015   7.334988
    19  C    8.393844   7.879049   6.563960   6.186233   7.208371
    20  C    6.993046   6.514631   5.218130   4.994294   6.139759
    21  N    6.430415   6.220634   5.057169   5.215528   6.510059
    22  C    5.093898   4.954956   3.879987   4.296476   5.659278
    23  C    4.209848   3.766276   2.556468   2.878324   4.246984
    24  C    2.817789   2.411967   1.424726   2.398399   3.724983
    25  C    1.539997   2.408292   3.715600   4.913881   5.308393
    26  N    2.568830   2.838395   4.202371   5.107039   5.136429
    27  C    3.881382   4.163807   5.526263   6.353171   6.214876
    28  C    4.561213   5.075523   6.442548   7.392630   7.352201
    29  C    4.032635   4.779434   6.084131   7.203261   7.397800
    30  N    5.042350   5.880413   7.112176   8.284215   8.552042
    31  S    4.762259   5.720694   6.761090   8.035219   8.538655
    32  N    3.158879   4.149546   5.140368   6.454691   7.054983
    33  C    2.642386   3.560508   4.782062   6.020825   6.434542
    34  H    4.283541   5.018227   4.688570   5.770556   7.068647
    35  H    3.158322   4.102931   4.330277   5.685967   6.777939
    36  H    2.230647   1.094216   2.122868   2.766319   2.823787
    37  H    4.504062   3.094769   2.999215   2.258682   1.076195
    38  H    7.080620   5.851465   4.662881   3.347880   3.401998
    39  H    7.637653   6.604831   5.276168   4.231839   4.722331
    40  H    9.362642   8.602421   7.230137   6.579683   7.381068
    41  H    9.694179   8.876793   7.530382   6.699418   7.322316
    42  H    8.992843   8.604331   7.324323   7.082491   8.171539
    43  H    4.987561   5.157837   4.306313   5.002928   6.383230
    44  H    4.685533   4.759683   6.064467   6.703879   6.360924
    45  H    5.642871   6.130062   7.496112   8.396115   8.267403
                   11         12         13         14         15
    11  S    0.000000
    12  C    1.698584   0.000000
    13  C    2.613354   1.384528   0.000000
    14  C    4.019909   2.538125   1.445865   0.000000
    15  C    4.849003   3.173785   2.581686   1.418739   0.000000
    16  C    4.688377   3.024620   3.062137   2.462493   1.407045
    17  C    5.930144   4.323241   4.437304   3.721796   2.438196
    18  C    6.755520   5.121382   5.115616   4.221934   2.832617
    19  C    6.963854   5.270351   4.880555   3.682916   2.323348
    20  C    6.170954   4.502785   3.810803   2.455881   1.335580
    21  N    6.874286   5.303160   4.314955   2.870652   2.347023
    22  C    6.321270   4.928185   3.710129   2.395556   2.617559
    23  C    5.011275   3.766489   2.440843   1.427288   2.400283
    24  C    4.927798   4.118224   2.749878   2.462538   3.724385
    25  C    7.014608   7.198259   6.178570   6.562621   7.927707
    26  N    6.791979   7.289829   6.480923   7.124660   8.525292
    27  C    7.814819   8.483404   7.760191   8.470559   9.879458
    28  C    8.982548   9.586190   8.785006   9.394955  10.796112
    29  C    9.082422   9.468299   8.523630   8.955552  10.320412
    30  N   10.231897  10.549873   9.555755   9.888198  11.214483
    31  S   10.206814  10.276202   9.163537   9.284138  10.522452
    32  N    8.724647   8.700713   7.552854   7.653127   8.904339
    33  C    8.139349   8.310718   7.257969   7.557775   8.893306
    34  H    8.221178   7.196895   5.846897   4.930747   5.514036
    35  H    8.242115   7.634417   6.290368   5.844034   6.827265
    36  H    4.526294   4.946989   4.186321   5.006986   6.423907
    37  H    2.358403   3.435413   3.402209   4.734655   5.982700
    38  H    2.284858   1.062396   2.263467   3.040091   3.207823
    39  H    3.908868   2.349633   2.829766   2.742946   2.137254
    40  H    6.804196   5.203851   5.199831   4.352282   3.056187
    41  H    6.505867   4.987995   5.273040   4.650715   3.381367
    42  H    8.003969   6.306806   5.831331   4.544409   3.254428
    43  H    7.219093   5.918332   4.636281   3.418073   3.700247
    44  H    7.849758   8.694095   8.116758   8.953858  10.358627
    45  H    9.856713  10.552595   9.803307  10.454973  11.860517
                   16         17         18         19         20
    16  C    0.000000
    17  C    1.388424   0.000000
    18  C    2.211424   1.336244   0.000000
    19  C    2.481054   2.112542   1.429103   0.000000
    20  C    2.280359   2.654604   2.562295   1.437032   0.000000
    21  N    3.555147   3.971563   3.833516   2.504570   1.372794
    22  C    4.003655   4.771911   4.855487   3.670825   2.299737
    23  C    3.702191   4.793370   5.135873   4.247094   2.824884
    24  C    4.905200   6.095170   6.522008   5.685804   4.267441
    25  C    8.986990  10.274440  10.714687   9.918150   8.515512
    26  N    9.452077  10.798006  11.274393  10.618682   9.261062
    27  C   10.768053  12.119146  12.633686  11.998143  10.637673
    28  C   11.743756  13.063649  13.594061  12.875730  11.478359
    29  C   11.352581  12.617559  13.138681  12.317072  10.892106
    30  N   12.283133  13.499037  14.029012  13.139604  11.704070
    31  S   11.655011  12.782108  13.290778  12.307010  10.875454
    32  N   10.047487  11.195737  11.682178  10.718931   9.283973
    33  C    9.980970  11.218194  11.701949  10.834529   9.405579
    34  H    6.920953   7.739060   7.639146   6.366805   5.153942
    35  H    8.117978   9.085604   9.405179   8.264819   6.875347
    36  H    7.213189   8.565917   9.172499   8.650298   7.328642
    37  H    6.308396   7.657781   8.407536   8.271470   7.176016
    38  H    2.597361   3.725423   4.564867   4.986644   4.497921
    39  H    1.043324   2.079164   2.900804   3.418861   3.216936
    40  H    2.301809   1.100226   1.768402   2.247469   2.931516
    41  H    2.388299   1.575573   1.110271   2.502302   3.461003
    42  H    3.500680   2.928275   2.158408   1.085896   2.112939
    43  H    5.081152   5.776696   5.767042   4.480563   3.221219
    44  H   11.159314  12.532932  13.053106  12.510641  11.192472
    45  H   12.785253  14.111949  14.654859  13.952967  12.558533
                   21         22         23         24         25
    21  N    0.000000
    22  C    1.357099   0.000000
    23  C    2.504694   1.421766   0.000000
    24  C    3.841949   2.567710   1.442974   0.000000
    25  C    7.954002   6.609531   5.714372   4.293200   0.000000
    26  N    8.864901   7.557580   6.508364   5.120104   1.431792
    27  C   10.236282   8.919130   7.872112   6.468244   2.497194
    28  C   10.960708   9.613917   8.665922   7.229141   3.029203
    29  C   10.252893   8.895908   8.074276   6.641157   2.570046
    30  N   10.969120   9.621012   8.916684   7.513657   3.710346
    31  S   10.027013   8.713938   8.184894   6.870876   3.821177
    32  N    8.479870   7.146797   6.559615   5.226875   2.485416
    33  C    8.729379   7.372580   6.600400   5.182748   1.424875
    34  H    3.973377   3.021781   3.585511   3.492042   5.554017
    35  H    5.851935   4.611625   4.496558   3.578568   3.891380
    36  H    7.160590   5.937937   4.667464   3.388799   2.545776
    37  H    7.470892   6.533186   5.114521   4.366561   4.991474
    38  H    5.516789   5.395484   4.415906   4.997770   8.253113
    39  H    4.444971   4.709339   4.138712   5.149851   8.978497
    40  H    4.065579   5.000964   5.230004   6.561207  10.807904
    41  H    4.795859   5.690174   5.757372   7.064852  11.145655
    42  H    2.691649   4.020486   4.873046   6.308808  10.524844
    43  H    1.992119   1.091671   2.212958   2.899822   6.451806
    44  H   10.893301   9.609815   8.493213   7.135811   3.446158
    45  H   12.046655  10.699733   9.747508   8.310982   4.109878
                   26         27         28         29         30
    26  N    0.000000
    27  C    1.396205   0.000000
    28  C    2.487365   1.384826   0.000000
    29  C    2.755917   2.311318   1.405575   0.000000
    30  N    4.088776   3.588845   2.425270   1.341795   0.000000
    31  S    4.697101   4.654603   3.784993   2.409475   1.657438
    32  N    3.655016   4.079783   3.705419   2.389195   2.567006
    33  C    2.368159   2.764785   2.589668   1.537642   2.401270
    34  H    6.744774   7.989635   8.433247   7.566547   8.119216
    35  H    5.303797   6.302147   6.386377   5.245663   5.546760
    36  H    2.437116   3.609538   4.642793   4.599343   5.785413
    37  H    4.569568   5.494486   6.662759   6.865876   8.057566
    38  H    8.342725   9.529986  10.643057  10.528930  11.602940
    39  H    9.288577  10.564944  11.612528  11.339491  12.338609
    40  H   11.431030  12.749434  13.618821  13.079858  13.881433
    41  H   11.580593  12.915058  13.944183  13.586189  14.538127
    42  H   11.322671  12.704725  13.515963  12.873962  13.623751
    43  H    7.538242   8.868326   9.446029   8.623645   9.248262
    44  H    2.118413   1.097651   2.125096   3.317580   4.517153
    45  H    3.477168   2.192358   1.086017   2.200250   2.762625
                   31         32         33         34         35
    31  S    0.000000
    32  N    1.659982   0.000000
    33  C    2.416871   1.342672   0.000000
    34  H    7.140063   5.739444   6.085308   0.000000
    35  H    4.336077   3.013782   3.802071   3.087367   0.000000
    36  H    5.890948   4.468856   3.664445   6.105584   5.000548
    37  H    8.233304   6.852075   6.088400   7.630198   7.040410
    38  H   11.300107   9.721966   9.362860   7.890042   8.521675
    39  H   11.839731  10.229490  10.039833   7.503293   8.555043
    40  H   13.055087  11.511630  11.654559   7.970075   9.264157
    41  H   13.896874  12.273193  12.197129   8.477313  10.162900
    42  H   12.690195  11.143529  11.363870   6.498448   8.516976
    43  H    8.238873   6.736536   7.086731   2.107147   3.977468
    44  H    5.702826   5.174342   3.858729   8.820841   7.315139
    45  H    4.344732   4.588643   3.592143   9.467323   7.383109
                   36         37         38         39         40
    36  H    0.000000
    37  H    2.464063   0.000000
    38  H    6.006511   4.373489   0.000000
    39  H    6.997424   5.771409   1.679212   0.000000
    40  H    9.212466   8.443460   4.663596   3.083534   0.000000
    41  H    9.418121   8.375484   4.250152   2.685889   2.273026
    42  H    9.438071   9.225639   6.047055   4.468734   2.686459
    43  H    6.212648   7.165991   6.447361   5.799386   5.916066
    44  H    4.048214   5.528242   9.711659  10.862088  13.227330
    45  H    5.632230   7.510106  11.603183  12.625186  14.675280
                   41         42         43         44         45
    41  H    0.000000
    42  H    3.252455   0.000000
    43  H    6.659509   4.632939   0.000000
    44  H   13.251007  13.273973   9.637992   0.000000
    45  H   14.984908  14.599775  10.523371   2.507250   0.000000
 Stoichiometry    C26H12N4OS2
 Framework group  C1[X(C26H12N4OS2)]
 Deg. of freedom   129
 Full point group                 C1      NOp   1
 Largest Abelian subgroup         C1      NOp   1
 Largest concise Abelian subgroup C1      NOp   1
                         Standard orientation:                         
 ---------------------------------------------------------------------
 Center     Atomic      Atomic             Coordinates (Angstroms)
 Number     Number       Type             X           Y           Z
 ---------------------------------------------------------------------
      1          6           0       -0.671888   -2.943544    1.360086
      2          8           0       -0.144554   -3.354226   -0.158354
      3          6           0       -0.954992   -2.355588   -0.621966
      4          6           0       -0.280185   -1.513988    0.310756
      5          6           0       -1.404633   -1.560072    1.100559
      6          6           0       -1.996431   -0.019729    0.812391
      7          6           0       -1.158354    1.052198    0.300315
      8          6           0        0.180008    0.837248    0.057248
      9          6           0        1.188340    1.834479   -0.119538
     10          6           0        1.001129    3.201278   -0.199507
     11         16           0        2.462268    4.068250   -0.387205
     12          6           0        3.336953    2.614049   -0.313621
     13          6           0        2.575978    1.466559   -0.168358
     14          6           0        3.050585    0.105948   -0.049991
     15          6           0        4.386108   -0.371999   -0.077605
     16          6           0        5.449532    0.456021   -0.481697
     17          6           0        6.684630   -0.071686   -0.833524
     18          6           0        7.180490   -0.728372    0.219298
     19          6           0        6.200832   -1.762125    0.337454
     20          6           0        4.780076   -1.623447    0.172277
     21          7           0        3.853512   -2.632370    0.262371
     22          6           0        2.560363   -2.221683    0.233748
     23          6           0        2.050097   -0.905815    0.061870
     24          6           0        0.665359   -0.501833    0.023477
     25          6           0       -3.453962    0.472217    0.740401
     26          7           0       -3.765789    1.816902    1.120681
     27          6           0       -5.038118    2.382574    1.017821
     28          6           0       -6.177102    1.779187    0.511479
     29          6           0       -5.895051    0.527121   -0.061600
     30          7           0       -6.812252   -0.244268   -0.665020
     31         16           0       -6.002747   -1.570010   -1.243130
     32          7           0       -4.449388   -1.243185   -0.757537
     33          6           0       -4.503565   -0.125550   -0.015429
     34          1           0        0.232618   -3.595014    1.585311
     35          1           0       -1.943839   -2.896527   -0.490017
     36          1           0       -1.559585    2.052706    0.112416
     37          1           0        0.125035    3.826140   -0.185232
     38          1           0        4.375714    2.819594   -0.399716
     39          1           0        5.399831    1.489769   -0.349709
     40          1           0        7.028715   -0.842792   -1.538859
     41          1           0        7.682420    0.254405    0.341426
     42          1           0        6.540524   -2.789539    0.246893
     43          1           0        1.920656   -3.083684    0.432429
     44          1           0       -5.145076    3.395180    1.427733
     45          1           0       -7.172700    2.211488    0.548007
 ---------------------------------------------------------------------
 Rotational constants (GHZ):      0.2515890      0.0648571      0.0535955
 Standard basis: 6-31++G(d,p) (6D, 7F)
 There are   707 symmetry adapted basis functions of A   symmetry.
 Integral buffers will be    131072 words long.
 Raffenetti 2 integral format.
 Two-electron integral symmetry is turned on.
   707 basis functions,  1200 primitive gaussians,   707 cartesian basis functions
   118 alpha electrons      118 beta electrons
       nuclear repulsion energy      3322.6764570659 Hartrees.
 NAtoms=   45 NActive=   45 NUniq=   45 SFac= 1.00D+00 NAtFMM=   60 NAOKFM=F Big=F
 One-electron integrals computed using PRISM.
 NBasis=   707 RedAO= T  NBF=   707
 NBsUse=   694 1.00D-06 NBFU=   694
 Harris functional with IExCor=  402 diagonalized for initial guess.
 ExpMin= 3.60D-02 ExpMax= 2.19D+04 ExpMxC= 3.30D+03 IAcc=3 IRadAn=         5 AccDes= 0.00D+00
 HarFok:  IExCor=  402 AccDes= 0.00D+00 IRadAn=         5 IDoV= 1
 ScaDFX=  1.000000  1.000000  1.000000  1.000000
 FoFCou: FMM=F IPFlag=           0 FMFlag=      100000 FMFlg1=           0
         NFxFlg=           0 DoJE=T BraDBF=F KetDBF=T FulRan=T
         Omega=  0.000000  0.000000  1.000000  0.000000  0.000000 ICntrl=     500 IOpCl=  0
         NMat0=    1 NMatS0=    1 NMatT0=    0 NMatD0=    1 NMtDS0=    0 NMtDT0=    0
         I1Cent=           4 NGrid=           0.
 Petite list used in FoFCou.
 Initial guess orbital symmetries:
       Occupied  (A) (A) (A) (A) (A) (A) (A) (A) (A) (A) (A) (A)
                 (A) (A) (A) (A) (A) (A) (A) (A) (A) (A) (A) (A)
                 (A) (A) (A) (A) (A) (A) (A) (A) (A) (A) (A) (A)
                 (A) (A) (A) (A) (A) (A) (A) (A) (A) (A) (A) (A)
                 (A) (A) (A) (A) (A) (A) (A) (A) (A) (A) (A) (A)
                 (A) (A) (A) (A) (A) (A) (A) (A) (A) (A) (A) (A)
                 (A) (A) (A) (A) (A) (A) (A) (A) (A) (A) (A) (A)
                 (A) (A) (A) (A) (A) (A) (A) (A) (A) (A) (A) (A)
                 (A) (A) (A) (A) (A) (A) (A) (A) (A) (A) (A) (A)
                 (A) (A) (A) (A) (A) (A) (A) (A) (A) (A)
       Virtual   (A) (A) (A) (A) (A) (A) (A) (A) (A) (A) (A) (A)
                 (A) (A) (A) (A) (A) (A) (A) (A) (A) (A) (A) (A)
                 (A) (A) (A) (A) (A) (A) (A) (A) (A) (A) (A) (A)
                 (A) (A) (A) (A) (A) (A) (A) (A) (A) (A) (A) (A)
                 (A) (A) (A) (A) (A) (A) (A) (A) (A) (A) (A) (A)
                 (A) (A) (A) (A) (A) (A) (A) (A) (A) (A) (A) (A)
                 (A) (A) (A) (A) (A) (A) (A) (A) (A) (A) (A) (A)
                 (A) (A) (A) (A) (A) (A) (A) (A) (A) (A) (A) (A)
                 (A) (A) (A) (A) (A) (A) (A) (A) (A) (A) (A) (A)
                 (A) (A) (A) (A) (A) (A) (A) (A) (A) (A) (A) (A)
                 (A) (A) (A) (A) (A) (A) (A) (A) (A) (A) (A) (A)
                 (A) (A) (A) (A) (A) (A) (A) (A) (A) (A) (A) (A)
                 (A) (A) (A) (A) (A) (A) (A) (A) (A) (A) (A) (A)
                 (A) (A) (A) (A) (A) (A) (A) (A) (A) (A) (A) (A)
                 (A) (A) (A) (A) (A) (A) (A) (A) (A) (A) (A) (A)
                 (A) (A) (A) (A) (A) (A) (A) (A) (A) (A) (A) (A)
                 (A) (A) (A) (A) (A) (A) (A) (A) (A) (A) (A) (A)
                 (A) (A) (A) (A) (A) (A) (A) (A) (A) (A) (A) (A)
                 (A) (A) (A) (A) (A) (A) (A) (A) (A) (A) (A) (A)
                 (A) (A) (A) (A) (A) (A) (A) (A) (A) (A) (A) (A)
                 (A) (A) (A) (A) (A) (A) (A) (A) (A) (A) (A) (A)
                 (A) (A) (A) (A) (A) (A) (A) (A) (A) (A) (A) (A)
                 (A) (A) (A) (A) (A) (A) (A) (A) (A) (A) (A) (A)
                 (A) (A) (A) (A) (A) (A) (A) (A) (A) (A) (A) (A)
                 (A) (A) (A) (A) (A) (A) (A) (A) (A) (A) (A) (A)
                 (A) (A) (A) (A) (A) (A) (A) (A) (A) (A) (A) (A)
                 (A) (A) (A) (A) (A) (A) (A) (A) (A) (A) (A) (A)
                 (A) (A) (A) (A) (A) (A) (A) (A) (A) (A) (A) (A)
                 (A) (A) (A) (A) (A) (A) (A) (A) (A) (A) (A) (A)
                 (A) (A) (A) (A) (A) (A) (A) (A) (A) (A) (A) (A)
                 (A) (A) (A) (A) (A) (A) (A) (A) (A) (A) (A) (A)
                 (A) (A) (A) (A) (A) (A) (A) (A) (A) (A) (A) (A)
                 (A) (A) (A) (A) (A) (A) (A) (A) (A) (A) (A) (A)
                 (A) (A) (A) (A) (A) (A) (A) (A) (A) (A) (A) (A)
                 (A) (A) (A) (A) (A) (A) (A) (A) (A) (A) (A) (A)
                 (A) (A) (A) (A) (A) (A) (A) (A) (A) (A) (A) (A)
                 (A) (A) (A) (A) (A) (A) (A) (A) (A) (A) (A) (A)
                 (A) (A) (A) (A) (A) (A) (A) (A) (A) (A) (A) (A)
                 (A) (A) (A) (A) (A) (A) (A) (A) (A) (A) (A) (A)
                 (A) (A) (A) (A) (A) (A) (A) (A) (A) (A) (A) (A)
                 (A) (A) (A) (A) (A) (A) (A) (A) (A) (A) (A) (A)
                 (A) (A) (A) (A) (A) (A) (A) (A) (A) (A) (A) (A)
                 (A) (A) (A) (A) (A) (A) (A) (A) (A) (A) (A) (A)
                 (A) (A) (A) (A) (A) (A) (A) (A) (A) (A) (A) (A)
                 (A) (A) (A) (A) (A) (A) (A) (A) (A) (A) (A) (A)
                 (A) (A) (A) (A) (A) (A) (A) (A) (A) (A) (A) (A)
                 (A) (A) (A) (A) (A) (A) (A) (A) (A) (A) (A) (A)
                 (A) (A) (A) (A) (A) (A) (A) (A) (A) (A) (A) (A)
 The electronic state of the initial guess is 1-A.
 Requested convergence on RMS density matrix=1.00D-08 within 128 cycles.
 Requested convergence on MAX density matrix=1.00D-06.
 Requested convergence on             energy=1.00D-06.
 No special actions if energy rises.
 Rare condition: small coef for last iteration:  0.000D+00
 EnCoef did   100 forward-backward iterations
 EnCoef did   100 forward-backward iterations
 EnCoef did   100 forward-backward iterations
 EnCoef did     5 forward-backward iterations
 EnCoef did     3 forward-backward iterations
 Restarting incremental Fock formation.
 SCF Done:  E(RB3LYP) =  -2087.68699043     A.U. after   35 cycles
             Convg  =    0.7364D-08             -V/T =  2.0067

 **********************************************************************

            Population analysis using the SCF density.

 **********************************************************************

 Orbital symmetries:
       Occupied  (A) (A) (A) (A) (A) (A) (A) (A) (A) (A) (A) (A)
                 (A) (A) (A) (A) (A) (A) (A) (A) (A) (A) (A) (A)
                 (A) (A) (A) (A) (A) (A) (A) (A) (A) (A) (A) (A)
                 (A) (A) (A) (A) (A) (A) (A) (A) (A) (A) (A) (A)
                 (A) (A) (A) (A) (A) (A) (A) (A) (A) (A) (A) (A)
                 (A) (A) (A) (A) (A) (A) (A) (A) (A) (A) (A) (A)
                 (A) (A) (A) (A) (A) (A) (A) (A) (A) (A) (A) (A)
                 (A) (A) (A) (A) (A) (A) (A) (A) (A) (A) (A) (A)
                 (A) (A) (A) (A) (A) (A) (A) (A) (A) (A) (A) (A)
                 (A) (A) (A) (A) (A) (A) (A) (A) (A) (A)
       Virtual   (A) (A) (A) (A) (A) (A) (A) (A) (A) (A) (A) (A)
                 (A) (A) (A) (A) (A) (A) (A) (A) (A) (A) (A) (A)
                 (A) (A) (A) (A) (A) (A) (A) (A) (A) (A) (A) (A)
                 (A) (A) (A) (A) (A) (A) (A) (A) (A) (A) (A) (A)
                 (A) (A) (A) (A) (A) (A) (A) (A) (A) (A) (A) (A)
                 (A) (A) (A) (A) (A) (A) (A) (A) (A) (A) (A) (A)
                 (A) (A) (A) (A) (A) (A) (A) (A) (A) (A) (A) (A)
                 (A) (A) (A) (A) (A) (A) (A) (A) (A) (A) (A) (A)
                 (A) (A) (A) (A) (A) (A) (A) (A) (A) (A) (A) (A)
                 (A) (A) (A) (A) (A) (A) (A) (A) (A) (A) (A) (A)
                 (A) (A) (A) (A) (A) (A) (A) (A) (A) (A) (A) (A)
                 (A) (A) (A) (A) (A) (A) (A) (A) (A) (A) (A) (A)
                 (A) (A) (A) (A) (A) (A) (A) (A) (A) (A) (A) (A)
                 (A) (A) (A) (A) (A) (A) (A) (A) (A) (A) (A) (A)
                 (A) (A) (A) (A) (A) (A) (A) (A) (A) (A) (A) (A)
                 (A) (A) (A) (A) (A) (A) (A) (A) (A) (A) (A) (A)
                 (A) (A) (A) (A) (A) (A) (A) (A) (A) (A) (A) (A)
                 (A) (A) (A) (A) (A) (A) (A) (A) (A) (A) (A) (A)
                 (A) (A) (A) (A) (A) (A) (A) (A) (A) (A) (A) (A)
                 (A) (A) (A) (A) (A) (A) (A) (A) (A) (A) (A) (A)
                 (A) (A) (A) (A) (A) (A) (A) (A) (A) (A) (A) (A)
                 (A) (A) (A) (A) (A) (A) (A) (A) (A) (A) (A) (A)
                 (A) (A) (A) (A) (A) (A) (A) (A) (A) (A) (A) (A)
                 (A) (A) (A) (A) (A) (A) (A) (A) (A) (A) (A) (A)
                 (A) (A) (A) (A) (A) (A) (A) (A) (A) (A) (A) (A)
                 (A) (A) (A) (A) (A) (A) (A) (A) (A) (A) (A) (A)
                 (A) (A) (A) (A) (A) (A) (A) (A) (A) (A) (A) (A)
                 (A) (A) (A) (A) (A) (A) (A) (A) (A) (A) (A) (A)
                 (A) (A) (A) (A) (A) (A) (A) (A) (A) (A) (A) (A)
                 (A) (A) (A) (A) (A) (A) (A) (A) (A) (A) (A) (A)
                 (A) (A) (A) (A) (A) (A) (A) (A) (A) (A) (A) (A)
                 (A) (A) (A) (A) (A) (A) (A) (A) (A) (A) (A) (A)
                 (A) (A) (A) (A) (A) (A) (A) (A) (A) (A) (A) (A)
                 (A) (A) (A) (A) (A) (A) (A) (A) (A) (A) (A) (A)
                 (A) (A) (A) (A) (A) (A) (A) (A) (A) (A) (A) (A)
                 (A) (A) (A) (A) (A) (A) (A) (A) (A) (A) (A) (A)
                 (A) (A) (A) (A) (A) (A) (A) (A) (A) (A) (A) (A)
                 (A) (A) (A) (A) (A) (A) (A) (A) (A) (A) (A) (A)
                 (A) (A) (A) (A) (A) (A) (A) (A) (A) (A) (A) (A)
                 (A) (A) (A) (A) (A) (A) (A) (A) (A) (A) (A) (A)
                 (A) (A) (A) (A) (A) (A) (A) (A) (A) (A) (A) (A)
                 (A) (A) (A) (A) (A) (A) (A) (A) (A) (A) (A) (A)
                 (A) (A) (A) (A) (A) (A) (A) (A) (A) (A) (A) (A)
                 (A) (A) (A) (A) (A) (A) (A) (A) (A) (A) (A) (A)
                 (A) (A) (A) (A) (A) (A) (A) (A) (A) (A) (A) (A)
                 (A) (A) (A) (A) (A) (A) (A) (A) (A) (A) (A) (A)
                 (A) (A) (A) (A) (A) (A) (A) (A) (A) (A) (A) (A)
                 (A) (A) (A) (A) (A) (A) (A) (A) (A) (A) (A) (A)
 The electronic state is 1-A.
 Alpha  occ. eigenvalues --  -88.99343 -88.94421 -19.15257 -14.39659 -14.39186
 Alpha  occ. eigenvalues --  -14.36836 -14.35030 -10.30249 -10.28949 -10.28636
 Alpha  occ. eigenvalues --  -10.27735 -10.27371 -10.27126 -10.25949 -10.25419
 Alpha  occ. eigenvalues --  -10.25334 -10.25025 -10.24891 -10.24284 -10.23869
 Alpha  occ. eigenvalues --  -10.23842 -10.23816 -10.23707 -10.23675 -10.23335
 Alpha  occ. eigenvalues --  -10.23317 -10.23271 -10.23215 -10.23053 -10.22830
 Alpha  occ. eigenvalues --  -10.22625 -10.21889 -10.21352  -8.04622  -8.00408
 Alpha  occ. eigenvalues --   -6.01181  -6.00596  -6.00380  -5.96776  -5.96413
 Alpha  occ. eigenvalues --   -5.96213  -1.08669  -1.02892  -0.96621  -0.93679
 Alpha  occ. eigenvalues --   -0.93100  -0.92514  -0.91322  -0.90154  -0.85915
 Alpha  occ. eigenvalues --   -0.84179  -0.81947  -0.80690  -0.79619  -0.77877
 Alpha  occ. eigenvalues --   -0.76643  -0.75547  -0.74041  -0.70281  -0.69252
 Alpha  occ. eigenvalues --   -0.67626  -0.66195  -0.64700  -0.64123  -0.63909
 Alpha  occ. eigenvalues --   -0.62325  -0.60712  -0.59724  -0.57573  -0.56783
 Alpha  occ. eigenvalues --   -0.56148  -0.55245  -0.53746  -0.53098  -0.52545
 Alpha  occ. eigenvalues --   -0.52354  -0.50549  -0.49613  -0.48973  -0.48340
 Alpha  occ. eigenvalues --   -0.48076  -0.47235  -0.46556  -0.45656  -0.45239
 Alpha  occ. eigenvalues --   -0.44925  -0.44265  -0.43515  -0.42679  -0.42129
 Alpha  occ. eigenvalues --   -0.41229  -0.40769  -0.40433  -0.40128  -0.39428
 Alpha  occ. eigenvalues --   -0.39204  -0.38472  -0.38003  -0.37628  -0.36619
 Alpha  occ. eigenvalues --   -0.36285  -0.35572  -0.34271  -0.33155  -0.32707
 Alpha  occ. eigenvalues --   -0.31963  -0.31804  -0.29162  -0.28999  -0.27719
 Alpha  occ. eigenvalues --   -0.27556  -0.26737  -0.25589  -0.24144  -0.22078
 Alpha  occ. eigenvalues --   -0.19648  -0.19361  -0.18184
 Alpha virt. eigenvalues --   -0.14472  -0.12504  -0.11014  -0.09087  -0.08046
 Alpha virt. eigenvalues --   -0.06295  -0.05481  -0.03955  -0.03297  -0.02911
 Alpha virt. eigenvalues --   -0.01847  -0.01639  -0.01268  -0.00937  -0.00251
 Alpha virt. eigenvalues --    0.00071   0.00411   0.01020   0.01302   0.01580
 Alpha virt. eigenvalues --    0.01911   0.02265   0.02388   0.02535   0.03053
 Alpha virt. eigenvalues --    0.03366   0.03924   0.04190   0.04366   0.04630
 Alpha virt. eigenvalues --    0.04901   0.05138   0.05337   0.06165   0.06280
 Alpha virt. eigenvalues --    0.06422   0.06748   0.07011   0.07372   0.07810
 Alpha virt. eigenvalues --    0.07887   0.08228   0.08647   0.08888   0.09171
 Alpha virt. eigenvalues --    0.09190   0.09494   0.09552   0.09744   0.10022
 Alpha virt. eigenvalues --    0.10291   0.10545   0.10741   0.10850   0.11320
 Alpha virt. eigenvalues --    0.11367   0.11463   0.11536   0.11774   0.12140
 Alpha virt. eigenvalues --    0.12487   0.12491   0.12743   0.13054   0.13106
 Alpha virt. eigenvalues --    0.13296   0.13431   0.13725   0.13849   0.13989
 Alpha virt. eigenvalues --    0.14492   0.14798   0.14993   0.15374   0.15542
 Alpha virt. eigenvalues --    0.15699   0.15922   0.16165   0.16410   0.16960
 Alpha virt. eigenvalues --    0.17046   0.17169   0.17316   0.17414   0.17553
 Alpha virt. eigenvalues --    0.17925   0.18400   0.18544   0.18749   0.18878
 Alpha virt. eigenvalues --    0.19131   0.19426   0.19752   0.19800   0.19949
 Alpha virt. eigenvalues --    0.20144   0.20459   0.20640   0.20875   0.21157
 Alpha virt. eigenvalues --    0.21299   0.21546   0.21740   0.21928   0.22088
 Alpha virt. eigenvalues --    0.22461   0.22834   0.23054   0.23331   0.23697
 Alpha virt. eigenvalues --    0.23898   0.23967   0.24283   0.24607   0.24724
 Alpha virt. eigenvalues --    0.25166   0.25340   0.25436   0.25529   0.25675
 Alpha virt. eigenvalues --    0.25821   0.26015   0.26394   0.26666   0.26757
 Alpha virt. eigenvalues --    0.27023   0.27358   0.27528   0.27776   0.27975
 Alpha virt. eigenvalues --    0.28411   0.28490   0.28638   0.28858   0.29003
 Alpha virt. eigenvalues --    0.29347   0.29646   0.29833   0.30399   0.30473
 Alpha virt. eigenvalues --    0.30740   0.30848   0.30957   0.31308   0.31512
 Alpha virt. eigenvalues --    0.32082   0.32323   0.32514   0.32787   0.33207
 Alpha virt. eigenvalues --    0.33360   0.33672   0.34128   0.34317   0.34582
 Alpha virt. eigenvalues --    0.35025   0.35356   0.35588   0.36221   0.36451
 Alpha virt. eigenvalues --    0.36541   0.36881   0.37055   0.37411   0.37482
 Alpha virt. eigenvalues --    0.38074   0.38274   0.38890   0.39175   0.39463
 Alpha virt. eigenvalues --    0.39607   0.40131   0.40438   0.40973   0.41063
 Alpha virt. eigenvalues --    0.41786   0.42494   0.43038   0.43212   0.43449
 Alpha virt. eigenvalues --    0.43726   0.44244   0.45205   0.45830   0.46413
 Alpha virt. eigenvalues --    0.47450   0.47540   0.47901   0.48802   0.49274
 Alpha virt. eigenvalues --    0.49599   0.50329   0.50975   0.51734   0.52134
 Alpha virt. eigenvalues --    0.53287   0.54929   0.55499   0.56480   0.57490
 Alpha virt. eigenvalues --    0.60575   0.61345   0.62498   0.62759   0.63735
 Alpha virt. eigenvalues --    0.64062   0.64565   0.65105   0.65613   0.66633
 Alpha virt. eigenvalues --    0.66894   0.67330   0.67661   0.68813   0.69169
 Alpha virt. eigenvalues --    0.69917   0.70288   0.70725   0.71084   0.71222
 Alpha virt. eigenvalues --    0.72149   0.72399   0.72563   0.73016   0.73627
 Alpha virt. eigenvalues --    0.73809   0.74366   0.74882   0.75079   0.76065
 Alpha virt. eigenvalues --    0.76502   0.76734   0.77342   0.77683   0.78647
 Alpha virt. eigenvalues --    0.78840   0.79773   0.80004   0.80301   0.80707
 Alpha virt. eigenvalues --    0.81118   0.81672   0.81814   0.82849   0.83112
 Alpha virt. eigenvalues --    0.83391   0.84074   0.84415   0.84787   0.85002
 Alpha virt. eigenvalues --    0.85109   0.85702   0.86354   0.87526   0.87783
 Alpha virt. eigenvalues --    0.88565   0.89649   0.90139   0.90949   0.90978
 Alpha virt. eigenvalues --    0.91796   0.91969   0.92998   0.93631   0.93816
 Alpha virt. eigenvalues --    0.94109   0.95585   0.96287   0.96840   0.97304
 Alpha virt. eigenvalues --    0.97868   0.98239   0.98925   0.99777   0.99808
 Alpha virt. eigenvalues --    1.00632   1.01165   1.01731   1.02520   1.03732
 Alpha virt. eigenvalues --    1.04090   1.04650   1.04844   1.05176   1.06443
 Alpha virt. eigenvalues --    1.06556   1.07165   1.07744   1.08262   1.08954
 Alpha virt. eigenvalues --    1.10048   1.11159   1.11345   1.11970   1.12597
 Alpha virt. eigenvalues --    1.13165   1.13976   1.14071   1.14528   1.14940
 Alpha virt. eigenvalues --    1.15315   1.16135   1.16567   1.17077   1.17462
 Alpha virt. eigenvalues --    1.17741   1.18639   1.18996   1.19249   1.19787
 Alpha virt. eigenvalues --    1.20102   1.21000   1.21463   1.22598   1.23149
 Alpha virt. eigenvalues --    1.23356   1.24198   1.24466   1.25719   1.26310
 Alpha virt. eigenvalues --    1.26879   1.27840   1.28252   1.28634   1.29329
 Alpha virt. eigenvalues --    1.29660   1.30465   1.30833   1.31512   1.32935
 Alpha virt. eigenvalues --    1.33191   1.33914   1.34136   1.34868   1.34905
 Alpha virt. eigenvalues --    1.36203   1.36681   1.37864   1.38325   1.38821
 Alpha virt. eigenvalues --    1.39326   1.40201   1.40654   1.40800   1.41837
 Alpha virt. eigenvalues --    1.42758   1.43392   1.45383   1.45995   1.46529
 Alpha virt. eigenvalues --    1.46819   1.49515   1.50777   1.51186   1.52086
 Alpha virt. eigenvalues --    1.53192   1.54455   1.54904   1.56274   1.58315
 Alpha virt. eigenvalues --    1.59049   1.60924   1.61737   1.62700   1.63162
 Alpha virt. eigenvalues --    1.65101   1.65456   1.66905   1.67688   1.68576
 Alpha virt. eigenvalues --    1.69058   1.69739   1.70743   1.71350   1.72529
 Alpha virt. eigenvalues --    1.73213   1.73850   1.74845   1.75619   1.76568
 Alpha virt. eigenvalues --    1.77062   1.77382   1.78540   1.78988   1.79385
 Alpha virt. eigenvalues --    1.81191   1.81850   1.82488   1.83245   1.83725
 Alpha virt. eigenvalues --    1.84434   1.84981   1.85747   1.86184   1.87256
 Alpha virt. eigenvalues --    1.88305   1.88567   1.89971   1.90909   1.92213
 Alpha virt. eigenvalues --    1.94009   1.94306   1.95443   1.96018   1.96932
 Alpha virt. eigenvalues --    1.97314   1.97724   2.00026   2.00411   2.00645
 Alpha virt. eigenvalues --    2.01911   2.02888   2.03280   2.04660   2.05446
 Alpha virt. eigenvalues --    2.07437   2.07810   2.08248   2.08450   2.09843
 Alpha virt. eigenvalues --    2.11209   2.12279   2.13703   2.13782   2.15667
 Alpha virt. eigenvalues --    2.16066   2.17680   2.18712   2.18972   2.19678
 Alpha virt. eigenvalues --    2.20785   2.21715   2.23389   2.23894   2.25541
 Alpha virt. eigenvalues --    2.25703   2.25956   2.26659   2.28443   2.28841
 Alpha virt. eigenvalues --    2.30294   2.30654   2.31332   2.32198   2.32873
 Alpha virt. eigenvalues --    2.34013   2.34817   2.35767   2.36581   2.36898
 Alpha virt. eigenvalues --    2.37753   2.39171   2.39577   2.39970   2.40083
 Alpha virt. eigenvalues --    2.41308   2.41744   2.41860   2.42136   2.42565
 Alpha virt. eigenvalues --    2.42983   2.43542   2.44176   2.44965   2.45873
 Alpha virt. eigenvalues --    2.46579   2.47048   2.48487   2.48546   2.49965
 Alpha virt. eigenvalues --    2.50206   2.51083   2.52117   2.53649   2.54029
 Alpha virt. eigenvalues --    2.54971   2.55703   2.56439   2.57452   2.58064
 Alpha virt. eigenvalues --    2.58946   2.59415   2.61439   2.62132   2.62791
 Alpha virt. eigenvalues --    2.63453   2.64169   2.65493   2.65729   2.66189
 Alpha virt. eigenvalues --    2.67598   2.68353   2.68700   2.69555   2.71972
 Alpha virt. eigenvalues --    2.73297   2.74417   2.75063   2.76248   2.76651
 Alpha virt. eigenvalues --    2.78132   2.79789   2.81036   2.81816   2.82905
 Alpha virt. eigenvalues --    2.83188   2.84103   2.84359   2.87116   2.89146
 Alpha virt. eigenvalues --    2.90140   2.90895   2.92883   2.93922   2.95026
 Alpha virt. eigenvalues --    2.95343   2.96638   2.99698   3.01139   3.03043
 Alpha virt. eigenvalues --    3.05676   3.08820   3.10116   3.13868   3.16147
 Alpha virt. eigenvalues --    3.16262   3.22282   3.23675   3.24461   3.31507
 Alpha virt. eigenvalues --    3.33165   3.37783   3.41360   3.42440   3.42963
 Alpha virt. eigenvalues --    3.43614   3.48569   3.50674   3.57163   3.60276
 Alpha virt. eigenvalues --    3.65843   3.66526   3.67569   3.94824   3.98094
 Alpha virt. eigenvalues --    4.10183   4.19704   4.24492   4.29178   4.30482
 Alpha virt. eigenvalues --    4.31587   4.34898   4.35519   4.37722   4.38656
 Alpha virt. eigenvalues --    4.39873   4.43396   4.44384   4.44657   4.47303
 Alpha virt. eigenvalues --    4.48569   4.49517   4.51313   4.53375   4.54609
 Alpha virt. eigenvalues --    4.56582   4.57616   4.61898   4.63649   4.65864
 Alpha virt. eigenvalues --    4.68650   4.70386   4.74141   4.78375   4.80132
 Alpha virt. eigenvalues --    4.96830
          Condensed to atoms (all electrons):
              1          2          3          4          5          6
     1  C   10.517374   0.029789   0.195408  -0.355455  -3.800870  -1.411340
     2  O    0.029789   8.967856   0.282024  -1.345028   0.867855   0.250673
     3  C    0.195408   0.282024   9.878766  -5.160718   2.514006   0.644859
     4  C   -0.355455  -1.345028  -5.160718  30.419870 -15.726708  -0.583043
     5  C   -3.800870   0.867855   2.514006 -15.726708  24.965969  -0.749911
     6  C   -1.411340   0.250673   0.644859  -0.583043  -0.749911  17.277330
     7  C    0.243103  -0.063798  -0.380723  -1.318892   1.850140  -1.807907
     8  C   -0.708824  -0.009809   0.096831  -2.495204   3.006427  -1.619680
     9  C    0.187224  -0.029404   0.007889  -0.807137   0.972359  -1.900285
    10  C    0.135201  -0.011488  -0.109288   0.017921   0.071590  -1.038610
    11  S   -0.007798   0.000787   0.008986  -0.012830   0.021943  -0.017849
    12  C    0.017270  -0.001289  -0.033939   0.051655   0.075160  -0.258471
    13  C    0.217747  -0.018824   0.017219   0.161788  -0.404944  -0.265904
    14  C   -0.011312  -0.117313  -0.218334   0.183203  -0.286031  -0.319034
    15  C    0.111682   0.040398   0.135149  -1.207875  -0.129304   0.145968
    16  C   -0.017403   0.003585   0.018308  -0.341390  -0.021662   0.021061
    17  C    0.021255  -0.001250  -0.016111   0.019070  -0.021328  -0.019953
    18  C    0.001814   0.001281   0.001938   0.004168   0.008679   0.006174
    19  C    0.015941   0.001129  -0.040512   0.074450  -0.014229  -0.024477
    20  C    0.004996  -0.013740  -0.123855   0.459194   0.181846  -0.139257
    21  N    0.029191  -0.004532   0.044056  -0.177041  -0.015560  -0.018430
    22  C   -0.520763  -0.013445  -0.268916   1.110697   0.168505   0.448549
    23  C    1.193702  -0.125291  -0.048188   0.311727  -2.417448  -1.027637
    24  C   -0.037632  -0.120802  -0.894126   1.017299  -1.517400  -1.147183
    25  C   -1.152445   0.055006   0.488747   1.823070  -4.416554   7.917657
    26  N    0.072732  -0.000554  -0.005390  -0.073537   0.243240  -0.579605
    27  C    0.011260  -0.000168   0.014594   0.097847  -0.165746  -0.177130
    28  C    0.040355   0.000280  -0.035209  -0.017077   0.282430  -0.299178
    29  C    0.092048  -0.004180  -0.246941   0.337981  -0.357520  -1.080241
    30  N   -0.004001   0.000019   0.003549  -0.016897   0.012228   0.046834
    31  S    0.016498   0.000540   0.043198  -0.123501   0.110886  -0.108812
    32  N   -0.032522   0.000791   0.002486  -0.054194   0.087710  -0.162515
    33  C    0.703663  -0.017100  -0.162169  -2.267348   2.494280  -5.205453
    34  H    0.623782  -0.194988  -0.398719   1.010155  -1.023966  -0.139645
    35  H   -0.074900  -0.155087  -0.052714   0.709475  -0.386941  -0.149029
    36  H   -0.032810  -0.002800  -0.040771  -0.088696   0.054189  -0.042816
    37  H    0.004318   0.000197   0.002021   0.030614  -0.009984   0.026423
    38  H   -0.001654  -0.000555  -0.000876  -0.021164  -0.000323  -0.016488
    39  H    0.001572   0.000632  -0.000955   0.014901   0.004001   0.010775
    40  H   -0.000417  -0.000025   0.000207  -0.000979   0.000143   0.000030
    41  H    0.000004   0.000010  -0.000013  -0.000169   0.000133   0.000067
    42  H   -0.000151  -0.000234  -0.000507   0.001154  -0.001693  -0.000573
    43  H   -0.151086  -0.070725  -0.056802   0.210399   0.167242  -0.012397
    44  H   -0.000627   0.000010   0.000451   0.005903  -0.013555   0.007340
    45  H    0.000120   0.000005  -0.000303   0.000693   0.001287   0.006453
              7          8          9         10         11         12
     1  C    0.243103  -0.708824   0.187224   0.135201  -0.007798   0.017270
     2  O   -0.063798  -0.009809  -0.029404  -0.011488   0.000787  -0.001289
     3  C   -0.380723   0.096831   0.007889  -0.109288   0.008986  -0.033939
     4  C   -1.318892  -2.495204  -0.807137   0.017921  -0.012830   0.051655
     5  C    1.850140   3.006427   0.972359   0.071590   0.021943   0.075160
     6  C   -1.807907  -1.619680  -1.900285  -1.038610  -0.017849  -0.258471
     7  C   12.745171   1.106765  -0.494994   0.670362  -0.055941  -0.180003
     8  C    1.106765   9.966645   1.583497  -1.111518   0.158105  -0.848019
     9  C   -0.494994   1.583497  11.354542  -2.667490   0.676345  -2.675050
    10  C    0.670362  -1.111518  -2.667490  12.361304  -0.742830   1.508062
    11  S   -0.055941   0.158105   0.676345  -0.742830  16.160406  -0.521819
    12  C   -0.180003  -0.848019  -2.675050   1.508062  -0.521819  12.211644
    13  C    0.333935  -0.874839   1.046536   0.186418   0.041764  -2.495706
    14  C   -0.065495   0.332163   0.170201  -1.220633   0.215643   0.280638
    15  C   -0.001634  -0.358804  -0.175044   0.021276   0.049173   0.299860
    16  C    0.057789   0.195122  -1.089447   0.306192  -0.187846   1.119340
    17  C    0.037049  -0.284295   0.203254   0.112899  -0.130056   0.065738
    18  C    0.003186   0.006726  -0.000187  -0.051818   0.013881   0.026355
    19  C    0.019506  -0.185911   0.129834   0.098055  -0.025423  -0.211757
    20  C   -0.060625   0.214564   0.155165  -0.310465   0.104936  -0.600588
    21  N    0.002237   0.002547   0.048999   0.008038  -0.000600  -0.002261
    22  C   -0.001178  -0.148837  -1.671760  -0.833102   0.082866   0.615871
    23  C    0.234881  -0.308964   1.352164  -0.780780   0.125461  -1.838016
    24  C    0.877005   0.400245   0.922860  -0.262728   0.129870  -0.910693
    25  C   -6.439536  -2.171835  -1.210655  -0.888030  -0.004376  -0.112243
    26  N    0.318348   0.033490   0.015566   0.031346  -0.001015   0.000503
    27  C   -0.184556  -0.037454  -0.019223   0.019052   0.001171  -0.002523
    28  C    0.113306   0.053439   0.009424   0.003855  -0.000605   0.001711
    29  C    0.273607  -0.098892  -0.016054   0.006369   0.000484  -0.001092
    30  N   -0.012122   0.001632  -0.000042   0.000116  -0.000005   0.000002
[...]
 005121,0.00001734,0.00000012,0.00001464,0.00000457,0.00000313,-0.00001
 336,-0.00000800,-0.00003026,-0.00001816,-0.00001348,0.00003691,-0.0002
 2194,-0.00001134,-0.00036556,-0.00044849,0.00008310,-0.00432566,-0.002
 36358,-0.00041274,-0.00910493,0.00277087,0.00782261,-0.00615191,0.0037
 9880,-0.00357865,-0.31218696,0.07695683,0.05495671,0.00016625,-0.00192
 495,-0.00080297,0.00044902,0.00055981,0.00003219,-0.00010793,0.0003563
 6,0.00011395,0.00020847,-0.00001819,-0.00003024,0.00002668,0.00000349,
 0.00000216,0.00001465,-0.00003747,-0.00001281,-0.00001966,0.00001097,0
 .00000534,0.00001179,-0.00000412,-0.00000265,-0.00000622,0.00000353,0.
 00000191,0.00000005,0.00000460,0.00000117,-0.00000969,0.00000523,0.000
 00260,0.00001176,0.00000211,-0.00000049,-0.00000538,-0.00000486,-0.000
 00132,0.00000721,0.00000811,0.00000206,0.00000051,0.00000079,-0.000000
 02,0.00000018,0.00000178,0.00000032,0.00000032,-0.00000392,-0.00000107
 ,0.00000247,0.00000458,0.00000098,0.00006122,0.00001180,0.00000195,-0.
 00040621,0.00099585,0.00059565,0.00042047,0.00002779,-0.00021386,0.000
 22409,-0.00017015,0.00003535,0.33114029,0.00002710,0.00001233,0.000008
 50,-0.00005859,-0.00001730,0.00000612,0.00002528,0.00001589,-0.0000102
 0,0.00001205,-0.00002820,-0.00000732,0.00002340,-0.00001053,-0.0000064
 6,-0.00001994,-0.00015498,-0.00004228,-0.00005387,0.00015201,0.0000519
 8,0.00005810,-0.00014279,-0.00005088,0.00018231,0.00012250,0.00002856,
 -0.00004642,-0.00003552,-0.00000710,0.00015651,0.00005247,-0.00000341,
 -0.00014883,-0.00013044,-0.00001247,0.00013259,-0.00049560,-0.00013277
 ,0.00137844,0.00123769,0.00005707,0.00190708,-0.00573215,-0.00235719,-
 0.00441856,-0.00412344,-0.00014684,-0.00493118,-0.00044932,0.00647146,
 -0.01686814,0.00825302,-0.00292449,0.08005929,-0.07712812,-0.02125499,
 0.02495899,0.00215901,-0.00173805,-0.00145001,0.00225136,0.00104030,0.
 00004782,-0.00041644,-0.00011816,-0.00036271,-0.00000137,0.00004316,-0
 .00009973,0.00009747,0.00002957,-0.00005516,0.00012104,0.00004215,0.00
 006495,-0.00002251,-0.00001366,-0.00003426,0.00000741,0.00000629,0.000
 02148,-0.00001059,-0.00000583,-0.00000023,-0.00000977,-0.00000258,0.00
 002365,-0.00000804,-0.00000482,-0.00003470,-0.00001223,-0.00000024,0.0
 0001751,0.00001619,0.00000392,-0.00001813,-0.00002599,-0.00000677,-0.0
 0000260,0.00000052,0.00000034,-0.00000170,-0.00000218,0.00000059,0.000
 00324,-0.00000274,-0.00000150,0.00002468,0.00000699,-0.00000052,0.0000
 7235,0.00002209,-0.00001535,-0.00125836,0.00149997,-0.00005113,0.00017
 426,0.00039943,-0.00026963,0.00084232,0.00046787,0.00056100,-0.0803727
 9,0.07211266,0.00001016,-0.00000001,0.00000918,-0.00002163,-0.00000261
 ,-0.00001289,0.00000843,0.00000783,0.00000408,0.00000310,-0.00000801,-
 0.00001124,0.00000840,-0.00000446,-0.00000031,-0.00000777,-0.00004866,
 -0.00001873,-0.00001698,0.00004872,0.00001445,0.00001897,-0.00004489,-
 0.00000946,0.00005401,0.00005317,-0.00003577,-0.00001158,-0.00001848,0
 .00000245,0.00004647,0.00001310,0.00000077,-0.00004778,-0.00002789,-0.
 00003322,0.00003100,-0.00011508,-0.00013703,0.00046214,0.00024339,0.00
 051892,0.00077924,-0.00208078,0.00077379,-0.00102123,-0.00038761,-0.00
 187530,-0.01971402,0.00840889,0.00831716,0.01557104,-0.00818041,-0.003
 33707,0.05587218,-0.02089063,-0.04963153,0.00714816,0.00140482,-0.0022
 5194,-0.00056213,0.00080532,-0.00038729,0.00002249,-0.00015406,-0.0000
 8498,-0.00013204,0.00000313,0.00001224,-0.00002823,0.00001738,0.000045
 63,-0.00001784,0.00003965,0.00001566,0.00002119,-0.00000718,-0.0000071
 9,-0.00001151,0.00000270,0.00000210,0.00000714,-0.00000367,-0.00000160
 ,-0.00000018,-0.00000314,-0.00000175,0.00000797,-0.00000261,-0.0000030
 3,-0.00001133,-0.00000457,0.00000244,0.00000534,0.00000652,-0.00000265
 ,-0.00000575,-0.00000979,0.00000156,0.00000045,-0.00000393,-0.00000295
 ,-0.00000218,0.00000407,0.00000005,0.00000104,-0.00000066,0.00000072,0
 .00000691,0.00000179,-0.00000119,0.00001955,-0.00000859,0.00004153,-0.
 00007117,-0.00031444,0.00208517,0.00103949,0.00076351,-0.00027132,-0.0
 0087527,-0.00033663,-0.00014294,-0.05859237,0.02084604,0.04643228,0.00
 014483,0.00095843,0.00067450,-0.00059226,-0.00040650,-0.00009993,0.000
 01466,0.00133138,-0.00002520,0.00035612,-0.00094418,-0.00019710,0.0008
 3594,0.00026409,-0.00010235,-0.00019585,-0.00016585,-0.00003895,0.0001
 2074,-0.00023407,-0.00008338,-0.00023357,0.00015659,0.00003081,0.00006
 367,-0.00015211,-0.00005378,-0.00005638,0.00005667,0.00002091,-0.00020
 983,0.00004235,0.00003763,-0.00026010,0.00024887,0.00011512,-0.0004395
 2,-0.00155369,-0.00041257,-0.00441478,0.00222869,0.00184715,-0.0003256
 0,0.00078264,0.00010796,0.00002823,0.00009751,-0.00004868,0.00011151,0
 .00011292,0.00006082,0.00005219,0.00007835,0.00001842,0.00044162,0.000
 03861,0.00002229,0.00100557,0.00429018,0.00226823,0.01388300,0.0160793
 3,0.00271567,-0.16464164,-0.13605185,-0.02562217,-0.01348565,-0.023978
 24,-0.00481880,-0.00034778,-0.00144876,-0.00067715,0.00011130,0.000104
 27,0.00005172,0.00010715,-0.00007153,-0.00003238,-0.00001479,0.0000098
 6,-0.00000253,0.00000937,-0.00000401,-0.00000237,-0.00002377,-0.000020
 04,-0.00000311,0.00006188,-0.00005622,-0.00002379,0.00000689,0.0000516
 8,0.00001585,-0.00001838,-0.00003771,-0.00000959,-0.00004586,0.0000100
 8,0.00000431,-0.00002831,-0.00003451,-0.00000941,-0.00004483,-0.000015
 04,-0.00001370,0.00002845,0.00002993,0.00000802,-0.00003265,-0.0000002
 2,0.00000232,-0.00000535,-0.00000512,-0.00000140,0.00000651,0.00002536
 ,-0.00000386,0.00001367,0.00003501,-0.00000458,0.00000570,0.00000971,0
 .00000469,-0.00000860,0.00001830,0.00000456,0.16800427,0.00028375,-0.0
 0008492,-0.00001286,-0.00028769,0.00018414,0.00021426,0.00037997,-0.00
 045240,-0.00019479,0.00102597,-0.00104869,-0.00075471,0.00039897,-0.00
 011954,0.00012758,0.00001833,-0.00012754,-0.00000687,-0.00005081,0.000
 04295,0.00001827,-0.00024406,-0.00007550,0.00011500,0.00002459,0.00005
 105,0.00001549,-0.00007200,-0.00001780,0.00000926,0.00002596,0.0000480
 4,0.00000945,0.00009734,-0.00000779,-0.00004150,0.00023595,0.00023274,
 0.00005036,0.00114082,0.00065356,-0.00163626,0.00003283,-0.00023505,0.
 00033602,-0.00023625,-0.00004820,0.00020101,-0.00003734,-0.00020811,-0
 .00006421,0.00009256,-0.00006994,-0.00012991,-0.00068654,0.00018439,-0
 .00002306,0.00231810,-0.00189822,-0.00365498,-0.00981709,-0.02877691,-
 0.00631139,-0.13505927,-0.21973608,-0.03753414,0.00161453,0.00514253,-
 0.00043928,0.00085882,-0.00008635,0.00060410,0.00001035,0.00001111,-0.
 00008392,-0.00002158,0.00000879,0.00000109,0.00000545,-0.00001768,0.00
 001242,0.00000482,0.00000268,0.00000033,0.00000482,0.00001057,0.000002
 73,-0.00002359,0.00001976,0.00000807,-0.00000365,-0.00002549,-0.000010
 48,0.00000126,0.00001115,0.00000461,0.00002264,-0.00000182,0.00000695,
 -0.00003618,0.00007857,0.00005120,0.00000168,0.00003820,0.00003082,-0.
 00000619,-0.00000744,-0.00000743,0.00000354,0.00000262,0.00000395,0.00
 000724,0.00000112,0.00000085,-0.00002520,-0.00004650,0.00001593,-0.000
 08023,-0.00005280,0.00003095,-0.00006088,0.00001303,0.00000116,0.00001
 272,-0.00004607,-0.00001043,0.13812911,0.24645183,0.00025435,-0.000841
 68,-0.00036806,-0.00006617,0.00022715,-0.00035004,-0.00009051,0.000443
 82,0.00013040,0.00039404,-0.00052638,0.00088684,-0.00006381,0.00014635
 ,-0.00065756,0.00001701,0.00001503,-0.00010892,-0.00002917,0.00003784,
 0.00001582,-0.00008948,0.00007008,-0.00033645,-0.00000173,0.00003605,0
 .00000013,-0.00001695,-0.00000566,-0.00002061,0.00003288,0.00000733,0.
 00000450,0.00007048,-0.00005926,0.00006814,0.00011805,0.00026029,0.000
 03324,0.00152474,-0.00176335,0.00503186,-0.00011257,0.00024770,-0.0012
 9669,-0.00014723,0.00016171,-0.00056899,0.00025607,0.00008371,0.000184
 29,-0.00021751,-0.00029435,0.00010547,-0.00019265,-0.00010783,0.000524
 56,0.00168403,-0.00388620,0.00818469,-0.00495089,-0.00934069,-0.005761
 95,-0.02532348,-0.03741760,-0.04762476,0.00274890,0.00255558,0.0064204
 5,0.00000750,0.00087426,-0.00220913,0.00002430,-0.00009523,0.00025955,
 -0.00001717,0.00000683,0.00001783,-0.00000398,0.00001211,-0.00005791,0
 .00000030,0.00000128,0.00000010,0.00000417,0.00000563,0.00000067,-0.00
 001398,0.00001183,0.00000711,-0.00000057,-0.00001695,0.00000634,0.0000
 0191,0.00000917,-0.00000239,0.00000801,0.00000852,-0.00003289,0.000055
 34,-0.00002746,-0.00008834,-0.00007431,0.00011115,-0.00003124,-0.00000
 280,-0.00001168,0.00001687,0.00000350,0.00000439,-0.00001119,0.0000022
 6,0.00000224,-0.00000407,-0.00001882,0.00001004,-0.00008525,0.00001457
 ,0.00009293,-0.00001258,-0.00006937,-0.00008269,-0.00007040,0.00000291
 ,-0.00001115,-0.00001944,0.02427889,0.04904698,0.03780812,0.00004830,-
 0.00000238,0.00003871,-0.00008826,-0.00001498,0.00000673,0.00004072,0.
 00001018,-0.00004177,-0.00006706,0.00005722,0.00001811,-0.00004413,0.0
 0019250,0.00003721,-0.00033321,-0.00002383,0.00007635,0.00001679,-0.00
 008861,-0.00002131,-0.00018031,0.00003518,0.00003303,-0.00006368,-0.00
 001841,-0.00000058,0.00000908,-0.00002000,-0.00000934,0.00003074,0.000
 02472,0.00000436,-0.00001689,0.00001965,0.00000694,0.00001523,0.000008
 78,0.00000136,-0.00003724,-0.00003146,-0.00000476,-0.00004609,0.000001
 57,0.00000560,-0.00001144,-0.00000290,0.00000065,-0.00000958,0.0000028
 5,0.00002515,-0.00001469,0.00001532,-0.00001710,0.00002641,0.00002109,
 0.00000315,0.00000505,-0.00004028,-0.00001256,0.00000392,0.00006949,0.
 00002003,0.00004004,-0.00002100,-0.00001114,-0.00002603,0.00004915,0.0
 0001801,0.00012249,-0.00002296,-0.00001708,0.00159494,0.00093195,0.000
 88519,-0.01644612,0.00856683,0.00433730,-0.32748988,-0.03980734,0.0218
 7783,-0.00951229,0.00013722,0.00196433,0.00111418,-0.00228128,0.000190
 77,-0.00060431,-0.00003093,0.00017088,-0.00010549,-0.00023938,-0.00022
 470,-0.00001491,0.00007243,-0.00002246,0.00037544,0.00010119,-0.000017
 43,-0.00000315,-0.00000520,-0.00000143,-0.00000317,-0.00000518,-0.0000
 0092,-0.00007695,-0.00005494,-0.00000907,-0.00001943,-0.00000508,0.000
 00392,0.00000065,0.00000214,0.00000085,0.00000383,0.00000427,0.0000009
 1,0.00000428,0.00000743,0.00000184,0.00000422,0.00000772,0.00000165,-0
 .00000198,0.00000530,0.00000187,0.00001084,-0.00000206,-0.00000191,0.3
 5129153,-0.00003223,-0.00002399,-0.00002848,0.00004402,0.00001948,-0.0
 0000139,-0.00003227,-0.00000754,0.00001372,0.00010721,-0.00004358,-0.0
 0000817,0.00008796,-0.00027915,-0.00003004,0.00064680,0.00057387,-0.00
 001657,-0.00001031,-0.00001331,-0.00001937,-0.00000334,0.00000685,-0.0
 0000168,0.00003026,0.00000969,0.00000573,0.00000691,-0.00000981,0.0000
 0230,-0.00002406,-0.00002789,-0.00000698,0.00000301,0.00000759,0.00000
 410,-0.00001720,0.00000314,0.00000151,0.00002489,0.00000067,-0.0000032
 4,-0.00000606,-0.00000178,0.00000098,0.00000233,0.00000181,-0.00000017
 ,0.00000243,-0.00000075,-0.00000275,0.00000322,-0.00000228,0.00000197,
 -0.00000445,-0.00000263,-0.00000059,0.00000835,0.00000496,0.00000076,-
 0.00000766,-0.00001557,-0.00000356,-0.00000030,0.00000530,0.00000223,-
 0.00000547,-0.00000979,-0.00000324,-0.00000875,0.00002165,-0.00000262,
 0.00353197,-0.00223731,-0.00308338,0.03391392,-0.00275257,-0.00444630,
 -0.04080757,-0.05891398,-0.00006695,-0.02762804,0.00173001,0.00177273,
 -0.00149276,-0.00406022,-0.00354018,-0.00138592,0.00032434,-0.00001301
 ,-0.00038058,-0.00030379,0.00037151,0.00009212,0.00036304,0.00021190,0
 .00021506,-0.00087136,-0.00027662,0.00000462,-0.00000159,0.00000200,0.
 00000419,-0.00000036,-0.00000355,0.00001497,0.00000494,0.00000404,0.00
 001819,-0.00001398,-0.00001447,-0.00000346,-0.00000041,-0.00000043,-0.
 00000111,-0.00000191,-0.00000070,-0.00000102,-0.00000046,0.,-0.0000009
 6,-0.00000086,-0.00000034,-0.00000037,-0.00000054,-0.00000029,-0.00000
 575,0.00000005,0.00000074,0.03245913,0.06619723,-0.00002027,0.00003599
 ,0.00002453,0.00002426,0.00000559,0.00000537,-0.00000421,-0.00005935,0
 .00001548,0.00003275,-0.00000232,-0.00006341,0.00000618,-0.00004193,-0
 .00022671,0.00027521,0.00006162,0.00035885,0.00000152,-0.00001028,0.00
 005241,0.00002201,-0.00000618,0.00000953,0.00001396,0.00001150,-0.0000
 1987,-0.00000129,0.00000530,-0.00001803,-0.00001020,-0.00001274,0.0000
 0244,0.00000203,0.00000212,-0.00000692,-0.00000638,-0.00000151,0.00000
 509,0.00001201,0.00000340,0.00000134,0.00000333,0.00000003,-0.00000292
 ,0.00000221,0.00000045,0.00000134,0.00000223,-0.00000035,-0.00000498,0
 .00000207,-0.00000205,0.00000156,-0.00000434,-0.00000352,0.00000027,0.
 00000181,0.00000646,0.00000095,-0.00000282,-0.00001267,-0.00000398,-0.
 00000505,0.00000466,-0.00000006,0.00000184,-0.00000966,0.00000013,-0.0
 0001308,-0.00000096,0.00003505,0.00165556,-0.00277480,0.00571797,0.011
 86473,-0.00145209,-0.00311220,0.02158498,-0.00018122,-0.04504298,-0.00
 628472,-0.00151256,0.00705097,0.00042520,-0.00344646,0.00738184,-0.000
 23187,-0.00017377,0.00089478,-0.00026592,0.00035525,-0.00126701,-0.000
 01666,0.00021420,-0.00032135,0.00001637,-0.00026229,-0.00010584,0.0000
 0217,-0.00000056,0.00000039,0.00000116,0.00000127,-0.00000077,0.000011
 93,0.00001239,-0.00001220,0.00001089,-0.00001160,0.00002223,-0.0000008
 3,-0.00000108,0.00000216,-0.00000067,-0.00000133,0.00000056,-0.0000006
 3,-0.00000196,-0.00000028,-0.00000092,-0.00000032,0.00000019,0.0000001
 8,-0.00000095,0.00000027,-0.00000301,0.00000032,0.00000025,-0.02875359
 ,0.00793757,0.03229987,0.00000205,-0.00005198,0.00000858,0.00002178,0.
 00004963,0.00001495,0.00000831,-0.00004390,-0.00004200,0.00002738,0.00
 003644,0.00000601,-0.00003164,-0.00002149,0.00000044,0.00021514,-0.000
 07549,-0.00025203,0.00001160,0.00007447,0.00003876,0.00008611,-0.00000
 337,-0.00001388,0.00001667,0.00000818,0.00000296,-0.00000778,0.0000042
 3,0.00000216,-0.00000143,0.00000208,0.00000073,0.00000425,-0.00000453,
 -0.00000200,0.00000096,-0.00000241,-0.00000236,0.00000541,0.00000955,0
 .00000201,0.00001219,-0.00000043,-0.00000105,0.00000135,0.00000079,0.0
 0000018,0.00000299,-0.00000026,-0.00000477,0.00000400,-0.00000292,0.00
 000301,-0.00000593,-0.00000541,-0.00000049,0.00000198,0.00000799,0.000
 00186,-0.00000168,-0.00001254,-0.00000567,-0.00001561,-0.00000089,0.00
 000314,0.00002042,-0.00000511,-0.00000730,-0.00005675,-0.00001664,-0.0
 0000138,-0.00170960,-0.00062127,0.00000949,0.00020609,-0.00364063,-0.0
 0011698,0.01251907,-0.01179788,-0.00482870,-0.13912741,0.12152961,0.04
 866583,-0.01088010,0.02635284,0.00944905,0.00315060,0.00016727,-0.0005
 9513,-0.00044142,0.00055828,0.00014389,-0.00176451,0.00081532,0.000527
 72,-0.00309664,-0.00300186,0.00008256,0.00000328,-0.00000446,0.0000000
 6,0.00000404,-0.00000299,-0.00000396,0.00001957,0.00004201,0.00003246,
 0.00000489,0.00000242,0.00000059,0.00000023,-0.00000014,0.00000007,-0.
 00000058,-0.00000053,-0.00000004,-0.00000123,-0.00000146,-0.00000027,-
 0.00000126,-0.00000133,-0.00000037,0.00000028,-0.00000110,-0.00000031,
 0.00000143,-0.00000150,0.00000086,0.00045759,0.00063809,-0.00035011,0.
 14033388,-0.00000656,0.00000196,-0.00000973,0.00003159,-0.00000051,-0.
 00001087,-0.00003309,0.00000850,0.00002699,0.00003111,-0.00003676,-0.0
 0001067,0.00003252,-0.00003677,-0.00002307,0.00024806,-0.00017408,0.00
 043202,-0.00003959,-0.00003876,-0.00005257,0.00003947,0.00003356,0.000
 01240,0.00000529,0.00000011,-0.00000687,-0.00000121,0.00000933,0.00000
 294,-0.00000297,-0.00000541,-0.00000118,0.00000580,-0.00001299,-0.0000
 0408,-0.00000799,-0.00000414,0.00000349,0.00000333,0.00000461,0.000001
 39,0.00000963,0.00000039,-0.00000215,0.00000292,0.00000015,-0.00000052
 ,0.00000094,-0.00000083,-0.00000529,0.00000169,-0.00000301,0.00000429,
 -0.00000426,-0.00000272,-0.00000169,-0.00000532,0.00000802,0.00000374,
 0.00000292,-0.00001437,0.00000075,-0.00000278,0.00000504,-0.00000206,0
 .00000464,-0.00000982,0.00000506,0.00000631,0.00000614,0.00000896,-0.0
 0138322,0.00024304,0.00025704,-0.00338262,-0.00293705,-0.00295837,0.01
 795770,-0.01387343,-0.00662605,0.12149463,-0.23960044,-0.07581725,-0.0
 0287456,0.00571550,0.00118326,0.00070641,0.00038803,0.00071830,0.00036
 711,0.00033186,0.00024166,-0.00077415,0.00022417,-0.00003494,-0.001403
 31,0.00079202,-0.00113007,0.00000380,0.00000009,0.00000077,0.00000069,
 -0.00000055,0.00000070,0.00002239,0.00013598,-0.00001794,0.00000971,0.
 00000748,-0.00000003,0.00000031,-0.00000070,-0.00000056,-0.00000085,-0
 .00000064,-0.00000026,-0.00000038,-0.00000154,-0.00000048,-0.00000036,
 -0.00000171,-0.00000038,0.00000045,-0.00000109,-0.00000052,-0.00000450
 ,0.00000201,-0.00000259,-0.00008509,0.00032281,0.00132641,-0.13097663,
 0.24851652,-0.00005949,0.00003939,-0.00000502,0.00000965,-0.00001289,0
 .00001850,0.00004295,-0.00001556,-0.00001782,0.00000441,-0.00001073,-0
 .00001677,0.00001682,-0.00001688,0.00002063,-0.00015663,0.00046927,-0.
 00156967,0.00000589,-0.00006549,0.00013370,-0.00000120,0.00001713,-0.0
 0001890,0.00000218,-0.00000717,0.00001873,0.00000054,0.00000227,0.0000
 0061,-0.00000076,-0.00000176,-0.00000079,0.00000105,-0.00000288,-0.000
 00245,-0.00000396,0.00000282,-0.00001147,0.00000016,0.00000065,-0.0000
 0129,0.00000188,-0.00000100,0.00000341,0.00000080,-0.00000028,0.000000
 60,-0.00000074,0.00000112,-0.00000125,0.00000056,-0.00000151,-0.000000
 18,-0.00000004,-0.00000152,0.00000410,-0.00000210,0.00000219,-0.000001
 61,-0.00000106,0.00000255,-0.00001716,0.00000260,-0.00000228,0.0000121
 7,-0.00000449,0.00000625,-0.00002629,0.00000500,0.00001146,-0.00002376
 ,-0.00021839,0.00016714,0.00000303,-0.00003746,-0.00292776,0.00750837,
 0.00400617,-0.00311270,-0.00010020,0.04865246,-0.07581761,-0.06080595,
 0.00077210,-0.00226865,0.00210819,-0.00043537,0.00078168,-0.00202825,0
 .00008716,0.00021903,-0.00057325,0.00005552,-0.00022248,0.00057823,0.0
 0055888,-0.00094341,0.00481072,-0.00000539,0.00000029,-0.00000309,0.00
 000502,0.00000259,-0.00000319,0.00002647,-0.00002080,0.00017896,0.0000
 0274,0.00000081,0.00000372,0.00000019,-0.00000051,0.00000090,-0.000000
 11,-0.00000029,0.00000049,0.00000003,-0.00000051,-0.00000025,0.0000000
 3,-0.00000006,-0.00000008,0.00000015,-0.00000033,0.00000036,-0.0000000
 5,-0.00000293,0.00001164,-0.00056557,0.00124130,-0.00367631,-0.0527685
 7,0.08249004,0.05348794\\0.00002473,-0.00001108,-0.00002645,-0.0000032
 6,-0.00004514,0.00002201,0.00000356,-0.00002701,-0.00002694,0.00002752
 ,0.00014580,0.00000208,0.00000484,-0.00005739,0.00001009,0.00001164,-0
 .00001009,-0.00000878,-0.00003068,0.00002027,0.00001946,0.00002410,0.0
 0000951,0.00000954,0.00000928,-0.00002336,-0.00001144,0.00000376,0.000
 01787,0.00000169,-0.00000724,-0.00000058,0.00000390,0.00000843,-0.0000
 0149,0.00000117,-0.00000681,0.00001193,0.00000182,-0.00002349,-0.00002
 399,-0.00000914,0.00002082,0.00005105,-0.00002858,-0.00000096,0.000004
 13,0.00000764,0.00000919,0.00002646,-0.00003185,-0.00002368,-0.0000768
 0,0.00004430,-0.00002434,0.00002745,0.00000343,-0.00000417,-0.00000677
 ,0.00000651,0.00000902,-0.00001279,-0.00000689,-0.00004064,0.00001569,
 0.00000176,0.00003351,0.00001777,0.00000292,-0.00005522,-0.00005433,0.
 00001456,0.00001045,0.00001578,-0.00002378,-0.00000747,0.00000514,0.00
 000334,0.00001363,-0.00001162,0.00000160,0.00001072,0.00001187,-0.0000
 0236,-0.00000837,0.00000207,0.00000702,0.00000062,-0.00001726,-0.00000
 009,0.00002755,0.00001977,-0.00001422,-0.00000772,-0.00000496,0.000019
 01,0.00000073,-0.00001661,-0.00000902,-0.00001050,0.00002060,0.0000072
 5,-0.00000306,0.00001628,0.00000709,0.00000566,0.00000238,-0.00000251,
 -0.00000487,-0.00000142,0.00000017,-0.00001418,0.00000508,0.00000392,0
 .00000880,-0.00000727,0.00000895,-0.00000946,-0.00000544,-0.00000016,0
 .00000250,-0.00000625,-0.00000942,-0.00000268,-0.00002279,-0.00000322,
 0.00000441,-0.00000715,0.00000057,0.00000452,0.00000232,-0.00000308,0.
 00000886,0.00000236,0.00000608\\\@


 THERE ARE PEOPLE SO ADDICTED TO EXAGERATING THEY
 CAN'T TELL THE TRUTH WITHOUT LYING. -- FORTUNE COOKIE
 Job cpu time:  1 days  9 hours 32 minutes 37.2 seconds.
 File lengths (MBytes):  RWF=   2284 Int=      0 D2E=      0 Chk=     35 Scr=      1
 Normal termination of Gaussian 09 at Sun Dec 29 14:42:30 2013.
