 Entering Gaussian System, Link 0=g09
 Initial command:
 /opt/gaussian/g09/l1.exe /panfs/panfs.cluster/home/shuo/Gau-12951.inp -scrdir=/panfs/panfs.cluster/home/shuo/
 Default is to use a total of  12 processors:
                               12 via shared-memory
                                1 via Linda
 Entering Link 1 = /opt/gaussian/g09/l1.exe PID=     12953.
  
 Copyright (c) 1988,1990,1992,1993,1995,1998,2003,2009,2011,
            Gaussian, Inc.  All Rights Reserved.
  
 This is part of the Gaussian(R) 09 program.  It is based on
 the Gaussian(R) 03 system (copyright 2003, Gaussian, Inc.),
 the Gaussian(R) 98 system (copyright 1998, Gaussian, Inc.),
 the Gaussian(R) 94 system (copyright 1995, Gaussian, Inc.),
 the Gaussian 92(TM) system (copyright 1992, Gaussian, Inc.),
 the Gaussian 90(TM) system (copyright 1990, Gaussian, Inc.),
 the Gaussian 88(TM) system (copyright 1988, Gaussian, Inc.),
 the Gaussian 86(TM) system (copyright 1986, Carnegie Mellon
 University), and the Gaussian 82(TM) system (copyright 1983,
 Carnegie Mellon University). Gaussian is a federally registered
 trademark of Gaussian, Inc.
  
 This software contains proprietary and confidential information,
 including trade secrets, belonging to Gaussian, Inc.
  
 This software is provided under written license and may be
 used, copied, transmitted, or stored only in accord with that
 written license.
  
 The following legend is applicable only to US Government
 contracts under FAR:
  
                    RESTRICTED RIGHTS LEGEND
  
 Use, reproduction and disclosure by the US Government is
 subject to restrictions as set forth in subparagraphs (a)
 and (c) of the Commercial Computer Software - Restricted
 Rights clause in FAR 52.227-19.
  
 Gaussian, Inc.
 340 Quinnipiac St., Bldg. 40, Wallingford CT 06492
  
  
 ---------------------------------------------------------------
 Warning -- This program may not be used in any manner that
 competes with the business of Gaussian, Inc. or will provide
 assistance to any competitor of Gaussian, Inc.  The licensee
 of this program is prohibited from giving any competitor of
 Gaussian, Inc. access to this program.  By using this program,
 the user acknowledges that Gaussian, Inc. is engaged in the
 business of creating and licensing software in the field of
 computational chemistry and represents and warrants to the
 licensee that it is not a competitor of Gaussian, Inc. and that
 it will not use this program in any manner prohibited above.
 ---------------------------------------------------------------
  

 Cite this work as:
 Gaussian 09, Revision C.01,
 M. J. Frisch, G. W. Trucks, H. B. Schlegel, G. E. Scuseria, 
 M. A. Robb, J. R. Cheeseman, G. Scalmani, V. Barone, B. Mennucci, 
 G. A. Petersson, H. Nakatsuji, M. Caricato, X. Li, H. P. Hratchian, 
 A. F. Izmaylov, J. Bloino, G. Zheng, J. L. Sonnenberg, M. Hada, 
 M. Ehara, K. Toyota, R. Fukuda, J. Hasegawa, M. Ishida, T. Nakajima, 
 Y. Honda, O. Kitao, H. Nakai, T. Vreven, J. A. Montgomery, Jr., 
 J. E. Peralta, F. Ogliaro, M. Bearpark, J. J. Heyd, E. Brothers, 
 K. N. Kudin, V. N. Staroverov, T. Keith, R. Kobayashi, J. Normand, 
 K. Raghavachari, A. Rendell, J. C. Burant, S. S. Iyengar, J. Tomasi, 
 M. Cossi, N. Rega, J. M. Millam, M. Klene, J. E. Knox, J. B. Cross, 
 V. Bakken, C. Adamo, J. Jaramillo, R. Gomperts, R. E. Stratmann, 
 O. Yazyev, A. J. Austin, R. Cammi, C. Pomelli, J. W. Ochterski, 
 R. L. Martin, K. Morokuma, V. G. Zakrzewski, G. A. Voth, 
 P. Salvador, J. J. Dannenberg, S. Dapprich, A. D. Daniels, 
 O. Farkas, J. B. Foresman, J. V. Ortiz, J. Cioslowski, 
 and D. J. Fox, Gaussian, Inc., Wallingford CT, 2010.
 
 ******************************************
 Gaussian 09:  EM64L-G09RevC.01 23-Sep-2011
                29-Dec-2013 
 ******************************************
 %chk=71_C18H8N4OS3Se.chk
 %NProcShared=12
 Will use up to   12 processors via shared memory.
 %Mem=8000MB
 Default route:  MaxDisk=100GB
 --------------------------------------------
 #B3LYP/6-31++G(d,p) opt scf=direct freq test
 --------------------------------------------
 1/14=-1,18=20,19=15,26=3,38=1/1,3;
 2/9=110,12=2,17=6,18=5,40=1/2;
 3/5=1,6=6,7=1111,11=2,16=1,25=1,30=1,71=1,74=-5/1,2,3;
 4//1;
 5/5=2,38=5/2;
 6/7=2,8=2,9=2,10=2,28=1/1;
 7//1,2,3,16;
 1/14=-1,18=20,19=15/3(2);
 2/9=110/2;
 99//99;
 2/9=110/2;
 3/5=1,6=6,7=1111,11=2,16=1,25=1,30=1,71=1,74=-5/1,2,3;
 4/5=5,16=3/1;
 5/5=2,38=5/2;
 7//1,2,3,16;
 1/14=-1,18=20,19=15/3(-5);
 2/9=110/2;
 6/7=2,8=2,9=2,10=2,19=2,28=1/1;
 99/9=1/99;
 ----------------------------------------------------------------------
 Geom opt of No.71 candidate from the CEPDB database with SMILE code of
  c1cc(oc1-c1scc2nccnc12)-c1cnc(-c2cccc3nsnc23)c2nsnc12, HPC, 20131227,
  Shuo Dai, Gaussian09
 ----------------------------------------------------------------------
 Charge =  0 Multiplicity = 1
 Symbolic Z-Matrix:
 C                    -1.36598  -0.00748  -0.00245 
 C                    -0.57635   1.13484  -0.00158 
 C                     0.728     0.71946  -0.00041 
 O                     0.78944  -0.63755   0.00277 
 C                    -0.50913  -1.08927   0.00459 
 C                    -0.87153  -2.4683    0.01414 
 S                     0.33998  -3.68453  -0.0127 
 C                    -0.81997  -4.9412    0.01463 
 C                    -2.09901  -4.44889   0.04545 
 N                    -3.20203  -5.24466   0.0739 
 C                    -4.33981  -4.49524   0.10091 
 C                    -4.38858  -3.09846   0.09885 
 N                    -3.30065  -2.28855   0.07111 
 C                    -2.13757  -3.01176   0.04424 
 C                     1.9652    1.44792   0.00178 
 C                     3.2509    0.93274   0.00922 
 N                     4.40021   1.67244   0.01755 
 C                     4.39278   3.04987   0.01843 
 C                     5.64496   3.78896   0.02714 
 C                     5.71461   5.21137   0.0298 
 C                     6.8868    5.97707   0.03293 
 C                     8.14657   5.38966   0.03833 
 C                     8.18576   3.97518   0.03815 
 N                     9.30622   3.23849   0.04289 
 S                     8.82811   1.65212   0.0387 
 N                     7.18819   1.83008   0.03124 
 C                     6.91876   3.14883   0.03187 
 C                     3.12035   3.68198   0.00777 
 N                     2.83573   5.00003   0.00399 
 S                     1.21238   5.19337  -0.00814 
 N                     0.782     3.61788  -0.01059 
 C                     1.89488   2.86205  -0.00081 
 H                    -2.44258  -0.02374  -0.0045 
 H                    -0.94467   2.14993  -0.00122 
 H                    -0.50047  -5.97008   0.00736 
 H                    -5.26116  -5.0688    0.12584 
 H                    -5.34576  -2.58311   0.12046 
 H                     3.42963  -0.14511   0.00927 
 H                     4.81262   5.81534   0.02925 
 H                     6.77951   7.06109   0.03094 
 H                     9.04608   5.98714   0.04252 
 

 GradGradGradGradGradGradGradGradGradGradGradGradGradGradGradGradGradGrad
 Berny optimization.
 Initialization pass.
                           ----------------------------
                           !    Initial Parameters    !
                           ! (Angstroms and Degrees)  !
 --------------------------                            --------------------------
 ! Name  Definition              Value          Derivative Info.                !
 --------------------------------------------------------------------------------
 ! R1    R(1,2)                  1.3887         estimate D2E/DX2                !
 ! R2    R(1,5)                  1.38           estimate D2E/DX2                !
 ! R3    R(1,33)                 1.0767         estimate D2E/DX2                !
 ! R4    R(2,3)                  1.3689         estimate D2E/DX2                !
 ! R5    R(2,34)                 1.0798         estimate D2E/DX2                !
 ! R6    R(3,4)                  1.3584         estimate D2E/DX2                !
 ! R7    R(3,15)                 1.4357         estimate D2E/DX2                !
 ! R8    R(4,5)                  1.3749         estimate D2E/DX2                !
 ! R9    R(5,6)                  1.4259         estimate D2E/DX2                !
 ! R10   R(6,7)                  1.7169         estimate D2E/DX2                !
 ! R11   R(6,14)                 1.3781         estimate D2E/DX2                !
 ! R12   R(7,8)                  1.7104         estimate D2E/DX2                !
 ! R13   R(8,9)                  1.3709         estimate D2E/DX2                !
 ! R14   R(8,35)                 1.0774         estimate D2E/DX2                !
 ! R15   R(9,10)                 1.3604         estimate D2E/DX2                !
 ! R16   R(9,14)                 1.4376         estimate D2E/DX2                !
 ! R17   R(10,11)                1.3627         estimate D2E/DX2                !
 ! R18   R(11,12)                1.3976         estimate D2E/DX2                !
 ! R19   R(11,36)                1.0856         estimate D2E/DX2                !
 ! R20   R(12,13)                1.3566         estimate D2E/DX2                !
 ! R21   R(12,37)                1.0873         estimate D2E/DX2                !
 ! R22   R(13,14)                1.3699         estimate D2E/DX2                !
 ! R23   R(15,16)                1.3851         estimate D2E/DX2                !
 ! R24   R(15,32)                1.4159         estimate D2E/DX2                !
 ! R25   R(16,17)                1.3668         estimate D2E/DX2                !
 ! R26   R(16,38)                1.0926         estimate D2E/DX2                !
 ! R27   R(17,18)                1.3775         estimate D2E/DX2                !
 ! R28   R(18,19)                1.4541         estimate D2E/DX2                !
 ! R29   R(18,28)                1.4208         estimate D2E/DX2                !
 ! R30   R(19,20)                1.4241         estimate D2E/DX2                !
 ! R31   R(19,27)                1.4256         estimate D2E/DX2                !
 ! R32   R(20,21)                1.4001         estimate D2E/DX2                !
 ! R33   R(20,39)                1.0855         estimate D2E/DX2                !
 ! R34   R(21,22)                1.39           estimate D2E/DX2                !
 ! R35   R(21,40)                1.0893         estimate D2E/DX2                !
 ! R36   R(22,23)                1.415          estimate D2E/DX2                !
 ! R37   R(22,41)                1.0799         estimate D2E/DX2                !
 ! R38   R(23,24)                1.341          estimate D2E/DX2                !
 ! R39   R(23,27)                1.5127         estimate D2E/DX2                !
 ! R40   R(24,25)                1.6569         estimate D2E/DX2                !
 ! R41   R(25,26)                1.6496         estimate D2E/DX2                !
 ! R42   R(26,27)                1.346          estimate D2E/DX2                !
 ! R43   R(28,29)                1.3484         estimate D2E/DX2                !
 ! R44   R(28,32)                1.4745         estimate D2E/DX2                !
 ! R45   R(29,30)                1.6349         estimate D2E/DX2                !
 ! R46   R(30,31)                1.6332         estimate D2E/DX2                !
 ! R47   R(31,32)                1.3453         estimate D2E/DX2                !
 ! A1    A(2,1,5)              106.9638         estimate D2E/DX2                !
 ! A2    A(2,1,33)             125.5195         estimate D2E/DX2                !
 ! A3    A(5,1,33)             127.5163         estimate D2E/DX2                !
 ! A4    A(1,2,3)              106.9898         estimate D2E/DX2                !
 ! A5    A(1,2,34)             125.4028         estimate D2E/DX2                !
 ! A6    A(3,2,34)             127.6075         estimate D2E/DX2                !
 ! A7    A(2,3,4)              110.2569         estimate D2E/DX2                !
 ! A8    A(2,3,15)             131.8461         estimate D2E/DX2                !
 ! A9    A(4,3,15)             117.8968         estimate D2E/DX2                !
 ! A10   A(3,4,5)              106.5885         estimate D2E/DX2                !
 ! A11   A(1,5,4)              109.2002         estimate D2E/DX2                !
 ! A12   A(1,5,6)              126.8953         estimate D2E/DX2                !
 ! A13   A(4,5,6)              123.9045         estimate D2E/DX2                !
 ! A14   A(5,6,7)              120.3756         estimate D2E/DX2                !
 ! A15   A(5,6,14)             127.9549         estimate D2E/DX2                !
 ! A16   A(7,6,14)             111.6695         estimate D2E/DX2                !
 ! A17   A(6,7,8)               92.3884         estimate D2E/DX2                !
 ! A18   A(7,8,9)              111.6696         estimate D2E/DX2                !
 ! A19   A(7,8,35)             120.0286         estimate D2E/DX2                !
 ! A20   A(9,8,35)             128.3018         estimate D2E/DX2                !
 ! A21   A(8,9,10)             123.1541         estimate D2E/DX2                !
 ! A22   A(8,9,14)             112.5817         estimate D2E/DX2                !
 ! A23   A(10,9,14)            124.2642         estimate D2E/DX2                !
 ! A24   A(9,10,11)            110.8363         estimate D2E/DX2                !
 ! A25   A(10,11,12)           125.3613         estimate D2E/DX2                !
 ! A26   A(10,11,36)           114.7418         estimate D2E/DX2                !
 ! A27   A(12,11,36)           119.8969         estimate D2E/DX2                !
 ! A28   A(11,12,13)           124.6599         estimate D2E/DX2                !
 ! A29   A(11,12,37)           120.2894         estimate D2E/DX2                !
 ! A30   A(13,12,37)           115.0507         estimate D2E/DX2                !
 ! A31   A(12,13,14)           111.4762         estimate D2E/DX2                !
 ! A32   A(6,14,9)             111.6906         estimate D2E/DX2                !
 ! A33   A(6,14,13)            124.9072         estimate D2E/DX2                !
 ! A34   A(9,14,13)            123.4021         estimate D2E/DX2                !
 ! A35   A(3,15,16)            127.6745         estimate D2E/DX2                !
 ! A36   A(3,15,32)            117.6424         estimate D2E/DX2                !
 ! A37   A(16,15,32)           114.683          estimate D2E/DX2                !
 ! A38   A(15,16,17)           125.3995         estimate D2E/DX2                !
 ! A39   A(15,16,38)           121.2507         estimate D2E/DX2                !
 ! A40   A(17,16,38)           113.3498         estimate D2E/DX2                !
 ! A41   A(16,17,18)           122.456          estimate D2E/DX2                !
 ! A42   A(17,18,19)           120.2415         estimate D2E/DX2                !
 ! A43   A(17,18,28)           116.7249         estimate D2E/DX2                !
 ! A44   A(19,18,28)           123.0335         estimate D2E/DX2                !
 ! A45   A(18,19,20)           123.3543         estimate D2E/DX2                !
 ! A46   A(18,19,27)           122.7684         estimate D2E/DX2                !
 ! A47   A(20,19,27)           113.8773         estimate D2E/DX2                !
 ! A48   A(19,20,21)           125.9569         estimate D2E/DX2                !
 ! A49   A(19,20,39)           121.0027         estimate D2E/DX2                !
 ! A50   A(21,20,39)           113.0404         estimate D2E/DX2                !
 ! A51   A(20,21,22)           121.8479         estimate D2E/DX2                !
 ! A52   A(20,21,40)           117.5007         estimate D2E/DX2                !
 ! A53   A(22,21,40)           120.6514         estimate D2E/DX2                !
 ! A54   A(21,22,23)           116.5857         estimate D2E/DX2                !
 ! A55   A(21,22,41)           121.4084         estimate D2E/DX2                !
 ! A56   A(23,22,41)           122.006          estimate D2E/DX2                !
 ! A57   A(22,23,24)           124.9112         estimate D2E/DX2                !
 ! A58   A(22,23,27)           121.5255         estimate D2E/DX2                !
 ! A59   A(24,23,27)           113.5633         estimate D2E/DX2                !
 ! A60   A(23,24,25)           106.5517         estimate D2E/DX2                !
 ! A61   A(24,25,26)           100.5792         estimate D2E/DX2                !
 ! A62   A(25,26,27)           107.7401         estimate D2E/DX2                !
 ! A63   A(19,27,23)           120.2065         estimate D2E/DX2                !
 ! A64   A(19,27,26)           128.2278         estimate D2E/DX2                !
 ! A65   A(23,27,26)           111.5657         estimate D2E/DX2                !
 ! A66   A(18,28,29)           128.6024         estimate D2E/DX2                !
 ! A67   A(18,28,32)           119.799          estimate D2E/DX2                !
 ! A68   A(29,28,32)           111.5986         estimate D2E/DX2                !
 ! A69   A(28,29,30)           108.9779         estimate D2E/DX2                !
 ! A70   A(29,30,31)            98.4873         estimate D2E/DX2                !
 ! A71   A(30,31,32)           108.903          estimate D2E/DX2                !
 ! A72   A(15,32,28)           120.9373         estimate D2E/DX2                !
 ! A73   A(15,32,31)           127.0295         estimate D2E/DX2                !
 ! A74   A(28,32,31)           112.0332         estimate D2E/DX2                !
 ! D1    D(5,1,2,3)              0.2763         estimate D2E/DX2                !
 ! D2    D(5,1,2,34)          -179.6855         estimate D2E/DX2                !
 ! D3    D(33,1,2,3)          -179.9318         estimate D2E/DX2                !
 ! D4    D(33,1,2,34)            0.1063         estimate D2E/DX2                !
 ! D5    D(2,1,5,4)             -0.3088         estimate D2E/DX2                !
 ! D6    D(2,1,5,6)            179.6129         estimate D2E/DX2                !
 ! D7    D(33,1,5,4)           179.9048         estimate D2E/DX2                !
 ! D8    D(33,1,5,6)            -0.1735         estimate D2E/DX2                !
 ! D9    D(1,2,3,4)             -0.1475         estimate D2E/DX2                !
 ! D10   D(1,2,3,15)          -179.9491         estimate D2E/DX2                !
 ! D11   D(34,2,3,4)           179.8133         estimate D2E/DX2                !
 ! D12   D(34,2,3,15)            0.0116         estimate D2E/DX2                !
 ! D13   D(2,3,4,5)             -0.0419         estimate D2E/DX2                !
 ! D14   D(15,3,4,5)           179.7909         estimate D2E/DX2                !
 ! D15   D(2,3,15,16)          179.6661         estimate D2E/DX2                !
 ! D16   D(2,3,15,32)           -0.1766         estimate D2E/DX2                !
 ! D17   D(4,3,15,16)           -0.1233         estimate D2E/DX2                !
 ! D18   D(4,3,15,32)         -179.9661         estimate D2E/DX2                !
 ! D19   D(3,4,5,1)              0.2186         estimate D2E/DX2                !
 ! D20   D(3,4,5,6)           -179.706          estimate D2E/DX2                !
 ! D21   D(1,5,6,7)            178.6593         estimate D2E/DX2                !
 ! D22   D(1,5,6,14)            -1.3654         estimate D2E/DX2                !
 ! D23   D(4,5,6,7)             -1.4298         estimate D2E/DX2                !
 ! D24   D(4,5,6,14)           178.5455         estimate D2E/DX2                !
 ! D25   D(5,6,7,8)           -179.9839         estimate D2E/DX2                !
 ! D26   D(14,6,7,8)             0.0371         estimate D2E/DX2                !
 ! D27   D(5,6,14,9)          -179.9564         estimate D2E/DX2                !
 ! D28   D(5,6,14,13)           -0.0077         estimate D2E/DX2                !
 ! D29   D(7,6,14,9)             0.0207         estimate D2E/DX2                !
 ! D30   D(7,6,14,13)          179.9694         estimate D2E/DX2                !
 ! D31   D(6,7,8,9)             -0.0877         estimate D2E/DX2                !
 ! D32   D(6,7,8,35)           179.9589         estimate D2E/DX2                !
 ! D33   D(7,8,9,10)          -179.8835         estimate D2E/DX2                !
 ! D34   D(7,8,9,14)             0.1147         estimate D2E/DX2                !
 ! D35   D(35,8,9,10)            0.0651         estimate D2E/DX2                !
 ! D36   D(35,8,9,14)         -179.9367         estimate D2E/DX2                !
 ! D37   D(8,9,10,11)          179.9968         estimate D2E/DX2                !
 ! D38   D(14,9,10,11)          -0.0012         estimate D2E/DX2                !
 ! D39   D(8,9,14,6)            -0.0875         estimate D2E/DX2                !
 ! D40   D(8,9,14,13)          179.9629         estimate D2E/DX2                !
 ! D41   D(10,9,14,6)          179.9106         estimate D2E/DX2                !
 ! D42   D(10,9,14,13)          -0.039          estimate D2E/DX2                !
 ! D43   D(9,10,11,12)           0.0597         estimate D2E/DX2                !
 ! D44   D(9,10,11,36)        -179.9244         estimate D2E/DX2                !
 ! D45   D(10,11,12,13)         -0.0865         estimate D2E/DX2                !
 ! D46   D(10,11,12,37)        179.9156         estimate D2E/DX2                !
 ! D47   D(36,11,12,13)        179.8968         estimate D2E/DX2                !
 ! D48   D(36,11,12,37)         -0.1011         estimate D2E/DX2                !
 ! D49   D(11,12,13,14)          0.0394         estimate D2E/DX2                !
 ! D50   D(37,12,13,14)       -179.9626         estimate D2E/DX2                !
 ! D51   D(12,13,14,6)        -179.9249         estimate D2E/DX2                !
 ! D52   D(12,13,14,9)           0.018          estimate D2E/DX2                !
 ! D53   D(3,15,16,17)        -179.6631         estimate D2E/DX2                !
 ! D54   D(3,15,16,38)           0.3109         estimate D2E/DX2                !
 ! D55   D(32,15,16,17)          0.1836         estimate D2E/DX2                !
 ! D56   D(32,15,16,38)       -179.8424         estimate D2E/DX2                !
 ! D57   D(3,15,32,28)         179.702          estimate D2E/DX2                !
 ! D58   D(3,15,32,31)          -0.2891         estimate D2E/DX2                !
 ! D59   D(16,15,32,28)         -0.161          estimate D2E/DX2                !
 ! D60   D(16,15,32,31)        179.8479         estimate D2E/DX2                !
 ! D61   D(15,16,17,18)         -0.0493         estimate D2E/DX2                !
 ! D62   D(38,16,17,18)        179.9749         estimate D2E/DX2                !
 ! D63   D(16,17,18,19)       -179.9854         estimate D2E/DX2                !
 ! D64   D(16,17,18,28)         -0.1092         estimate D2E/DX2                !
 ! D65   D(17,18,19,20)       -179.9401         estimate D2E/DX2                !
 ! D66   D(17,18,19,27)          0.1526         estimate D2E/DX2                !
 ! D67   D(28,18,19,20)          0.1918         estimate D2E/DX2                !
 ! D68   D(28,18,19,27)       -179.7156         estimate D2E/DX2                !
 ! D69   D(17,18,28,29)       -179.8802         estimate D2E/DX2                !
 ! D70   D(17,18,28,32)          0.1194         estimate D2E/DX2                !
 ! D71   D(19,18,28,29)         -0.0078         estimate D2E/DX2                !
 ! D72   D(19,18,28,32)        179.9918         estimate D2E/DX2                !
 ! D73   D(18,19,20,21)       -179.7402         estimate D2E/DX2                !
 ! D74   D(18,19,20,39)          0.2423         estimate D2E/DX2                !
 ! D75   D(27,19,20,21)          0.1747         estimate D2E/DX2                !
 ! D76   D(27,19,20,39)       -179.8429         estimate D2E/DX2                !
 ! D77   D(18,19,27,23)        179.8788         estimate D2E/DX2                !
 ! D78   D(18,19,27,26)         -0.1019         estimate D2E/DX2                !
 ! D79   D(20,19,27,23)         -0.0366         estimate D2E/DX2                !
 ! D80   D(20,19,27,26)        179.9827         estimate D2E/DX2                !
 ! D81   D(19,20,21,22)         -0.2218         estimate D2E/DX2                !
 ! D82   D(19,20,21,40)        179.776          estimate D2E/DX2                !
 ! D83   D(39,20,21,22)        179.7946         estimate D2E/DX2                !
 ! D84   D(39,20,21,40)         -0.2076         estimate D2E/DX2                !
 ! D85   D(20,21,22,23)          0.107          estimate D2E/DX2                !
 ! D86   D(20,21,22,41)       -179.888          estimate D2E/DX2                !
 ! D87   D(40,21,22,23)       -179.8907         estimate D2E/DX2                !
 ! D88   D(40,21,22,41)          0.1143         estimate D2E/DX2                !
 ! D89   D(21,22,23,24)        179.9995         estimate D2E/DX2                !
 ! D90   D(21,22,23,27)          0.022          estimate D2E/DX2                !
 ! D91   D(41,22,23,24)         -0.0055         estimate D2E/DX2                !
 ! D92   D(41,22,23,27)       -179.983          estimate D2E/DX2                !
 ! D93   D(22,23,24,25)       -179.9389         estimate D2E/DX2                !
 ! D94   D(27,23,24,25)          0.0402         estimate D2E/DX2                !
 ! D95   D(22,23,27,19)         -0.0559         estimate D2E/DX2                !
 ! D96   D(22,23,27,26)        179.9278         estimate D2E/DX2                !
 ! D97   D(24,23,27,19)        179.9643         estimate D2E/DX2                !
 ! D98   D(24,23,27,26)         -0.052          estimate D2E/DX2                !
 ! D99   D(23,24,25,26)         -0.0178         estimate D2E/DX2                !
 ! D100  D(24,25,26,27)         -0.012          estimate D2E/DX2                !
 ! D101  D(25,26,27,19)       -179.9825         estimate D2E/DX2                !
 ! D102  D(25,26,27,23)          0.0355         estimate D2E/DX2                !
 ! D103  D(18,28,29,30)       -179.9725         estimate D2E/DX2                !
 ! D104  D(32,28,29,30)          0.0279         estimate D2E/DX2                !
 ! D105  D(18,28,32,15)          0.0176         estimate D2E/DX2                !
 ! D106  D(18,28,32,31)       -179.99           estimate D2E/DX2                !
 ! D107  D(29,28,32,15)       -179.9827         estimate D2E/DX2                !
 ! D108  D(29,28,32,31)          0.0097         estimate D2E/DX2                !
 ! D109  D(28,29,30,31)         -0.0471         estimate D2E/DX2                !
 ! D110  D(29,30,31,32)          0.0527         estimate D2E/DX2                !
 ! D111  D(30,31,32,15)        179.9494         estimate D2E/DX2                !
 ! D112  D(30,31,32,28)         -0.0424         estimate D2E/DX2                !
 --------------------------------------------------------------------------------
 Trust Radius=3.00D-01 FncErr=1.00D-07 GrdErr=1.00D-06
 Number of steps in this run=    243 maximum allowed number of steps=    246.
 GradGradGradGradGradGradGradGradGradGradGradGradGradGradGradGradGradGrad

                          Input orientation:                          
 ---------------------------------------------------------------------
 Center     Atomic      Atomic             Coordinates (Angstroms)
 Number     Number       Type             X           Y           Z
 ---------------------------------------------------------------------
      1          6           0       -1.365980   -0.007480   -0.002450
      2          6           0       -0.576350    1.134840   -0.001580
      3          6           0        0.728000    0.719460   -0.000410
      4          8           0        0.789440   -0.637550    0.002770
      5          6           0       -0.509130   -1.089270    0.004590
      6          6           0       -0.871530   -2.468300    0.014140
      7         16           0        0.339980   -3.684530   -0.012700
      8          6           0       -0.819970   -4.941200    0.014630
      9          6           0       -2.099010   -4.448890    0.045450
     10          7           0       -3.202030   -5.244660    0.073900
     11          6           0       -4.339810   -4.495240    0.100910
     12          6           0       -4.388580   -3.098460    0.098850
     13          7           0       -3.300650   -2.288550    0.071110
     14          6           0       -2.137570   -3.011760    0.044240
     15          6           0        1.965200    1.447920    0.001780
     16          6           0        3.250900    0.932740    0.009220
     17          7           0        4.400210    1.672440    0.017550
     18          6           0        4.392780    3.049870    0.018430
     19          6           0        5.644960    3.788960    0.027140
     20          6           0        5.714610    5.211370    0.029800
     21          6           0        6.886800    5.977070    0.032930
     22          6           0        8.146570    5.389660    0.038330
     23          6           0        8.185760    3.975180    0.038150
     24          7           0        9.306220    3.238490    0.042890
     25         16           0        8.828110    1.652120    0.038700
     26          7           0        7.188190    1.830080    0.031240
     27          6           0        6.918760    3.148830    0.031870
     28          6           0        3.120350    3.681980    0.007770
     29          7           0        2.835730    5.000030    0.003990
     30         16           0        1.212380    5.193370   -0.008140
     31          7           0        0.782000    3.617880   -0.010590
     32          6           0        1.894880    2.862050   -0.000810
     33          1           0       -2.442580   -0.023740   -0.004500
     34          1           0       -0.944670    2.149930   -0.001220
     35          1           0       -0.500470   -5.970080    0.007360
     36          1           0       -5.261160   -5.068800    0.125840
     37          1           0       -5.345760   -2.583110    0.120460
     38          1           0        3.429630   -0.145110    0.009270
     39          1           0        4.812620    5.815340    0.029250
     40          1           0        6.779510    7.061090    0.030940
     41          1           0        9.046080    5.987140    0.042520
 ---------------------------------------------------------------------
                    Distance matrix (angstroms):
                    1          2          3          4          5
     1  C    0.000000
     2  C    1.388672   0.000000
     3  C    2.216574   1.368894   0.000000
     4  O    2.245629   2.237581   1.358404   0.000000
     5  C    1.380040   2.225134   2.191351   1.374896   0.000000
     6  C    2.510058   3.615245   3.566584   2.471962   1.425885
     7  S    4.053529   4.905722   4.421068   3.079990   2.730689
     8  C    4.963871   6.080944   5.868518   4.594752   3.864465
     9  C    4.501750   5.787810   5.891174   4.782392   3.717046
    10  N    5.550222   6.899124   7.142926   6.096093   4.952149
    11  C    5.384639   6.772882   7.272280   6.418770   5.126794
    12  C    4.324411   5.697720   6.384807   5.733864   4.369881
    13  N    2.991929   4.375693   5.028246   4.411271   3.038961
    14  C    3.102133   4.431004   4.704837   3.769082   2.519793
    15  C    3.635240   2.560763   1.435731   2.394076   3.543960
    16  C    4.711659   3.832598   2.531917   2.919698   4.269235
    17  N    6.005954   5.005550   3.793892   4.286483   5.632835
    18  C    6.520057   5.325410   4.343015   5.155712   6.415715
    19  C    7.972899   6.763865   5.796472   6.570438   7.853054
    20  C    8.796146   7.496350   6.711516   7.646430   8.856277
    21  C   10.194335   8.896459   8.097802   8.996216  10.229064
    22  C   10.937065   9.705381   8.766268   9.510830  10.811976
    23  C   10.348863   9.211063   8.137529   8.716885  10.062350
    24  N   11.155009  10.104084   8.940539   9.357395  10.727165
    25  S   10.328380   9.418762   8.153721   8.358474   9.731415
    26  N    8.749376   7.795673   6.555039   6.858135   8.232378
    27  C    8.865686   7.761053   6.650443   7.204588   8.551946
    28  C    5.808561   4.489276   3.807877   4.908310   5.994828
    29  N    6.536786   5.155775   4.771355   5.997467   6.947493
    30  S    5.804896   4.435230   4.500062   5.846249   6.514240
    31  N    4.213920   2.830315   2.898941   4.255457   4.881036
    32  C    4.343664   3.015001   2.439734   3.670042   4.625173
    33  H    1.076725   2.196618   3.256523   3.289798   2.207638
    34  H    2.198163   1.079846   2.200925   3.282864   3.268355
    35  H    6.025098   7.105331   6.801408   5.486325   4.880818
    36  H    6.387945   7.774885   8.330062   7.500726   6.199448
    37  H    4.742112   6.048580   6.914632   6.437370   5.063395
    38  H    4.797599   4.205504   2.836614   2.685729   4.050344
    39  H    8.490073   7.137859   6.530926   7.604372   8.717527
    40  H   10.784934   9.446172   8.765730   9.754527  10.934045
    41  H   12.014511  10.776730   9.845849  10.585849  11.890292
                    6          7          8          9         10
     6  C    0.000000
     7  S    1.716884   0.000000
     8  C    2.473438   1.710395   0.000000
     9  C    2.330327   2.556619   1.370862   0.000000
    10  N    3.625324   3.871349   2.402043   1.360409   0.000000
    11  C    4.018082   4.750852   3.549028   2.241965   1.362682
    12  C    3.574062   4.766047   4.017183   2.658692   2.452488
    13  N    2.436428   3.899996   3.632288   2.472178   2.957756
    14  C    1.378083   2.567901   2.336597   1.437648   2.473822
    15  C    4.835697   5.383641   6.969806   7.161849   8.455536
    16  C    5.344298   5.458307   7.146690   7.588464   8.933351
    17  N    6.703505   6.721868   8.425587   8.928120  10.278302
    18  C    7.626479   7.859917   9.540963   9.918441  11.246486
    19  C    9.034274   9.165012  10.863295  11.306263  12.644276
    20  C   10.117056  10.393531  12.073758  12.424714  13.741797
    21  C   11.468056  11.670880  13.364253  13.763923  15.090175
    22  C   11.961365  11.970229  13.679403  14.204542  15.552516
    23  C   11.115463  10.964944  12.673025  13.294416  14.652252
    24  N   11.668542  11.328052  13.017214  13.754094  15.113607
    25  S   10.538571  10.026506  11.685799  12.514964  13.866906
    26  N    9.134301   8.792658  10.487189  11.210609  12.570220
    27  C    9.604222   9.485628  11.195393  11.791764  13.148492
    28  C    7.332195   7.873776   9.480791   9.661997  10.939002
    29  N    8.337855   9.036074  10.592087  10.659994  11.891724
    30  S    7.940048   8.920662  10.336367  10.195163  11.333412
    31  N    6.306850   7.315776   8.707743   8.565987   9.717214
    32  C    6.005487   6.728712   8.262043   8.330855   9.576159
    33  H    2.905928   4.598270   5.178286   4.438748   5.276449
    34  H    4.618835   5.974226   7.092244   6.699187   7.731835
    35  H    3.521391   2.435261   1.077370   2.206989   2.798051
    36  H    5.103325   5.771323   4.444414   3.223344   2.067279
    37  H    4.476965   5.792970   5.104367   3.745417   3.417835
    38  H    4.888478   4.698288   6.407933   7.006404   8.365913
    39  H   10.046317  10.500181  12.142052  12.374381  13.658704
    40  H   12.220801  12.527482  14.205891  14.536436  15.845014
    41  H   13.032815  13.013087  14.723055  15.268391  16.618379
                   11         12         13         14         15
    11  C    0.000000
    12  C    1.397633   0.000000
    13  N    2.439308   1.356582   0.000000
    14  C    2.655896   2.253341   1.369858   0.000000
    15  C    8.665110   7.813419   6.457181   6.059973   0.000000
    16  C    9.332216   8.638302   7.300914   6.678017   1.385096
    17  N   10.697438  10.000546   8.659997   8.042699   2.445390
    18  C   11.540954  10.720108   9.364314   8.910078   2.908550
    19  C   12.974168  12.170194  10.814897  10.335273   4.361393
    20  C   13.975503  13.081762  11.727123  11.369996   5.312477
    21  C   15.352872  14.474246  13.118920  12.737286   6.688521
    22  C   15.925604  15.138753  13.783861  13.279587   7.331302
    23  C   15.120908  14.427546  13.083311  12.465493   6.714442
    24  N   15.685282  15.089984  13.765251  13.039400   7.556349
    25  S   14.532310  14.044662  12.752911  11.916289   6.866046
    26  N   13.149499  12.582396  11.268561  10.507777   5.237035
    27  C   13.608526  12.918555  11.575966  10.953088   5.237533
    28  C   11.069308  10.117643   8.768152   8.511945   2.515041
    29  N   11.902013  10.852889   9.528015   9.429958   3.657227
    30  S   11.167268  10.006830   8.738012   8.862791   3.820371
    31  N    9.595212   8.476798   7.180572   7.244241   2.471607
    32  C    9.644243   8.661379   7.316241   7.124909   1.415880
    33  H    4.858488   3.640261   2.423090   3.003942   4.646972
    34  H    7.462955   6.278226   5.025533   5.297936   2.993354
    35  H    4.113932   4.834457   4.625877   3.381289   7.817051
    36  H    1.085577   2.155079   3.402409   3.740974   9.731563
    37  H    2.160685   1.087311   2.066803   3.237597   8.349457
    38  H    8.904843   8.357913   7.063627   6.261998   2.163875
    39  H   13.786957  12.811040  11.467342  11.234904   5.213723
    40  H   16.037236  15.097924  13.748709  13.452762   7.395006
    41  H   17.001934  16.218551  14.863701  14.354589   8.411007
                   16         17         18         19         20
    16  C    0.000000
    17  N    1.366799   0.000000
    18  C    2.405455   1.377450   0.000000
    19  C    3.726907   2.455433   1.454058   0.000000
    20  C    4.937303   3.775159   2.533663   1.424117   0.000000
    21  C    6.218167   4.971238   3.845627   2.515954   1.400120
    22  C    6.620617   5.277629   4.423342   2.969919   2.438501
    23  C    5.797424   4.430962   3.904265   2.547639   2.763117
    24  N    6.479546   5.149960   4.917120   3.702444   4.097815
    25  S    5.623491   4.427997   4.650405   3.833884   4.728871
    26  N    4.038311   2.792467   3.049978   2.493749   3.688436
    27  C    4.285413   2.919422   2.527953   1.425607   2.388316
    28  C    2.752338   2.382517   1.420829   2.526950   3.011595
    29  N    4.088428   3.677042   2.495543   3.059248   2.886742
    30  S    4.723223   4.749723   3.835393   4.649879   4.502426
    31  N    3.647717   4.108159   3.655299   4.866115   5.183771
    32  C    2.358204   2.773479   2.505025   3.863036   4.484482
    33  H    5.773280   7.049914   7.494648   8.941252   9.692642
    34  H    4.368577   5.366199   5.412823   6.790467   7.329351
    35  H    7.856316   9.078815  10.261750  11.532804  12.792676
    36  H   10.415721  11.781261  12.614392  14.050377  15.038572
    37  H    9.288495  10.635047  11.250779  12.704641  13.531220
    38  H    1.092568   2.060481   3.337010   4.514965   5.823524
    39  H    5.126320   4.163393   2.797178   2.190664   1.085526
    40  H    7.071650   5.890568   4.667604   3.463243   2.134356
    41  H    7.689745   6.340455   5.502848   4.049673   3.420625
                   21         22         23         24         25
    21  C    0.000000
    22  C    1.390000   0.000000
    23  C    2.386396   1.415023   0.000000
    24  N    3.654246   2.443837   1.340957   0.000000
    25  S    4.740666   3.799171   2.410233   1.656857   0.000000
    26  N    4.157928   3.686347   2.365723   2.543581   1.649564
    27  C    2.828421   2.555167   1.512674   2.389168   2.426068
    28  C    4.410693   5.308483   5.073979   6.201847   6.058037
    29  N    4.167327   5.325224   5.447413   6.706100   6.864279
    30  S    5.728430   6.937123   7.079135   8.326728   8.398928
    31  N    6.544941   7.574859   7.412537   8.532826   8.282906
    32  C    5.884195   6.743439   6.388720   7.421023   7.038123
    33  H   11.092721  11.892722  11.355826  12.193387  11.394684
    34  H    8.716656   9.651324   9.311167  10.308620   9.785532
    35  H   14.046594  14.276412  13.204535  13.452516  12.046631
    36  H   16.419282  17.004537  16.205583  16.769809  15.610442
    37  H   14.930501  15.672102  15.037286  15.766343  14.793324
    38  H    7.030908   7.272142   6.292726   6.781164   5.689858
    39  H    2.080479   3.361028   3.842440   5.180037   5.784172
    40  H    1.089318   2.159302   3.391229   4.582213   5.783924
    41  H    2.159325   1.079870   2.188185   2.760933   4.340498
                   26         27         28         29         30
    26  N    0.000000
    27  C    1.345992   0.000000
    28  C    4.469609   3.835720   0.000000
    29  N    5.384537   4.483174   1.348436   0.000000
    30  S    6.857374   6.061726   2.434112   1.634868   0.000000
    31  N    6.651109   6.154806   2.339300   2.475552   1.633218
    32  C    5.393062   5.032165   1.474495   2.335847   2.429179
    33  H    9.807633   9.884392   6.684213   7.286899   6.370006
    34  H    8.139212   7.926691   4.344151   4.734398   3.730340
    35  H   10.952559  11.755854  10.308860  11.466192  11.294101
    36  H   14.233405  14.693152  12.117747  12.921138  12.134117
    37  H   13.288495  13.538147  10.532762  11.155911  10.173464
    38  H    4.246014   4.798393   3.839567   5.179306   5.780646
    39  H    4.639573   3.397956   2.723135   2.138566   3.653761
    40  H    5.246950   3.914738   4.980800   4.449955   5.872209
    41  H    4.553354   3.547056   6.358400   6.288427   7.873976
                   31         32         33         34         35
    31  N    0.000000
    32  C    1.345317   0.000000
    33  H    4.864088   5.209737   0.000000
    34  H    2.266353   2.927483   2.639808   0.000000
    35  H    9.673367   9.151191   6.255469   8.132155   0.000000
    36  H   10.582854  10.682852   5.780485   8.411795   4.846701
    37  H    8.718881   9.060427   3.872266   6.464214   5.912799
    38  H    4.601134   3.376177   5.873480   4.939820   7.026803
    39  H    4.590895   4.151630   9.313105   6.825141  12.927704
    40  H    6.915746   6.441472  11.629403   9.153332  14.926823
    41  H    8.597164   7.804340  12.966194  10.702391  15.300750
                   36         37         38         39         40
    36  H    0.000000
    37  H    2.487135   0.000000
    38  H    9.989301   9.108440   0.000000
    39  H   14.830876  13.180856   6.118825   0.000000
    40  H   17.091547  15.493249   7.946791   2.328208   0.000000
    41  H   18.081423  16.750532   8.315654   4.236965   2.508155
                   41
    41  H    0.000000
 Stoichiometry    C21H9N7OS3
 Framework group  C1[X(C21H9N7OS3)]
 Deg. of freedom   117
 Full point group                 C1      NOp   1
 Largest Abelian subgroup         C1      NOp   1
 Largest concise Abelian subgroup C1      NOp   1
                         Standard orientation:                         
 ---------------------------------------------------------------------
 Center     Atomic      Atomic             Coordinates (Angstroms)
 Number     Number       Type             X           Y           Z
 ---------------------------------------------------------------------
      1          6           0       -3.408712    1.568818   -0.024318
      2          6           0       -2.079085    1.969422   -0.020106
      3          6           0       -1.318426    0.831325   -0.022301
      4          8           0       -2.116607   -0.267840   -0.024440
      5          6           0       -3.413459    0.188787   -0.022609
      6          6           0       -4.556719   -0.663318   -0.017891
      7         16           0       -4.367997   -2.369476   -0.051060
      8          6           0       -6.058470   -2.628656   -0.027013
      9          6           0       -6.751413   -1.446326    0.007434
     10          7           0       -8.109973   -1.380704    0.034302
     11          6           0       -8.532151   -0.085451    0.065741
     12          6           0       -7.699267    1.036900    0.069136
     13          7           0       -6.343688    0.991738    0.043052
     14          6           0       -5.885387   -0.298802    0.011821
     15          6           0        0.103015    0.629293   -0.018971
     16          6           0        0.786852   -0.575217   -0.015255
     17          7           0        2.146585   -0.713680   -0.005623
     18          6           0        2.999717    0.367753    0.000582
     19          6           0        4.439488    0.164665    0.010453
     20          6           0        5.380924    1.233188    0.018507
     21          6           0        6.774764    1.100804    0.023009
     22          6           0        7.393291   -0.143994    0.024441
     23          6           0        6.541884   -1.274199    0.018750
     24          7           0        6.958417   -2.548822    0.019134
     25         16           0        5.595425   -3.490807    0.009468
     26          7           0        4.424390   -2.329033    0.004910
     27          6           0        5.036110   -1.130093    0.010992
     28          6           0        2.399174    1.655410   -0.005920
     29          7           0        2.998588    2.863292   -0.004230
     30         16           0        1.850103    4.026775   -0.013421
     31          7           0        0.531207    3.063525   -0.021370
     32          6           0        0.929872    1.778646   -0.016009
     33          1           0       -4.260488    2.227463   -0.024977
     34          1           0       -1.734029    2.992643   -0.015332
     35          1           0       -6.450280   -3.632188   -0.038685
     36          1           0       -9.610118    0.040611    0.089701
     37          1           0       -8.126215    2.036571    0.094027
     38          1           0        0.254447   -1.529277   -0.019606
     39          1           0        5.052413    2.267808    0.021506
     40          1           0        7.366868    2.015146    0.025347
     41          1           0        8.469062   -0.237850    0.029721
 ---------------------------------------------------------------------
 Rotational constants (GHZ):      0.2585839      0.0451565      0.0384453
 Standard basis: 6-31++G(d,p) (6D, 7F)
 There are   674 symmetry adapted basis functions of A   symmetry.
 Integral buffers will be    131072 words long.
 Raffenetti 2 integral format.
 Two-electron integral symmetry is turned on.
   674 basis functions,  1168 primitive gaussians,   674 cartesian basis functions
   120 alpha electrons      120 beta electrons
       nuclear repulsion energy      3239.0857446693 Hartrees.
 NAtoms=   41 NActive=   41 NUniq=   41 SFac= 1.00D+00 NAtFMM=   60 NAOKFM=F Big=F
 One-electron integrals computed using PRISM.
 NBasis=   674 RedAO= T  NBF=   674
 NBsUse=   663 1.00D-06 NBFU=   663
 Harris functional with IExCor=  402 diagonalized for initial guess.
 ExpMin= 3.60D-02 ExpMax= 2.19D+04 ExpMxC= 3.30D+03 IAcc=3 IRadAn=         5 AccDes= 0.00D+00
 HarFok:  IExCor=  402 AccDes= 0.00D+00 IRadAn=         5 IDoV= 1
 ScaDFX=  1.000000  1.000000  1.000000  1.000000
 FoFCou: FMM=F IPFlag=           0 FMFlag=      100000 FMFlg1=           0
         NFxFlg=           0 DoJE=T BraDBF=F KetDBF=T FulRan=T
         Omega=  0.000000  0.000000  1.000000  0.000000  0.000000 ICntrl=     500 IOpCl=  0
         NMat0=    1 NMatS0=    1 NMatT0=    0 NMatD0=    1 NMtDS0=    0 NMtDT0=    0
         I1Cent=           4 NGrid=           0.
 Petite list used in FoFCou.
 Initial guess orbital symmetries:
       Occupied  (A) (A) (A) (A) (A) (A) (A) (A) (A) (A) (A) (A)
                 (A) (A) (A) (A) (A) (A) (A) (A) (A) (A) (A) (A)
                 (A) (A) (A) (A) (A) (A) (A) (A) (A) (A) (A) (A)
                 (A) (A) (A) (A) (A) (A) (A) (A) (A) (A) (A) (A)
                 (A) (A) (A) (A) (A) (A) (A) (A) (A) (A) (A) (A)
                 (A) (A) (A) (A) (A) (A) (A) (A) (A) (A) (A) (A)
                 (A) (A) (A) (A) (A) (A) (A) (A) (A) (A) (A) (A)
                 (A) (A) (A) (A) (A) (A) (A) (A) (A) (A) (A) (A)
                 (A) (A) (A) (A) (A) (A) (A) (A) (A) (A) (A) (A)
                 (A) (A) (A) (A) (A) (A) (A) (A) (A) (A) (A) (A)
       Virtual   (A) (A) (A) (A) (A) (A) (A) (A) (A) (A) (A) (A)
                 (A) (A) (A) (A) (A) (A) (A) (A) (A) (A) (A) (A)
                 (A) (A) (A) (A) (A) (A) (A) (A) (A) (A) (A) (A)
                 (A) (A) (A) (A) (A) (A) (A) (A) (A) (A) (A) (A)
                 (A) (A) (A) (A) (A) (A) (A) (A) (A) (A) (A) (A)
                 (A) (A) (A) (A) (A) (A) (A) (A) (A) (A) (A) (A)
                 (A) (A) (A) (A) (A) (A) (A) (A) (A) (A) (A) (A)
                 (A) (A) (A) (A) (A) (A) (A) (A) (A) (A) (A) (A)
                 (A) (A) (A) (A) (A) (A) (A) (A) (A) (A) (A) (A)
                 (A) (A) (A) (A) (A) (A) (A) (A) (A) (A) (A) (A)
                 (A) (A) (A) (A) (A) (A) (A) (A) (A) (A) (A) (A)
                 (A) (A) (A) (A) (A) (A) (A) (A) (A) (A) (A) (A)
                 (A) (A) (A) (A) (A) (A) (A) (A) (A) (A) (A) (A)
                 (A) (A) (A) (A) (A) (A) (A) (A) (A) (A) (A) (A)
                 (A) (A) (A) (A) (A) (A) (A) (A) (A) (A) (A) (A)
                 (A) (A) (A) (A) (A) (A) (A) (A) (A) (A) (A) (A)
                 (A) (A) (A) (A) (A) (A) (A) (A) (A) (A) (A) (A)
                 (A) (A) (A) (A) (A) (A) (A) (A) (A) (A) (A) (A)
                 (A) (A) (A) (A) (A) (A) (A) (A) (A) (A) (A) (A)
                 (A) (A) (A) (A) (A) (A) (A) (A) (A) (A) (A) (A)
                 (A) (A) (A) (A) (A) (A) (A) (A) (A) (A) (A) (A)
                 (A) (A) (A) (A) (A) (A) (A) (A) (A) (A) (A) (A)
                 (A) (A) (A) (A) (A) (A) (A) (A) (A) (A) (A) (A)
                 (A) (A) (A) (A) (A) (A) (A) (A) (A) (A) (A) (A)
                 (A) (A) (A) (A) (A) (A) (A) (A) (A) (A) (A) (A)
                 (A) (A) (A) (A) (A) (A) (A) (A) (A) (A) (A) (A)
                 (A) (A) (A) (A) (A) (A) (A) (A) (A) (A) (A) (A)
                 (A) (A) (A) (A) (A) (A) (A) (A) (A) (A) (A) (A)
                 (A) (A) (A) (A) (A) (A) (A) (A) (A) (A) (A) (A)
                 (A) (A) (A) (A) (A) (A) (A) (A) (A) (A) (A) (A)
                 (A) (A) (A) (A) (A) (A) (A) (A) (A) (A) (A) (A)
                 (A) (A) (A) (A) (A) (A) (A) (A) (A) (A) (A) (A)
                 (A) (A) (A) (A) (A) (A) (A) (A) (A) (A) (A) (A)
                 (A) (A) (A) (A) (A) (A) (A) (A) (A) (A) (A) (A)
                 (A) (A) (A) (A) (A) (A) (A) (A) (A) (A) (A) (A)
                 (A) (A) (A) (A) (A) (A) (A) (A) (A) (A) (A) (A)
                 (A) (A) (A) (A) (A) (A) (A) (A) (A) (A) (A) (A)
                 (A) (A) (A) (A) (A) (A) (A) (A) (A) (A) (A) (A)
                 (A) (A) (A) (A) (A) (A) (A) (A) (A) (A) (A) (A)
                 (A) (A) (A) (A) (A) (A) (A) (A) (A) (A) (A) (A)
                 (A) (A) (A) (A) (A) (A) (A) (A) (A) (A) (A) (A)
                 (A) (A) (A) (A) (A) (A) (A) (A) (A) (A) (A) (A)
                 (A) (A) (A) (A) (A) (A) (A) (A) (A) (A) (A) (A)
                 (A) (A) (A) (A) (A) (A) (A) (A) (A) (A) (A) (A)
                 (A) (A) (A) (A) (A) (A) (A) (A) (A) (A) (A) (A)
                 (A) (A) (A)
 The electronic state of the initial guess is 1-A.
 Requested convergence on RMS density matrix=1.00D-08 within 128 cycles.
 Requested convergence on MAX density matrix=1.00D-06.
 Requested convergence on             energy=1.00D-06.
 No special actions if energy rises.
 EnCoef did     4 forward-backward iterations
 EnCoef did     1 forward-backward iterations
 EnCoef did     3 forward-backward iterations
 EnCoef did     1 forward-backward iterations
 Restarting incremental Fock formation.
 SCF Done:  E(RB3LYP) =  -2458.66597740     A.U. after   32 cycles
             Convg  =    0.2480D-08             -V/T =  2.0064

 **********************************************************************

            Population analysis using the SCF density.

 **********************************************************************

 Orbital symmetries:
       Occupied  (A) (A) (A) (A) (A) (A) (A) (A) (A) (A) (A) (A)
                 (A) (A) (A) (A) (A) (A) (A) (A) (A) (A) (A) (A)
                 (A) (A) (A) (A) (A) (A) (A) (A) (A) (A) (A) (A)
                 (A) (A) (A) (A) (A) (A) (A) (A) (A) (A) (A) (A)
                 (A) (A) (A) (A) (A) (A) (A) (A) (A) (A) (A) (A)
                 (A) (A) (A) (A) (A) (A) (A) (A) (A) (A) (A) (A)
                 (A) (A) (A) (A) (A) (A) (A) (A) (A) (A) (A) (A)
                 (A) (A) (A) (A) (A) (A) (A) (A) (A) (A) (A) (A)
                 (A) (A) (A) (A) (A) (A) (A) (A) (A) (A) (A) (A)
                 (A) (A) (A) (A) (A) (A) (A) (A) (A) (A) (A) (A)
       Virtual   (A) (A) (A) (A) (A) (A) (A) (A) (A) (A) (A) (A)
                 (A) (A) (A) (A) (A) (A) (A) (A) (A) (A) (A) (A)
                 (A) (A) (A) (A) (A) (A) (A) (A) (A) (A) (A) (A)
                 (A) (A) (A) (A) (A) (A) (A) (A) (A) (A) (A) (A)
                 (A) (A) (A) (A) (A) (A) (A) (A) (A) (A) (A) (A)
                 (A) (A) (A) (A) (A) (A) (A) (A) (A) (A) (A) (A)
                 (A) (A) (A) (A) (A) (A) (A) (A) (A) (A) (A) (A)
                 (A) (A) (A) (A) (A) (A) (A) (A) (A) (A) (A) (A)
                 (A) (A) (A) (A) (A) (A) (A) (A) (A) (A) (A) (A)
                 (A) (A) (A) (A) (A) (A) (A) (A) (A) (A) (A) (A)
                 (A) (A) (A) (A) (A) (A) (A) (A) (A) (A) (A) (A)
                 (A) (A) (A) (A) (A) (A) (A) (A) (A) (A) (A) (A)
                 (A) (A) (A) (A) (A) (A) (A) (A) (A) (A) (A) (A)
                 (A) (A) (A) (A) (A) (A) (A) (A) (A) (A) (A) (A)
                 (A) (A) (A) (A) (A) (A) (A) (A) (A) (A) (A) (A)
                 (A) (A) (A) (A) (A) (A) (A) (A) (A) (A) (A) (A)
                 (A) (A) (A) (A) (A) (A) (A) (A) (A) (A) (A) (A)
                 (A) (A) (A) (A) (A) (A) (A) (A) (A) (A) (A) (A)
                 (A) (A) (A) (A) (A) (A) (A) (A) (A) (A) (A) (A)
                 (A) (A) (A) (A) (A) (A) (A) (A) (A) (A) (A) (A)
                 (A) (A) (A) (A) (A) (A) (A) (A) (A) (A) (A) (A)
                 (A) (A) (A) (A) (A) (A) (A) (A) (A) (A) (A) (A)
                 (A) (A) (A) (A) (A) (A) (A) (A) (A) (A) (A) (A)
                 (A) (A) (A) (A) (A) (A) (A) (A) (A) (A) (A) (A)
                 (A) (A) (A) (A) (A) (A) (A) (A) (A) (A) (A) (A)
                 (A) (A) (A) (A) (A) (A) (A) (A) (A) (A) (A) (A)
                 (A) (A) (A) (A) (A) (A) (A) (A) (A) (A) (A) (A)
                 (A) (A) (A) (A) (A) (A) (A) (A) (A) (A) (A) (A)
                 (A) (A) (A) (A) (A) (A) (A) (A) (A) (A) (A) (A)
                 (A) (A) (A) (A) (A) (A) (A) (A) (A) (A) (A) (A)
                 (A) (A) (A) (A) (A) (A) (A) (A) (A) (A) (A) (A)
                 (A) (A) (A) (A) (A) (A) (A) (A) (A) (A) (A) (A)
                 (A) (A) (A) (A) (A) (A) (A) (A) (A) (A) (A) (A)
                 (A) (A) (A) (A) (A) (A) (A) (A) (A) (A) (A) (A)
                 (A) (A) (A) (A) (A) (A) (A) (A) (A) (A) (A) (A)
                 (A) (A) (A) (A) (A) (A) (A) (A) (A) (A) (A) (A)
                 (A) (A) (A) (A) (A) (A) (A) (A) (A) (A) (A) (A)
                 (A) (A) (A) (A) (A) (A) (A) (A) (A) (A) (A) (A)
                 (A) (A) (A) (A) (A) (A) (A) (A) (A) (A) (A) (A)
                 (A) (A) (A) (A) (A) (A) (A) (A) (A) (A) (A) (A)
                 (A) (A) (A) (A) (A) (A) (A) (A) (A) (A) (A) (A)
                 (A) (A) (A) (A) (A) (A) (A) (A) (A) (A) (A) (A)
                 (A) (A) (A) (A) (A) (A) (A) (A) (A) (A) (A) (A)
                 (A) (A) (A) (A) (A) (A) (A) (A) (A) (A) (A) (A)
                 (A) (A) (A) (A) (A) (A) (A) (A) (A) (A) (A) (A)
                 (A) (A) (A)
 The electronic state is 1-A.
 Alpha  occ. eigenvalues --  -89.00030 -88.97633 -88.95070 -19.24198 -14.39247
 Alpha  occ. eigenvalues --  -14.38955 -14.37846 -14.37688 -14.37671 -14.37341
 Alpha  occ. eigenvalues --  -14.35451 -10.27324 -10.26778 -10.26623 -10.26589
 Alpha  occ. eigenvalues --  -10.26406 -10.25560 -10.25536 -10.25424 -10.25346
 Alpha  occ. eigenvalues --  -10.25156 -10.25092 -10.24882 -10.24431 -10.23527
 Alpha  occ. eigenvalues --  -10.23478 -10.23266 -10.21952 -10.21626 -10.21444
 Alpha  occ. eigenvalues --  -10.19958 -10.19876  -8.05299  -8.02948  -8.00955
 Alpha  occ. eigenvalues --   -6.01865  -6.01271  -6.01065  -5.99512  -5.98918
 Alpha  occ. eigenvalues --   -5.98703  -5.97338  -5.96963  -5.96757  -1.13975
 Alpha  occ. eigenvalues --   -1.03952  -1.01331  -0.99725  -0.94913  -0.92802
 Alpha  occ. eigenvalues --   -0.91351  -0.90983  -0.89363  -0.86576  -0.83888
 Alpha  occ. eigenvalues --   -0.82816  -0.80630  -0.79300  -0.77998  -0.76531
 Alpha  occ. eigenvalues --   -0.76166  -0.72772  -0.69605  -0.69082  -0.65833
 Alpha  occ. eigenvalues --   -0.65696  -0.64529  -0.63429  -0.61868  -0.61434
 Alpha  occ. eigenvalues --   -0.60553  -0.58059  -0.57273  -0.55315  -0.53899
 Alpha  occ. eigenvalues --   -0.53441  -0.52695  -0.51068  -0.50999  -0.49895
 Alpha  occ. eigenvalues --   -0.49038  -0.48839  -0.48721  -0.47595  -0.47239
 Alpha  occ. eigenvalues --   -0.46372  -0.45459  -0.45077  -0.44970  -0.43645
 Alpha  occ. eigenvalues --   -0.42153  -0.41758  -0.41215  -0.40704  -0.40421
 Alpha  occ. eigenvalues --   -0.40194  -0.39737  -0.38696  -0.38586  -0.38335
 Alpha  occ. eigenvalues --   -0.37653  -0.37236  -0.35972  -0.35378  -0.34411
 Alpha  occ. eigenvalues --   -0.33936  -0.33576  -0.32561  -0.31144  -0.30777
 Alpha  occ. eigenvalues --   -0.30587  -0.30203  -0.29297  -0.28328  -0.28032
 Alpha  occ. eigenvalues --   -0.27131  -0.26732  -0.26100  -0.23989  -0.19998
 Alpha virt. eigenvalues --   -0.12764  -0.11167  -0.09223  -0.05296  -0.03085
 Alpha virt. eigenvalues --   -0.02427  -0.01864  -0.01147  -0.00974  -0.00540
 Alpha virt. eigenvalues --   -0.00407  -0.00368  -0.00262   0.00179   0.00862
 Alpha virt. eigenvalues --    0.00967   0.01379   0.01469   0.01931   0.02249
 Alpha virt. eigenvalues --    0.02873   0.03275   0.03306   0.03461   0.03986
 Alpha virt. eigenvalues --    0.04242   0.04419   0.05085   0.05287   0.05477
 Alpha virt. eigenvalues --    0.06006   0.06230   0.06499   0.06592   0.07144
 Alpha virt. eigenvalues --    0.07225   0.07579   0.07786   0.07840   0.07981
 Alpha virt. eigenvalues --    0.08410   0.09028   0.09452   0.09760   0.10199
 Alpha virt. eigenvalues --    0.10226   0.10386   0.10584   0.10908   0.11007
 Alpha virt. eigenvalues --    0.11174   0.11496   0.11671   0.11760   0.11870
 Alpha virt. eigenvalues --    0.12110   0.12217   0.12468   0.12692   0.12836
 Alpha virt. eigenvalues --    0.13160   0.13497   0.13508   0.13800   0.13898
 Alpha virt. eigenvalues --    0.14051   0.14144   0.14436   0.14684   0.15193
 Alpha virt. eigenvalues --    0.15715   0.15762   0.16044   0.16072   0.16097
 Alpha virt. eigenvalues --    0.16697   0.16973   0.17183   0.17630   0.17857
 Alpha virt. eigenvalues --    0.18219   0.18407   0.18503   0.18699   0.18908
 Alpha virt. eigenvalues --    0.19031   0.19366   0.19470   0.19730   0.19964
 Alpha virt. eigenvalues --    0.20032   0.20303   0.20568   0.21282   0.21659
 Alpha virt. eigenvalues --    0.21864   0.21945   0.22156   0.22256   0.22647
 Alpha virt. eigenvalues --    0.22735   0.22991   0.23873   0.23986   0.24251
 Alpha virt. eigenvalues --    0.24405   0.24463   0.24601   0.24784   0.25091
 Alpha virt. eigenvalues --    0.25422   0.25655   0.25766   0.25866   0.25976
 Alpha virt. eigenvalues --    0.26128   0.26223   0.26337   0.26967   0.27133
 Alpha virt. eigenvalues --    0.27249   0.27636   0.27883   0.27926   0.28068
 Alpha virt. eigenvalues --    0.28513   0.28748   0.28970   0.29400   0.29527
 Alpha virt. eigenvalues --    0.29797   0.30406   0.30519   0.30585   0.30718
 Alpha virt. eigenvalues --    0.30951   0.31212   0.31339   0.31612   0.31794
 Alpha virt. eigenvalues --    0.32165   0.32543   0.32884   0.33215   0.33411
 Alpha virt. eigenvalues --    0.33969   0.34467   0.34571   0.35094   0.35208
 Alpha virt. eigenvalues --    0.35866   0.36313   0.36657   0.37066   0.37220
 Alpha virt. eigenvalues --    0.37384   0.37764   0.38573   0.38657   0.39060
 Alpha virt. eigenvalues --    0.39342   0.39930   0.40539   0.41060   0.42123
 Alpha virt. eigenvalues --    0.42568   0.42924   0.43395   0.43775   0.44104
 Alpha virt. eigenvalues --    0.44542   0.45216   0.45587   0.46147   0.46930
 Alpha virt. eigenvalues --    0.48155   0.48949   0.49400   0.49735   0.50277
 Alpha virt. eigenvalues --    0.50558   0.50728   0.50742   0.51478   0.53123
 Alpha virt. eigenvalues --    0.53418   0.54744   0.55868   0.57124   0.58705
 Alpha virt. eigenvalues --    0.60076   0.61067   0.61866   0.62823   0.62903
 Alpha virt. eigenvalues --    0.64026   0.64848   0.65208   0.65885   0.66027
 Alpha virt. eigenvalues --    0.66097   0.66838   0.66906   0.67155   0.67232
 Alpha virt. eigenvalues --    0.67877   0.68231   0.68309   0.68886   0.69581
 Alpha virt. eigenvalues --    0.70433   0.71369   0.71569   0.72396   0.72449
 Alpha virt. eigenvalues --    0.73272   0.73560   0.74015   0.74063   0.74556
 Alpha virt. eigenvalues --    0.74772   0.74940   0.75641   0.75956   0.76511
 Alpha virt. eigenvalues --    0.76801   0.77478   0.78219   0.78398   0.79486
 Alpha virt. eigenvalues --    0.80715   0.80958   0.81105   0.81973   0.82132
 Alpha virt. eigenvalues --    0.83147   0.83376   0.83420   0.84543   0.85165
 Alpha virt. eigenvalues --    0.86725   0.86784   0.88732   0.91292   0.91721
 Alpha virt. eigenvalues --    0.92048   0.92330   0.93411   0.94188   0.94490
 Alpha virt. eigenvalues --    0.94903   0.95685   0.95966   0.96799   0.97343
 Alpha virt. eigenvalues --    0.97555   0.99018   0.99260   0.99694   1.00103
 Alpha virt. eigenvalues --    1.00124   1.00896   1.01096   1.02165   1.02760
 Alpha virt. eigenvalues --    1.04352   1.04914   1.04971   1.05445   1.05820
 Alpha virt. eigenvalues --    1.05879   1.06832   1.06979   1.07792   1.08792
 Alpha virt. eigenvalues --    1.09464   1.09943   1.10706   1.11495   1.12590
 Alpha virt. eigenvalues --    1.12792   1.13112   1.13700   1.13948   1.14180
 Alpha virt. eigenvalues --    1.15037   1.15629   1.16163   1.16620   1.17296
 Alpha virt. eigenvalues --    1.19225   1.19441   1.20164   1.20222   1.20593
 Alpha virt. eigenvalues --    1.21263   1.21311   1.22052   1.22494   1.22570
 Alpha virt. eigenvalues --    1.22987   1.23848   1.23925   1.24421   1.25060
 Alpha virt. eigenvalues --    1.26141   1.26314   1.26472   1.27396   1.28181
 Alpha virt. eigenvalues --    1.28307   1.29107   1.30064   1.31011   1.31693
 Alpha virt. eigenvalues --    1.32262   1.32638   1.32956   1.33250   1.34417
 Alpha virt. eigenvalues --    1.34905   1.35339   1.36046   1.36328   1.37289
 Alpha virt. eigenvalues --    1.37621   1.37962   1.39076   1.39125   1.39556
 Alpha virt. eigenvalues --    1.40393   1.40656   1.42668   1.43179   1.43455
 Alpha virt. eigenvalues --    1.43669   1.43975   1.46412   1.46766   1.48797
 Alpha virt. eigenvalues --    1.49460   1.50282   1.52013   1.53775   1.54541
 Alpha virt. eigenvalues --    1.55058   1.56179   1.57461   1.58762   1.60529
 Alpha virt. eigenvalues --    1.63488   1.67354   1.67443   1.69323   1.70020
 Alpha virt. eigenvalues --    1.70130   1.71401   1.73017   1.73643   1.74149
 Alpha virt. eigenvalues --    1.75146   1.75754   1.76219   1.76325   1.79006
 Alpha virt. eigenvalues --    1.79575   1.80466   1.81233   1.82386   1.82617
 Alpha virt. eigenvalues --    1.82692   1.83568   1.84001   1.84368   1.84770
 Alpha virt. eigenvalues --    1.85704   1.85960   1.88189   1.90117   1.90800
 Alpha virt. eigenvalues --    1.91553   1.91722   1.92696   1.93078   1.93782
 Alpha virt. eigenvalues --    1.95273   1.96425   1.96657   1.97299   1.97659
 Alpha virt. eigenvalues --    1.98006   1.99545   2.00056   2.00154   2.00762
 Alpha virt. eigenvalues --    2.02092   2.03113   2.03163   2.04184   2.04608
 Alpha virt. eigenvalues --    2.06805   2.10454   2.12726   2.12806   2.14828
 Alpha virt. eigenvalues --    2.14938   2.16238   2.17820   2.18871   2.20888
 Alpha virt. eigenvalues --    2.24263   2.24514   2.24756   2.25118   2.26263
 Alpha virt. eigenvalues --    2.26471   2.27031   2.28471   2.29072   2.29131
 Alpha virt. eigenvalues --    2.29743   2.32027   2.32355   2.32582   2.33717
 Alpha virt. eigenvalues --    2.33757   2.36533   2.37354   2.38290   2.38808
 Alpha virt. eigenvalues --    2.39214   2.39508   2.39873   2.40441   2.40993
 Alpha virt. eigenvalues --    2.42434   2.43953   2.43991   2.45089   2.45936
 Alpha virt. eigenvalues --    2.46485   2.46986   2.47411   2.49951   2.50215
 Alpha virt. eigenvalues --    2.51069   2.52043   2.52328   2.54734   2.55005
 Alpha virt. eigenvalues --    2.55678   2.56448   2.57549   2.57762   2.59284
 Alpha virt. eigenvalues --    2.59842   2.61337   2.62042   2.62867   2.64518
 Alpha virt. eigenvalues --    2.64654   2.65165   2.67169   2.67394   2.68125
 Alpha virt. eigenvalues --    2.69224   2.69609   2.70204   2.70526   2.71106
 Alpha virt. eigenvalues --    2.74668   2.75349   2.76128   2.77304   2.78602
 Alpha virt. eigenvalues --    2.82613   2.82787   2.83939   2.87298   2.89388
 Alpha virt. eigenvalues --    2.90959   2.92623   2.93389   2.94436   2.96851
 Alpha virt. eigenvalues --    2.97254   2.99646   3.01667   3.03117   3.06482
 Alpha virt. eigenvalues --    3.09251   3.10355   3.11745   3.12766   3.17908
 Alpha virt. eigenvalues --    3.20824   3.21274   3.24203   3.30836   3.31675
 Alpha virt. eigenvalues --    3.31962   3.34766   3.35717   3.40518   3.43468
 Alpha virt. eigenvalues --    3.46328   3.50083   3.58493   3.67856   3.77003
 Alpha virt. eigenvalues --    3.78947   3.95182   3.96375   3.97564   4.11552
 Alpha virt. eigenvalues --    4.15671   4.16938   4.21410   4.26807   4.29133
 Alpha virt. eigenvalues --    4.30785   4.33909   4.35168   4.35993   4.37572
 Alpha virt. eigenvalues --    4.38494   4.39003   4.42232   4.46623   4.49023
 Alpha virt. eigenvalues --    4.51132   4.52587   4.55400   4.56399   4.57522
 Alpha virt. eigenvalues --    4.61012   4.65910   4.67605   4.74244   4.77069
 Alpha virt. eigenvalues --    4.84479   4.87877   4.91082
          Condensed to atoms (all electrons):
              1          2          3          4          5          6
     1  C    7.580767   1.334601  -1.927285   0.157848  -0.293464  -0.659869
     2  C    1.334601   7.594012  -0.599849   0.038992  -1.957665  -0.272793
     3  C   -1.927285  -0.599849  11.481780  -0.148489  -0.632972   0.373257
     4  O    0.157848   0.038992  -0.148489   8.548880   0.071746  -0.302338
     5  C   -0.293464  -1.957665  -0.632972   0.071746  11.001430   0.311014
     6  C   -0.659869  -0.272793   0.373257  -0.302338   0.311014   7.651414
     7  S    0.021745   0.009727   0.049749  -0.015223  -0.356755   0.113119
     8  C    0.436440   0.168476  -0.245388   0.014850  -0.129218  -0.259563
     9  C   -0.753719  -0.200871   0.234574  -0.008398  -1.305572  -1.420134
    10  N    0.019524   0.001983  -0.005257   0.000028   0.028348   0.090708
    11  C   -0.057993  -0.023065   0.017001   0.001304   0.045566  -0.306931
    12  C    0.036059   0.033565  -0.042363  -0.001181  -0.143325   0.227516
    13  N    0.222518   0.038898  -0.003757  -0.003339  -0.121660  -0.148407
    14  C   -0.506607  -0.341392  -0.296087   0.012764   0.916083   1.108521
    15  C   -0.361709  -0.646905   2.707626  -0.231483   1.030221   0.061358
    16  C    0.109161  -0.252800  -2.262639   0.088439  -0.853626  -0.231999
    17  N    0.019797   0.066849   0.075098  -0.005738  -0.055666   0.001102
    18  C   -0.074056  -0.169472   0.923975   0.005502  -0.046511  -0.005263
    19  C   -0.021571  -0.038462   0.137186  -0.007587  -0.024736   0.000722
    20  C   -0.014291  -0.098864   0.184881  -0.001211   0.007858  -0.000120
    21  C   -0.001344  -0.013208   0.009435  -0.000058  -0.001271  -0.000033
    22  C    0.000034  -0.001385   0.013549   0.000033   0.001021  -0.000001
    23  C    0.000474  -0.001476  -0.014953   0.000289   0.008122  -0.000013
    24  N   -0.000002  -0.000021  -0.000083  -0.000001  -0.000065  -0.000002
    25  S   -0.000016  -0.000178  -0.000604  -0.000043  -0.000936  -0.000037
    26  N    0.000446   0.005003   0.001231  -0.000341  -0.007547  -0.000027
    27  C   -0.000335  -0.043234  -0.069959   0.002361   0.037544  -0.002014
    28  C    0.066379   0.280507  -0.870290  -0.011555  -0.156386   0.000680
    29  N    0.008500   0.018540  -0.071425  -0.000185  -0.011392  -0.000040
    30  S    0.002006  -0.009266  -0.087151   0.001209  -0.017391  -0.001355
    31  N    0.030009   0.195907  -0.234682  -0.005112   0.017100   0.005715
    32  C    0.535524   0.673451  -2.778525   0.080170  -1.451407  -0.024663
    33  H    0.409783   0.097087   0.007833   0.025473  -0.245982  -0.081870
    34  H    0.010006   0.365271  -0.099238   0.019202   0.028352   0.010913
    35  H    0.004252   0.001694  -0.003568   0.000306  -0.002634   0.018467
    36  H   -0.000248  -0.000175  -0.000061   0.000022  -0.007430  -0.015612
    37  H   -0.009841  -0.002656  -0.001658  -0.000164   0.005959   0.007496
    38  H   -0.011135  -0.053030  -0.138662  -0.009705  -0.014738   0.003235
    39  H   -0.000592  -0.002175   0.005658  -0.000077  -0.000583  -0.000006
    40  H    0.000001   0.000008  -0.000580   0.000001   0.000002  -0.000000
    41  H   -0.000002  -0.000035   0.000139   0.000000   0.000006  -0.000000
              7          8          9         10         11         12
     1  C    0.021745   0.436440  -0.753719   0.019524  -0.057993   0.036059
     2  C    0.009727   0.168476  -0.200871   0.001983  -0.023065   0.033565
     3  C    0.049749  -0.245388   0.234574  -0.005257   0.017001  -0.042363
     4  O   -0.015223   0.014850  -0.008398   0.000028   0.001304  -0.001181
     5  C   -0.356755  -0.129218  -1.305572   0.028348   0.045566  -0.143325
     6  C    0.113119  -0.259563  -1.420134   0.090708  -0.306931   0.227516
     7  S   16.160287  -0.405011   0.213394   0.062280  -0.056885   0.083461
     8  C   -0.405011  14.083446  -3.640207  -0.730526  -0.638915   0.545168
     9  C    0.213394  -3.640207  15.589800  -0.274680   1.062011  -0.527797
    10  N    0.062280  -0.730526  -0.274680   7.114908   0.209057   0.030510
    11  C   -0.056885  -0.638915   1.062011   0.209057   5.997253  -0.647664
    12  C    0.083461   0.545168  -0.527797   0.030510  -0.647664   6.451124
    13  N    0.030778  -0.014503  -0.149239  -0.026560   0.211311  -0.129547
    14  C   -0.070904  -3.426719  -2.542988   0.782338  -0.064695  -0.426732
    15  C    0.002605  -0.023296  -0.017265   0.000183   0.001751  -0.003447
    16  C   -0.001389   0.003330  -0.015985  -0.000026  -0.000388  -0.000692
    17  N   -0.000169  -0.000488   0.000138  -0.000000   0.000006  -0.000023
    18  C   -0.004949   0.000028  -0.000855  -0.000000  -0.000010   0.000028
    19  C    0.000613  -0.000095   0.000027  -0.000000   0.000001  -0.000001
    20  C    0.000193  -0.000005  -0.000011  -0.000000   0.000000   0.000000
    21  C    0.000023  -0.000001  -0.000001  -0.000000   0.000000  -0.000000
    22  C   -0.000020   0.000000  -0.000000   0.000000  -0.000000   0.000000
    23  C   -0.000058   0.000011  -0.000004   0.000000  -0.000000   0.000000
    24  N    0.000002   0.000000   0.000000  -0.000000   0.000000  -0.000000
    25  S    0.000021  -0.000002   0.000001  -0.000000   0.000000  -0.000000
    26  N    0.000013  -0.000014   0.000007  -0.000000   0.000000  -0.000000
    27  C    0.000101   0.000179  -0.000087   0.000000  -0.000002   0.000006
    28  C    0.004641  -0.001116  -0.000151  -0.000001   0.000061  -0.000184
    29  N    0.000030  -0.000003   0.000016  -0.000000  -0.000000   0.000000
    30  S    0.000364  -0.000082  -0.000047  -0.000000  -0.000004  -0.000005
    31  N    0.000212   0.000014   0.000547  -0.000000  -0.000010   0.000116
    32  C    0.024438  -0.016581   0.001912  -0.000065   0.000524  -0.002948
    33  H    0.006085   0.009667   0.010004  -0.000575  -0.011338   0.010696
    34  H    0.002279  -0.000006   0.000693   0.000014   0.000737   0.000881
    35  H   -0.051520   0.382474  -0.017410  -0.019264  -0.001634   0.002498
    36  H   -0.001472   0.033684   0.177031  -0.116758   0.429665  -0.141394
    37  H   -0.000246  -0.004689  -0.034958   0.013914  -0.154532   0.482362
    38  H   -0.008597  -0.003822   0.003139  -0.000030   0.000048  -0.000242
    39  H   -0.000005  -0.000001  -0.000001   0.000000   0.000000  -0.000000
    40  H    0.000000   0.000000   0.000000  -0.000000  -0.000000   0.000000
    41  H   -0.000000  -0.000000  -0.000000   0.000000   0.000000   0.000000
             13         14         15         16         17         18
     1  C    0.222518  -0.506607  -0.361709   0.109161   0.019797  -0.074056
     2  C    0.038898  -0.341392  -0.646905  -0.252800   0.066849  -0.169472
     3  C   -0.003757  -0.296087   2.707626  -2.262639   0.075098   0.923975
     4  O   -0.003339   0.012764  -0.231483   0.088439  -0.005738   0.005502
     5  C   -0.121660   0.916083   1.030221  -0.853626  -0.055666  -0.046511
     6  C   -0.148407   1.108521   0.061358  -0.231999   0.001102  -0.005263
     7  S    0.030778  -0.070904   0.002605  -0.001389  -0.000169  -0.004949
     8  C   -0.014503  -3.426719  -0.023296   0.003330  -0.000488   0.000028
     9  C   -0.149239  -2.542988  -0.017265  -0.015985   0.000138  -0.000855
    10  N   -0.026560   0.782338   0.000183  -0.000026  -0.000000  -0.000000
    11  C    0.211311  -0.064695   0.001751  -0.000388   0.000006  -0.000010
    12  C   -0.129547  -0.426732  -0.003447  -0.000692  -0.000023   0.000028
    13  N    7.128631   0.242814   0.004130   0.001789  -0.000009   0.000040
    14  C    0.242814  10.916600   0.003557  -0.095225  -0.002511  -0.002269
    15  C    0.004130   0.003557  12.020757  -4.268235  -0.042611   1.134391
    16  C    0.001789  -0.095225  -4.268235  10.841637  -0.092099  -1.617576
    17  N   -0.000009  -0.002511  -0.042611  -0.092099   7.065968   0.132448
    18  C    0.000040  -0.002269   1.134391  -1.617576   0.132448  12.811841
    19  C   -0.000004  -0.000289   0.725513  -0.599369  -0.293830   3.194836
    20  C    0.000000  -0.000013   0.406116  -0.197694   0.071821  -2.541529
    21  C    0.000000  -0.000021  -0.045279   0.047094   0.025462  -0.974300
    22  C    0.000000   0.000006   0.017681  -0.068872   0.094863  -0.258097
    23  C    0.000000   0.000112  -0.058053   0.174127   0.249755  -2.329616
    24  N   -0.000000  -0.000000  -0.001539   0.003526  -0.012670   0.075905
    25  S   -0.000000  -0.000019  -0.015942  -0.001150  -0.044212   0.105685
    26  N   -0.000000  -0.000120  -0.065025   0.012681   0.060103   0.113941
    27  C    0.000003   0.000901  -0.291462   0.474459  -0.105168  -1.812371
    28  C   -0.000015  -0.009753  -1.716161   1.090367   0.021310  -1.347636
    29  N   -0.000000   0.000006  -0.018513  -0.003155   0.013870   0.007288
    30  S    0.000039  -0.001120  -0.115819   0.107547   0.002587  -0.059106
    31  N   -0.000022   0.003678  -0.161219   0.009030  -0.007375  -0.187402
    32  C   -0.000894  -0.130831  -3.486613   2.833403  -0.005289  -0.895723
    33  H   -0.017836  -0.031991   0.014371   0.022737   0.000475   0.000595
    34  H    0.000342   0.001294  -0.030403  -0.034512  -0.001308   0.006298
    35  H   -0.001471  -0.031357   0.000192  -0.000169  -0.000009  -0.000005
    36  H    0.018594  -0.157118   0.000009  -0.000002   0.000000  -0.000000
    37  H   -0.118543   0.048357  -0.000200  -0.000131  -0.000000   0.000002
    38  H    0.000109  -0.002170  -0.272697   0.693480  -0.160832  -0.083825
    39  H    0.000000  -0.000021   0.004033  -0.006783  -0.003032  -0.048220
    40  H   -0.000000   0.000000  -0.003146   0.003710   0.000475  -0.013636
    41  H    0.000000   0.000000   0.000274  -0.000992   0.000981  -0.010636
             19         20         21         22         23         24
     1  C   -0.021571  -0.014291  -0.001344   0.000034   0.000474  -0.000002
     2  C   -0.038462  -0.098864  -0.013208  -0.001385  -0.001476  -0.000021
     3  C    0.137186   0.184881   0.009435   0.013549  -0.014953  -0.000083
     4  O   -0.007587  -0.001211  -0.000058   0.000033   0.000289  -0.000001
     5  C   -0.024736   0.007858  -0.001271   0.001021   0.008122  -0.000065
     6  C    0.000722  -0.000120  -0.000033  -0.000001  -0.000013  -0.000002
     7  S    0.000613   0.000193   0.000023  -0.000020  -0.000058   0.000002
     8  C   -0.000095  -0.000005  -0.000001   0.000000   0.000011   0.000000
     9  C    0.000027  -0.000011  -0.000001  -0.000000  -0.000004   0.000000
    10  N   -0.000000  -0.000000  -0.000000   0.000000   0.000000  -0.000000
    11  C    0.000001   0.000000   0.000000  -0.000000  -0.000000   0.000000
    12  C   -0.000001   0.000000  -0.000000   0.000000   0.000000  -0.000000
    13  N   -0.000004   0.000000   0.000000   0.000000   0.000000  -0.000000
    14  C   -0.000289  -0.000013  -0.000021   0.000006   0.000112  -0.000000
    15  C    0.725513   0.406116  -0.045279   0.017681  -0.058053  -0.001539
    16  C   -0.599369  -0.197694   0.047094  -0.068872   0.174127   0.003526
    17  N   -0.293830   0.071821   0.025462   0.094863   0.249755  -0.012670
    18  C    3.194836  -2.541529  -0.974300  -0.258097  -2.329616   0.075905
    19  C   12.963379  -2.868528  -1.870135   1.011403  -5.609845   0.130520
    20  C   -2.868528  11.754881   0.860597  -2.789012   3.174235  -0.001158
    21  C   -1.870135   0.860597   7.757305   0.898119  -0.095609  -0.016833
    22  C    1.011403  -2.789012   0.898119  13.187831  -2.041812  -0.455450
    23  C   -5.609845   3.174235  -0.095609  -2.041812  18.850650  -0.094134
    24  N    0.130520  -0.001158  -0.016833  -0.455450  -0.094134   7.415542
    25  S    0.100591  -0.023459   0.018279  -0.245032  -1.018339   0.033843
    26  N    0.019025  -0.020639  -0.007307   0.065794   0.921234  -0.139588
    27  C   -0.049403   0.477246   0.736386  -3.462570  -6.522412   0.470493
    28  C   -1.156849  -1.535353  -0.827030   0.146910   1.051789  -0.020693
    29  N    0.119686  -0.085014  -0.071538  -0.012326  -0.025867   0.000325
    30  S   -0.112647   0.052153   0.006556  -0.000438   0.019627  -0.000091
    31  N   -0.036086  -0.120412  -0.029723  -0.000316   0.005072  -0.000016
    32  C   -0.415480  -0.410206  -0.088737   0.018751   0.086020  -0.002613
    33  H   -0.000030  -0.000003   0.000009  -0.000001  -0.000008   0.000000
    34  H    0.000843   0.000836   0.000082   0.000056  -0.000150  -0.000001
    35  H   -0.000001   0.000000  -0.000000   0.000000   0.000000   0.000000
    36  H   -0.000000  -0.000000  -0.000000   0.000000   0.000000  -0.000000
    37  H    0.000000   0.000000   0.000000   0.000000   0.000000  -0.000000
    38  H   -0.018081  -0.001577  -0.000320  -0.001737   0.012368   0.000055
    39  H   -0.101832   0.433845   0.058018  -0.016321  -0.010530   0.001851
    40  H   -0.087769   0.001054   0.406351  -0.089520   0.071572  -0.003344
    41  H    0.050907  -0.051094  -0.075139   0.494543  -0.111086  -0.021653
             25         26         27         28         29         30
     1  C   -0.000016   0.000446  -0.000335   0.066379   0.008500   0.002006
     2  C   -0.000178   0.005003  -0.043234   0.280507   0.018540  -0.009266
     3  C   -0.000604   0.001231  -0.069959  -0.870290  -0.071425  -0.087151
     4  O   -0.000043  -0.000341   0.002361  -0.011555  -0.000185   0.001209
     5  C   -0.000936  -0.007547   0.037544  -0.156386  -0.011392  -0.017391
     6  C   -0.000037  -0.000027  -0.002014   0.000680  -0.000040  -0.001355
     7  S    0.000021   0.000013   0.000101   0.004641   0.000030   0.000364
     8  C   -0.000002  -0.000014   0.000179  -0.001116  -0.000003  -0.000082
     9  C    0.000001   0.000007  -0.000087  -0.000151   0.000016  -0.000047
    10  N   -0.000000  -0.000000   0.000000  -0.000001  -0.000000  -0.000000
    11  C    0.000000   0.000000  -0.000002   0.000061  -0.000000  -0.000004
    12  C   -0.000000  -0.000000   0.000006  -0.000184   0.000000  -0.000005
[...]
 0000987,-0.00000667,-0.00000004,-0.00008481,0.00000317,0.00000027,-0.0
 0073907,0.00009822,-0.00027482,-0.08804436,0.09416851,0.00000119,-0.00
 001531,0.00009450,0.00002907,-0.00001745,-0.00018583,-0.00001027,-0.00
 000581,-0.00004306,-0.00000860,-0.00001014,-0.00001546,-0.00006310,0.0
 0010283,0.00052587,-0.00009460,0.00001536,0.00064391,0.00011145,-0.000
 15402,-0.00084070,0.00009708,-0.00013358,-0.00095240,0.00024049,0.0001
 7694,0.00079879,-0.00046537,0.00148999,0.00268028,-0.00443485,0.000638
 68,0.00419383,-0.03955134,0.01763835,-0.04389864,0.00161614,-0.0026297
 3,-0.00712853,-0.00066399,0.00170877,0.01270930,0.00000964,0.00000896,
 0.00002862,-0.00000800,0.00000334,0.00000129,0.00000383,0.00000134,-0.
 00000786,0.00000090,-0.00000268,0.00000070,0.00000216,-0.00000003,0.00
 000195,-0.00000090,-0.00000056,-0.00000104,0.00000078,0.00000054,0.000
 00108,-0.00000114,0.00000050,-0.00000112,-0.00000020,-0.00000102,0.000
 00085,-0.00000113,-0.00000007,-0.00000071,0.00000139,0.00000059,0.0000
 0053,-0.00000084,-0.00000021,-0.00000006,-0.00000088,-0.00000004,-0.00
 000080,-0.00000280,-0.00000003,-0.00000064,-0.00000201,-0.00000100,-0.
 00000256,0.00000173,-0.00000076,0.00000238,-0.00000073,0.00000015,-0.0
 0000077,0.00000034,-0.00000151,0.00000289,-0.00001432,0.00002337,0.000
 11312,0.00000035,-0.00000004,0.00000066,-0.00000054,0.00001141,0.00006
 949,0.00024498,-0.00011987,-0.00130225,0.04296336,-0.01872689,0.032509
 68,0.00039417,-0.00041694,0.00011495,0.00055739,-0.00007783,0.00007780
 ,0.00011979,0.00188310,0.00006743,-0.00060610,-0.00041188,-0.00003489,
 -0.00135057,-0.00076700,-0.00002145,0.00000267,-0.00002884,-0.00000765
 ,-0.00006693,-0.00011649,-0.00000045,-0.00000596,-0.00005709,0.0000158
 6,0.00003682,0.00007162,-0.00000821,-0.00000653,0.00000995,-0.00000294
 ,0.00002884,-0.00004183,0.00000828,0.00000520,0.00004120,-0.00000528,-
 0.00001068,0.00001511,-0.00000167,-0.00001317,0.00001518,0.00000124,0.
 00289230,0.02731399,-0.00386833,-0.05537676,0.02348578,-0.00468898,-0.
 00586325,-0.03618139,0.00421274,-0.00304694,-0.00402915,-0.00050734,0.
 00045883,-0.00072918,-0.00001018,-0.00030084,-0.00004154,0.00002028,0.
 00000160,-0.00001291,-0.00005902,-0.00003118,-0.00002903,-0.00001211,-
 0.00001389,-0.00000114,0.00001537,-0.00002045,0.00000979,-0.00000719,-
 0.00010896,0.00001082,0.00006432,0.00002250,0.00011295,0.00000080,0.00
 009469,-0.00005975,-0.00010026,-0.00095671,-0.00010880,-0.00006682,0.0
 0043946,-0.00015107,0.00011394,-0.00020189,0.00048846,0.00004813,0.000
 20488,0.00153848,-0.00027476,-0.00482260,0.00058667,-0.00141425,0.0000
 3489,-0.00007129,0.00000376,0.00011009,0.00001653,0.00001462,0.0000194
 2,0.00001124,0.00000038,0.00000789,0.00000383,0.00000047,0.00000751,-0
 .00000045,0.00000068,0.06739129,-0.00023008,-0.00007834,-0.00002886,0.
 00011496,0.00011682,-0.00001303,-0.00044355,-0.00174341,-0.00015429,-0
 .00227244,0.00011981,-0.00026701,0.00015753,0.00059219,-0.00010147,-0.
 00004586,0.00008950,-0.00000122,-0.00011487,0.00004672,0.00000095,-0.0
 0003731,-0.00012253,0.00000571,0.00008228,-0.00000170,0.00000861,-0.00
 002688,-0.00002434,0.00000155,0.00001967,0.00000324,0.00000265,-0.0000
 0123,0.00001199,-0.00000201,0.00000161,-0.00001562,0.00000059,0.000025
 86,0.00000407,0.00000161,0.00067942,-0.00954171,0.00219578,0.02358589,
 -0.33383840,0.04015142,-0.00997888,-0.01452134,0.00055585,-0.00097998,
 0.00172332,0.00053264,0.00013366,-0.00034585,0.00002508,-0.00011318,0.
 00003564,0.00005586,-0.00002531,0.00001049,-0.00002926,-0.00001767,-0.
 00002935,-0.00001779,-0.00001214,0.00001769,0.00000646,-0.00007263,-0.
 00002560,-0.00002170,-0.00000865,0.00000719,0.00001654,-0.00003309,0.0
 0002034,0.00008696,0.00006099,-0.00006529,-0.00003093,0.00005994,0.000
 26365,-0.00006011,-0.00005122,-0.00001456,-0.00005201,0.00026842,-0.00
 008540,-0.00012382,-0.00009612,-0.00046047,0.00016266,0.00171331,0.000
 67641,0.00105140,-0.00002187,0.00005258,0.00000283,-0.00003756,-0.0000
 1540,-0.00000531,-0.00000568,0.00000129,0.00000003,-0.00000196,-0.0000
 0339,0.00000009,-0.00000258,0.00000041,-0.00000007,-0.01226254,0.35715
 834,0.00008130,-0.00007683,-0.00011889,0.00009094,-0.00002968,-0.00003
 935,0.00025457,0.00004836,-0.00264777,0.00021791,-0.00004865,0.0000919
 2,-0.00013013,-0.00015391,-0.00025571,-0.00000650,-0.00002759,0.000094
 76,-0.00001861,-0.00001016,0.00011180,0.00001304,0.00000431,-0.0000667
 3,-0.00000700,0.00000660,0.00000483,0.00000147,0.00000574,0.00000723,0
 .00000050,-0.00000605,0.00000619,0.00000385,0.00000680,0.00000149,-0.0
 0000724,0.00000154,-0.00001451,0.00000824,0.00000386,-0.00001168,-0.00
 025764,0.00503726,0.00617507,-0.00477318,0.04012040,-0.04717507,0.0005
 9890,-0.00164888,-0.00080982,-0.00148275,-0.00034557,0.00666375,0.0003
 3891,0.00022800,0.00066262,-0.00003075,-0.00012555,-0.00013137,0.00012
 977,0.00004305,-0.00005182,-0.00005631,0.00002530,0.00003482,-0.000014
 65,-0.00001098,-0.00005305,0.00003907,0.00000115,-0.00000687,0.0000232
 0,0.00007306,0.00001982,0.00013721,-0.00009410,-0.00009195,-0.00009720
 ,-0.00005315,0.00000609,0.00003441,-0.00014427,-0.00032803,0.00007469,
 0.00001191,-0.00029879,0.00011516,-0.00013856,-0.00127749,-0.00004786,
 0.00030617,0.00083698,-0.00155526,0.00098693,0.00691876,-0.00000377,-0
 .00000074,0.00009549,0.00001996,-0.00000036,-0.00003038,0.00000210,0.0
 0000106,0.00000261,0.00000110,0.00000053,-0.00000138,0.00000086,0.0000
 0025,0.00000171,0.00629376,-0.04397428,0.03166264,-0.00001129,0.000010
 45,0.00001128,0.00001789,-0.00001146,-0.00002333,-0.00001725,-0.000007
 26,-0.00002289,0.00001510,0.00002069,-0.00000642,0.00000370,0.00000414
 ,0.00001675,-0.00000350,-0.00001906,0.00000486,-0.00000118,-0.00001789
 ,0.00000265,0.00001538,0.00002386,-0.00000220,-0.00002281,0.00001031,-
 0.00000384,0.00000748,0.00000702,-0.00000011,-0.00000194,-0.00000815,0
 .00000180,0.00000669,0.00000505,0.00000030,-0.00000759,0.00000451,-0.0
 0000329,0.00000832,-0.00000568,-0.00000583,-0.00002831,-0.00001029,-0.
 00001363,0.00005104,0.00000403,0.00002060,-0.00007337,0.00035649,-0.00
 009774,0.00037466,-0.00045336,-0.00053355,0.00727555,-0.00306288,-0.00
 228451,-0.23719358,0.10932750,0.09051686,-0.01741351,0.01438988,0.0109
 2349,-0.00345290,-0.00343245,-0.00101786,0.00030103,-0.00094075,-0.000
 52058,-0.00008785,0.00024994,0.00013849,0.00029113,-0.00011022,-0.0002
 4943,0.00029891,-0.00000746,0.00009498,0.00052004,-0.00190193,-0.00048
 215,-0.00022349,-0.00102163,-0.00049987,-0.00247342,0.00019063,-0.0013
 5173,-0.00062468,0.00000504,-0.00016578,0.00006279,0.00020987,-0.00006
 078,0.00013529,-0.00017592,0.00017373,0.00000058,0.00000004,0.00000055
 ,-0.00001730,-0.00000716,0.00000284,0.00000205,-0.00000131,0.00000092,
 0.00000255,0.00000149,0.00000014,0.00000123,0.00000004,0.00000022,0.00
 000307,0.00001070,-0.00000213,0.25215196,-0.00000819,0.00004022,0.0000
 0488,-0.00002520,-0.00001353,-0.00000784,0.00004263,0.00004148,0.00003
 378,0.00000799,-0.00001237,0.00000410,0.00002742,0.00000541,0.00000856
 ,-0.00000116,-0.00002526,0.00000330,0.00000043,-0.00002356,-0.00000084
 ,0.00002379,0.00003034,0.00000044,-0.00003522,0.00001750,-0.00000527,0
 .00001037,0.00000950,0.00000024,-0.00000124,-0.00001361,0.00000105,0.0
 0000786,0.00000818,-0.00000046,-0.00001035,0.00000828,-0.00000103,0.00
 000607,-0.00000798,-0.00000207,-0.00024116,0.00018007,-0.00003070,0.00
 053271,0.00002932,-0.00016024,-0.00072645,-0.00083889,0.00014963,0.002
 00823,0.00001754,0.00220281,0.02207343,-0.00933487,-0.01067951,0.10811
 240,-0.12269020,-0.06186534,-0.01264181,0.01004428,0.00535482,-0.00312
 307,0.00000836,-0.00192176,-0.00036382,-0.00078325,-0.00020015,0.00005
 026,0.00042069,0.00020629,0.00023495,-0.00077005,0.00020243,0.00120204
 ,-0.00011157,-0.00083246,-0.00288891,-0.00177731,-0.00494223,-0.000414
 54,-0.00035415,-0.00020883,0.00049674,0.00013854,0.00037407,0.00012857
 ,0.00023526,0.00010849,0.00023480,0.00012728,-0.00002985,-0.00018069,-
 0.00040058,-0.00008723,0.00000050,0.00000079,-0.00000175,-0.00001380,-
 0.00000454,-0.00001046,0.00000236,-0.00000099,-0.00000027,0.00000236,0
 .00000178,-0.00000013,0.00000243,-0.00000042,0.00000017,-0.00000509,-0
 .00000504,-0.00001650,-0.11435890,0.12538415,-0.00001746,0.00002385,-0
 .00001200,0.00001998,-0.00002612,0.00000014,-0.00001118,-0.00001821,-0
 .00005021,0.00001992,0.00005033,-0.00001104,0.00000439,0.00000070,0.00
 000464,0.00000209,-0.00002532,0.00000699,-0.00000286,-0.00002619,0.000
 00627,0.00002697,0.00003526,-0.00000412,-0.00003874,0.00001701,-0.0000
 0407,0.00001275,0.00001117,-0.00000161,-0.00000342,-0.00001116,0.00000
 134,0.00000718,0.00000474,0.00000076,-0.00000823,0.00000929,-0.0000040
 6,0.00000351,-0.00000816,-0.00000150,0.00000743,-0.00021483,0.00001145
 ,-0.00026765,0.00010477,0.00029671,0.00047127,0.00071467,-0.00013844,-
 0.00066477,0.00221941,-0.00343696,0.01299707,-0.00739088,-0.00143218,0
 .08802581,-0.06073394,-0.08311760,-0.00404487,0.00106856,0.00467444,-0
 .00039704,-0.00192973,0.00332068,-0.00022005,0.00002290,-0.00029747,0.
 00007945,0.00006612,0.00009439,0.00002991,0.00042867,-0.00117313,0.000
 67384,-0.00074421,0.00063796,-0.00056995,-0.00516770,0.00542840,-0.000
 83742,-0.00137649,-0.00017356,-0.00010997,-0.00042937,0.00032540,-0.00
 091181,0.00056488,0.00005921,0.00075100,0.00054711,-0.00025863,0.00007
 916,0.00001295,0.00027706,0.00000049,-0.00000001,0.00000292,-0.0000397
 6,-0.00001480,0.00000726,0.00000277,-0.00000089,0.00000089,0.00000242,
 0.00000180,0.00000028,0.00000206,-0.00000052,0.00000062,0.00001310,0.0
 0001600,-0.00000214,-0.09468057,0.07074236,0.07659287,0.00000347,-0.00
 003512,0.00001238,0.00002315,0.00001305,-0.00000635,-0.00004494,-0.000
 01247,-0.00001614,0.00001168,0.00003085,-0.00000083,-0.00004538,-0.000
 00815,-0.00000734,0.00000096,0.00001757,-0.00000194,0.00000182,0.00001
 502,-0.00000156,-0.00001693,-0.00002267,0.00000112,0.00002419,-0.00001
 006,0.00000379,-0.00000737,-0.00000513,0.00000013,0.00000164,0.0000065
 7,-0.00000080,-0.00000625,-0.00000450,-0.00000013,0.00000682,-0.000003
 19,0.00000135,-0.00000406,0.00000429,-0.00000126,0.00004216,-0.0000208
 2,-0.00000309,-0.00008953,0.00001417,0.00010193,-0.00037263,-0.0004113
 5,-0.00010662,0.00085996,-0.00082406,-0.00053349,-0.00506041,-0.001670
 95,0.00031769,0.00114484,-0.02570761,-0.01446529,-0.05947771,-0.017578
 65,-0.00696461,0.00601437,0.02426568,0.01333508,-0.00431177,0.00095149
 ,0.00224066,0.00050657,0.00093723,0.00059073,-0.00018419,0.00059921,0.
 00023288,0.00035561,-0.00021672,-0.00016445,-0.00111057,0.00053298,0.0
 0038825,-0.00003615,-0.00004676,0.00007779,0.00005879,0.00002443,0.000
 03641,-0.00009437,0.00003558,-0.00003425,-0.00002986,0.00000965,0.0000
 0356,-0.00001386,-0.00000142,0.00000036,-0.00000055,-0.00000201,0.0000
 0045,0.00000131,-0.00000230,-0.00000086,-0.00000138,0.00000089,-0.0000
 0021,-0.00000151,-0.00000105,-0.00000004,-0.00000125,-0.00000017,-0.00
 000013,-0.00002878,-0.00001755,0.00000740,0.00092169,0.00045166,-0.000
 22427,0.06008105,0.00001256,-0.00005043,0.00000797,0.00002653,0.000023
 47,0.00000198,-0.00005283,-0.00001871,-0.00000147,0.00001286,0.0000334
 8,-0.00000218,-0.00005999,-0.00000757,-0.00000712,0.00000398,0.0000265
 3,-0.00000346,0.00000303,0.00002576,-0.00000524,-0.00002677,-0.0000351
 3,0.00000420,0.00003945,-0.00001842,0.00000597,-0.00001161,-0.00000918
 ,0.00000060,0.00000257,0.00001367,-0.00000191,-0.00001099,-0.00000907,
 -0.00000023,0.00001235,-0.00000633,0.00000343,-0.00000954,0.00000893,-
 0.00000173,0.00006289,0.00000353,-0.00000543,-0.00001755,0.00006041,0.
 00002608,-0.00017951,-0.00022002,0.00001901,0.00068787,-0.00014782,-0.
 00024911,-0.00257600,0.00155286,-0.00121392,0.00111601,-0.00730323,-0.
 00578237,-0.01728213,-0.26973531,-0.12749296,-0.00266175,-0.00805155,-
 0.00670723,0.00178896,0.00300726,-0.00357412,-0.00017624,-0.00040582,-
 0.00073683,0.00032670,-0.00043322,0.00044671,-0.00013535,0.00002485,0.
 00001137,0.00005913,0.00032606,0.00033575,-0.00008218,0.00001459,0.000
 03349,0.00005138,-0.00002484,0.00003037,-0.00003457,0.00004943,-0.0000
 2018,-0.00004478,-0.00001969,0.00000706,-0.00001762,-0.00001770,-0.000
 00531,-0.00000094,-0.00000202,-0.00000072,0.00000601,-0.00000121,-0.00
 000094,-0.00000226,0.00000191,-0.00000148,-0.00000344,-0.00000211,-0.0
 0000026,-0.00000220,-0.00000010,-0.00000040,-0.00001430,-0.00001299,-0
 .00000109,0.00002526,0.00007790,0.00137545,0.01871874,0.28184661,0.000
 00213,-0.00003288,0.00000577,0.00003663,0.00000895,0.00000080,-0.00007
 015,-0.00002284,-0.00001318,0.00000123,0.00002222,-0.00000231,-0.00002
 452,0.00001630,-0.00000394,0.00000070,-0.00000547,0.00000162,-0.000003
 61,0.00000928,-0.00000145,-0.00000839,-0.00001048,-0.00000044,0.000014
 84,-0.00000816,0.00000334,-0.00000406,-0.00000266,-0.00000061,0.000000
 92,0.00000517,-0.00000051,-0.00000220,-0.00000306,0.00000032,0.0000009
 0,-0.00000225,-0.00000032,0.00000248,0.00000704,-0.00000091,0.00009293
 ,-0.00001962,0.00002949,-0.00018781,0.00000974,-0.00002553,0.00000501,
 0.00006259,-0.00014129,-0.00004730,-0.00025751,0.00016948,0.00026972,-
 0.00112773,0.00359747,0.00089833,-0.00231615,0.00128084,-0.00670425,-0
 .12751585,-0.10815669,-0.00175911,-0.00998440,-0.00084519,0.00267156,-
 0.00361481,0.00652796,-0.00005203,-0.00077028,0.00053518,-0.00007251,0
 .00048487,-0.00107039,-0.00006535,-0.00005625,0.00001003,-0.00000627,0
 .00032724,-0.00002076,0.00002201,-0.00008581,-0.00003593,-0.00002738,0
 .00004684,-0.00005541,-0.00004648,-0.00002280,-0.00000461,-0.00003208,
 0.00001094,-0.00000066,0.00000262,0.00000577,0.00000814,-0.00000003,-0
 .00000114,0.00000115,0.00000045,-0.00000119,0.00000049,-0.00000060,0.0
 0000117,0.00000020,-0.00000165,-0.00000097,0.00000008,-0.00000109,-0.0
 0000009,0.00000008,-0.00000547,-0.00000330,0.00000878,-0.00034200,0.00
 131379,-0.00165192,0.00601505,0.14087965,0.10360864,0.00000290,-0.0000
 0901,0.00000109,0.00000266,0.00000316,-0.00000073,-0.00000676,-0.00000
 593,-0.00000315,-0.00000374,0.00000378,-0.00000012,-0.00000733,-0.0000
 0100,-0.00000196,0.00000234,0.00000669,-0.00000065,0.00000035,0.000007
 00,-0.00000173,-0.00000597,-0.00000800,0.00000101,0.00000983,-0.000006
 00,0.00000152,-0.00000253,-0.00000237,0.00000011,0.00000042,0.00000513
 ,-0.00000068,-0.00000307,-0.00000386,0.,0.00000385,-0.00000218,0.00000
 099,-0.00000401,0.00000281,-0.00000002,0.00002279,0.00000349,-0.000000
 50,-0.00001953,0.00001111,0.00003437,0.00001243,0.00001060,-0.00002465
 ,-0.00001571,0.00000813,-0.00014850,0.00025822,0.00028653,0.00002851,-
 0.00152700,0.00293771,0.00297055,-0.01655171,-0.01220458,-0.00401402,-
 0.29419883,-0.10838574,-0.02653234,0.00104520,0.00050914,0.00063299,0.
 00061992,0.00020898,-0.00029138,0.00010002,-0.00039166,-0.00032360,0.0
 0015988,0.00030080,0.00023573,0.00097528,0.00028493,0.00058759,-0.0000
 1430,0.00004658,0.00001295,-0.00004441,-0.00000190,-0.00006359,0.00003
 072,-0.00002544,0.00000070,-0.00004920,-0.00003204,0.00000164,-0.00000
 428,0.00003066,0.00000944,-0.00000025,-0.00000042,0.00000027,0.0000041
 3,0.00000093,0.00000050,-0.00000065,0.00000077,-0.00000045,-0.00000139
 ,-0.00000076,-0.00000007,-0.00000079,-0.00000001,-0.00000007,-0.000001
 08,-0.00000338,0.00000271,-0.00081414,-0.00062040,-0.00018253,0.000879
 37,0.00044627,-0.00057318,0.30914633,-0.00000407,0.00001744,-0.0000007
 4,-0.00001576,-0.00000665,0.00000025,0.00002308,0.00001166,0.00001684,
 -0.00000631,-0.00001054,0.00000282,0.00001920,-0.00000047,-0.00000009,
 0.00000005,-0.00000272,0.00000207,0.00000054,-0.00000510,0.00000041,0.
 00000588,0.00000818,0.00000015,-0.00000911,0.00000361,-0.00000210,0.00
 000279,0.00000164,0.00000046,-0.00000087,-0.00000211,0.00000012,0.0000
 0167,0.00000122,-0.00000007,-0.00000143,0.00000099,0.00000014,-0.00000
 007,-0.00000271,-0.00000016,-0.00004360,0.00002603,-0.00000447,0.00008
 202,-0.00001112,-0.00007801,-0.00008559,-0.00013003,0.00004686,0.00009
 124,-0.00009359,0.00058762,0.00028243,-0.00073453,0.00005009,0.0020056
 3,0.00091670,-0.00461014,0.01409140,0.01057280,0.00153862,-0.10843406,
 -0.10134211,-0.02259177,-0.02610924,-0.00677562,-0.00237045,0.00031180
 ,0.00183633,0.00240896,-0.00045282,-0.00043879,0.00009020,-0.00102155,
 -0.00122596,-0.00083252,0.00195659,-0.00163372,-0.00374505,0.00006138,
 -0.00001375,-0.00001559,-0.00000557,0.00003050,0.00002392,-0.00000260,
 0.00000707,0.00000187,0.00000579,0.00000881,0.00000852,-0.00001067,-0.
 00002443,-0.00004476,0.00000034,0.00000041,-0.00000134,-0.00000066,0.0
 0000060,-0.00000120,0.00000031,-0.00000050,-0.00000035,0.00000059,0.00
 000044,-0.00000008,0.00000051,0.00000002,-0.00000008,0.00000082,-0.000
 00094,-0.00000539,0.00069682,0.00034130,0.00008049,-0.00002636,-0.0005
 6479,0.00265412,0.11658946,0.09923441,-0.00000130,0.00001180,-0.000007
 11,-0.00001080,-0.00000678,0.00000332,0.00002270,-0.00000272,-0.000026
 23,-0.00000312,0.00000101,-0.00000194,0.00000946,-0.00000505,0.0000050
 5,0.00000206,-0.00000206,-0.00000027,0.00000072,-0.00000457,0.00000094
 ,0.00000603,0.00000779,-0.00000105,-0.00000842,0.00000313,-0.00000075,
 0.00000325,0.00000225,-0.00000074,-0.00000134,-0.00000053,0.00000010,0
 .00000096,-0.00000100,0.00000025,-0.00000028,0.00000154,-0.00000090,-0
 .00000217,-0.00000195,0.00000063,-0.00002037,-0.00003722,-0.00000516,-
 0.00000773,0.00004002,0.00012287,0.00013207,0.00021363,-0.00000678,-0.
 00039619,0.00046555,-0.00091837,0.00026444,-0.00015720,-0.00099981,0.0
 0246867,-0.00452140,0.00592926,0.01042650,0.00495683,0.00593524,-0.026
 40587,-0.02272479,-0.04485477,-0.01455617,-0.00597840,0.00246025,-0.00
 016516,0.00230502,-0.00097984,-0.00038474,0.00021149,-0.00030635,-0.00
 051920,-0.00113407,-0.00018039,0.00194393,-0.00330952,0.00221314,-0.00
 013589,-0.00008032,0.00001593,0.00006958,-0.00005093,0.00004523,-0.000
 05394,0.00002017,-0.00000007,0.00004395,0.00002107,-0.00003131,0.00000
 392,0.00004246,0.00006044,-0.00000056,0.00000014,0.00000180,-0.0000030
 6,-0.00000091,0.00000176,0.00000063,0.00000011,0.00000053,0.00000017,0
 .00000022,0.00000015,0.00000028,-0.00000014,0.00000031,0.00000933,0.00
 000519,0.00000546,0.00045976,0.00029373,0.00001996,-0.00083334,0.00262
 655,-0.00375780,0.02764124,0.02678986,0.03525701\\-0.00000082,0.000002
 73,-0.00002243,0.00000147,-0.00000465,0.00000919,-0.00001114,0.0000070
 8,0.00000635,0.00000306,-0.00001023,-0.00001943,0.00001216,0.00000322,
 0.00002836,-0.00000642,0.00000032,0.00000367,-0.00000730,-0.00000306,-
 0.00000587,-0.00000535,0.00000597,0.00000523,0.00001251,-0.00000825,0.
 00000288,-0.00000304,0.00000353,-0.00000106,-0.00000415,-0.00000488,-0
 .00000030,-0.00000613,0.00000143,-0.00000027,-0.00000949,0.00000330,-0
 .00000198,0.00001236,0.00000624,0.00000297,-0.00000076,0.00000030,0.00
 000241,0.00000267,-0.00000227,0.00000169,-0.00000540,0.00000166,0.0000
 0497,-0.00000146,-0.00000443,-0.00001278,0.00000664,-0.00000634,0.0000
 0577,0.00000042,0.00000305,-0.00000120,0.00000486,0.00000607,0.0000010
 7,0.00000542,0.00000192,-0.00000293,0.00000115,-0.00000507,-0.00002791
 ,0.00000149,-0.00000051,0.00001906,0.00000169,-0.00000183,-0.00000755,
 0.00000478,0.00000626,-0.00000520,-0.00000853,-0.00001132,0.00000902,0
 .00000340,-0.00000842,-0.00001933,-0.00001238,0.00000133,0.00001118,0.
 00000165,-0.00000522,-0.00000046,0.00000126,0.00000640,-0.00001286,0.0
 0000340,0.00000762,0.00001870,0.00000067,0.00000247,0.00000421,-0.0000
 0109,0.00000124,-0.00000335,0.00000072,0.00000053,0.00000345,0.0000004
 3,0.00000024,0.00000528,-0.00000005,0.00000478,0.00000354,-0.00000035,
 0.00000071,-0.00000015,0.00000164,-0.00000133,-0.00000069,0.00000111,0
 .00000005,-0.00000181,-0.00000110,-0.00000067,-0.00000145\\\@


 IN THE LONG RUN, DIGGING FOR TRUTH HAS ALWAYS PROVED NOT ONLY 
 MORE INTERESTING BUT MORE PROFITABLE THAN DIGGING FOR GOLD.

                             -- GEORGE R. HARRISON
 Job cpu time:  0 days 23 hours 50 minutes 13.8 seconds.
 File lengths (MBytes):  RWF=   1997 Int=      0 D2E=      0 Chk=     33 Scr=      1
 Normal termination of Gaussian 09 at Sun Dec 29 22:45:27 2013.
