 Entering Gaussian System, Link 0=g09
 Initial command:
 /opt/gaussian/g09/l1.exe /panfs/panfs.cluster/home/shuo/Gau-12071.inp -scrdir=/panfs/panfs.cluster/home/shuo/
 Default is to use a total of  12 processors:
                               12 via shared-memory
                                1 via Linda
 Entering Link 1 = /opt/gaussian/g09/l1.exe PID=     12072.
  
 Copyright (c) 1988,1990,1992,1993,1995,1998,2003,2009,2011,
            Gaussian, Inc.  All Rights Reserved.
  
 This is part of the Gaussian(R) 09 program.  It is based on
 the Gaussian(R) 03 system (copyright 2003, Gaussian, Inc.),
 the Gaussian(R) 98 system (copyright 1998, Gaussian, Inc.),
 the Gaussian(R) 94 system (copyright 1995, Gaussian, Inc.),
 the Gaussian 92(TM) system (copyright 1992, Gaussian, Inc.),
 the Gaussian 90(TM) system (copyright 1990, Gaussian, Inc.),
 the Gaussian 88(TM) system (copyright 1988, Gaussian, Inc.),
 the Gaussian 86(TM) system (copyright 1986, Carnegie Mellon
 University), and the Gaussian 82(TM) system (copyright 1983,
 Carnegie Mellon University). Gaussian is a federally registered
 trademark of Gaussian, Inc.
  
 This software contains proprietary and confidential information,
 including trade secrets, belonging to Gaussian, Inc.
  
 This software is provided under written license and may be
 used, copied, transmitted, or stored only in accord with that
 written license.
  
 The following legend is applicable only to US Government
 contracts under FAR:
  
                    RESTRICTED RIGHTS LEGEND
  
 Use, reproduction and disclosure by the US Government is
 subject to restrictions as set forth in subparagraphs (a)
 and (c) of the Commercial Computer Software - Restricted
 Rights clause in FAR 52.227-19.
  
 Gaussian, Inc.
 340 Quinnipiac St., Bldg. 40, Wallingford CT 06492
  
  
 ---------------------------------------------------------------
 Warning -- This program may not be used in any manner that
 competes with the business of Gaussian, Inc. or will provide
 assistance to any competitor of Gaussian, Inc.  The licensee
 of this program is prohibited from giving any competitor of
 Gaussian, Inc. access to this program.  By using this program,
 the user acknowledges that Gaussian, Inc. is engaged in the
 business of creating and licensing software in the field of
 computational chemistry and represents and warrants to the
 licensee that it is not a competitor of Gaussian, Inc. and that
 it will not use this program in any manner prohibited above.
 ---------------------------------------------------------------
  

 Cite this work as:
 Gaussian 09, Revision C.01,
 M. J. Frisch, G. W. Trucks, H. B. Schlegel, G. E. Scuseria, 
 M. A. Robb, J. R. Cheeseman, G. Scalmani, V. Barone, B. Mennucci, 
 G. A. Petersson, H. Nakatsuji, M. Caricato, X. Li, H. P. Hratchian, 
 A. F. Izmaylov, J. Bloino, G. Zheng, J. L. Sonnenberg, M. Hada, 
 M. Ehara, K. Toyota, R. Fukuda, J. Hasegawa, M. Ishida, T. Nakajima, 
 Y. Honda, O. Kitao, H. Nakai, T. Vreven, J. A. Montgomery, Jr., 
 J. E. Peralta, F. Ogliaro, M. Bearpark, J. J. Heyd, E. Brothers, 
 K. N. Kudin, V. N. Staroverov, T. Keith, R. Kobayashi, J. Normand, 
 K. Raghavachari, A. Rendell, J. C. Burant, S. S. Iyengar, J. Tomasi, 
 M. Cossi, N. Rega, J. M. Millam, M. Klene, J. E. Knox, J. B. Cross, 
 V. Bakken, C. Adamo, J. Jaramillo, R. Gomperts, R. E. Stratmann, 
 O. Yazyev, A. J. Austin, R. Cammi, C. Pomelli, J. W. Ochterski, 
 R. L. Martin, K. Morokuma, V. G. Zakrzewski, G. A. Voth, 
 P. Salvador, J. J. Dannenberg, S. Dapprich, A. D. Daniels, 
 O. Farkas, J. B. Foresman, J. V. Ortiz, J. Cioslowski, 
 and D. J. Fox, Gaussian, Inc., Wallingford CT, 2010.
 
 ******************************************
 Gaussian 09:  EM64L-G09RevC.01 23-Sep-2011
                28-Dec-2013 
 ******************************************
 %chk=24_C22H10N4S3SeSi.chk
 %NProcShared=12
 Will use up to   12 processors via shared memory.
 %Mem=8000MB
 Default route:  MaxDisk=100GB
 --------------------------------------------
 #B3LYP/6-31++G(d,p) opt scf=direct freq test
 --------------------------------------------
 1/14=-1,18=20,19=15,26=3,38=1/1,3;
 2/9=110,12=2,17=6,18=5,40=1/2;
 3/5=1,6=6,7=1111,11=2,16=1,25=1,30=1,71=1,74=-5/1,2,3;
 4//1;
 5/5=2,38=5/2;
 6/7=2,8=2,9=2,10=2,28=1/1;
 7//1,2,3,16;
 1/14=-1,18=20,19=15/3(2);
 2/9=110/2;
 99//99;
 2/9=110/2;
 3/5=1,6=6,7=1111,11=2,16=1,25=1,30=1,71=1,74=-5/1,2,3;
 4/5=5,16=3/1;
 5/5=2,38=5/2;
 7//1,2,3,16;
 1/14=-1,18=20,19=15/3(-5);
 2/9=110/2;
 6/7=2,8=2,9=2,10=2,19=2,28=1/1;
 99/9=1/99;
 ----------------------------------------------------------------------
 Geom opt of No.24 candidate from the CEPDB database with SMILE code of
  [SiH2]1C=c2c3c4ncc(cc4sc3c3c4ccccc4ccc3c2=C1)-c1nccc2nsnc12, HPC, 201
 31227, Shuo Dai, Gaussian09
 ----------------------------------------------------------------------
 Charge =  0 Multiplicity = 1
 Symbolic Z-Matrix:
 Si                    1.48287  -0.21668   1.7156 
 H                     0.76244   1.09972   1.59484 
 H                     0.76614  -1.46614   1.26745 
 C                     2.58664  -0.01194   0.05269 
 C                     1.69295   0.06916  -0.9404 
 C                     0.42954   0.16991  -1.29861 
 C                    -0.587     0.04319  -0.4182 
 N                    -0.66973  -0.11244   0.86665 
 C                    -1.67359  -0.22647   1.62005 
 C                    -2.8249   -0.17248   0.98452 
 C                    -2.88001   0.00377  -0.36404 
 C                    -1.73739   0.09817  -1.01993 
 S                    -1.56228   0.2855   -2.55383 
 C                     0.07972   0.30828  -2.56276 
 C                     1.0637    0.43064  -3.56328 
 C                     0.38577   0.59516  -4.95076 
 C                    -0.96722   0.59486  -5.04064 
 C                    -1.50663   0.73544  -6.22011 
 C                    -2.05766   0.85501  -7.33187 
 C                    -0.13988   0.87272  -7.33272 
 C                     0.99042   0.74693  -6.17051 
 C                     2.4282    0.7341   -5.94067 
 C                     3.10291   0.55352  -4.41303 
 C                     2.52727   0.37096  -2.94193 
 C                     2.97123   0.13957  -1.06129 
 C                     3.0061   -0.07937   0.7973 
 C                    -3.9956   -0.26008   1.70831 
 N                    -4.47389  -1.48445   2.02175 
 C                    -5.63122  -1.57188   2.70634 
 C                    -6.39037  -0.50517   3.1421 
 C                    -5.89769   0.75889   2.82228 
 N                    -6.46661   1.92504   3.13815 
 S                    -5.49016   3.11114   2.53163 
 N                    -4.31588   2.17733   1.85135 
 C                    -4.66066   0.90193   2.08127 
 H                     4.21929   0.00683  -0.03977 
 H                    -1.5055   -0.34925   2.67496 
 H                    -3.76486   0.06763  -0.92918 
 H                    -1.82388   0.51634  -4.46101 
 H                    -1.61968   0.88836  -7.43563 
 H                    -3.26693   0.7715   -6.67725 
 H                     0.62012   0.98778  -8.22895 
 H                     3.07722   0.85382  -6.85845 
 H                     4.15958   0.59161  -4.64763 
 H                     2.88344  -0.29629   2.22615 
 H                    -5.98673  -2.57231   2.92849 
 H                    -7.29479  -0.63708   3.68736 
 

 GradGradGradGradGradGradGradGradGradGradGradGradGradGradGradGradGradGrad
 Berny optimization.
 Initialization pass.
                           ----------------------------
                           !    Initial Parameters    !
                           ! (Angstroms and Degrees)  !
 --------------------------                            --------------------------
 ! Name  Definition              Value          Derivative Info.                !
 --------------------------------------------------------------------------------
 ! R1    R(1,2)                  1.5055         estimate D2E/DX2                !
 ! R2    R(1,3)                  1.5085         estimate D2E/DX2                !
 ! R3    R(1,4)                  2.0064         estimate D2E/DX2                !
 ! R4    R(1,26)                 1.7839         estimate D2E/DX2                !
 ! R5    R(1,45)                 1.4928         estimate D2E/DX2                !
 ! R6    R(4,5)                  1.3385         estimate D2E/DX2                !
 ! R7    R(4,25)                 1.1882         estimate D2E/DX2                !
 ! R8    R(4,26)                 0.8573         estimate D2E/DX2                !
 ! R9    R(4,36)                 1.6354         estimate D2E/DX2                !
 ! R10   R(5,6)                  1.3171         estimate D2E/DX2                !
 ! R11   R(5,25)                 1.2859         estimate D2E/DX2                !
 ! R12   R(6,7)                  1.3508         estimate D2E/DX2                !
 ! R13   R(6,14)                 1.3189         estimate D2E/DX2                !
 ! R14   R(7,8)                  1.2969         estimate D2E/DX2                !
 ! R15   R(7,12)                 1.2994         estimate D2E/DX2                !
 ! R16   R(8,9)                  1.2603         estimate D2E/DX2                !
 ! R17   R(9,10)                 1.3162         estimate D2E/DX2                !
 ! R18   R(9,37)                 1.0753         estimate D2E/DX2                !
 ! R19   R(10,11)                1.3611         estimate D2E/DX2                !
 ! R20   R(10,27)                1.3792         estimate D2E/DX2                !
 ! R21   R(11,12)                1.3209         estimate D2E/DX2                !
 ! R22   R(11,38)                1.0519         estimate D2E/DX2                !
 ! R23   R(12,13)                1.5552         estimate D2E/DX2                !
 ! R24   R(13,14)                1.6422         estimate D2E/DX2                !
 ! R25   R(14,15)                1.4086         estimate D2E/DX2                !
 ! R26   R(15,16)                1.553          estimate D2E/DX2                !
 ! R27   R(15,24)                1.5911         estimate D2E/DX2                !
 ! R28   R(16,17)                1.356          estimate D2E/DX2                !
 ! R29   R(16,21)                1.3698         estimate D2E/DX2                !
 ! R30   R(17,18)                1.3046         estimate D2E/DX2                !
 ! R31   R(17,39)                1.0373         estimate D2E/DX2                !
 ! R32   R(18,19)                1.2466         estimate D2E/DX2                !
 ! R33   R(18,20)                1.7677         estimate D2E/DX2                !
 ! R34   R(18,40)                1.2303         estimate D2E/DX2                !
 ! R35   R(19,40)                0.4513         estimate D2E/DX2                !
 ! R36   R(19,41)                1.3776         estimate D2E/DX2                !
 ! R37   R(20,21)                1.6261         estimate D2E/DX2                !
 ! R38   R(20,42)                1.1807         estimate D2E/DX2                !
 ! R39   R(21,22)                1.4561         estimate D2E/DX2                !
 ! R40   R(22,23)                1.6797         estimate D2E/DX2                !
 ! R41   R(22,43)                1.1304         estimate D2E/DX2                !
 ! R42   R(23,24)                1.5902         estimate D2E/DX2                !
 ! R43   R(23,44)                1.0831         estimate D2E/DX2                !
 ! R44   R(24,25)                1.9461         estimate D2E/DX2                !
 ! R45   R(25,36)                1.6183         estimate D2E/DX2                !
 ! R46   R(26,36)                1.4765         estimate D2E/DX2                !
 ! R47   R(27,28)                1.3513         estimate D2E/DX2                !
 ! R48   R(27,35)                1.3898         estimate D2E/DX2                !
 ! R49   R(28,29)                1.3475         estimate D2E/DX2                !
 ! R50   R(29,30)                1.3799         estimate D2E/DX2                !
 ! R51   R(29,46)                1.0847         estimate D2E/DX2                !
 ! R52   R(30,31)                1.3939         estimate D2E/DX2                !
 ! R53   R(30,47)                1.0643         estimate D2E/DX2                !
 ! R54   R(31,32)                1.3354         estimate D2E/DX2                !
 ! R55   R(31,35)                1.4491         estimate D2E/DX2                !
 ! R56   R(32,33)                1.6517         estimate D2E/DX2                !
 ! R57   R(33,34)                1.6473         estimate D2E/DX2                !
 ! R58   R(34,35)                1.341          estimate D2E/DX2                !
 ! A1    A(2,1,3)              118.2317         estimate D2E/DX2                !
 ! A2    A(2,1,4)               96.174          estimate D2E/DX2                !
 ! A3    A(2,1,26)             107.4583         estimate D2E/DX2                !
 ! A4    A(2,1,45)             121.5348         estimate D2E/DX2                !
 ! A5    A(3,1,4)               95.7205         estimate D2E/DX2                !
 ! A6    A(3,1,26)             108.4522         estimate D2E/DX2                !
 ! A7    A(3,1,45)             120.2104         estimate D2E/DX2                !
 ! A8    A(4,1,45)              76.8657         estimate D2E/DX2                !
 ! A9    A(26,1,45)             51.6156         estimate D2E/DX2                !
 ! A10   A(1,4,5)              104.7031         estimate D2E/DX2                !
 ! A11   A(1,4,36)             126.6731         estimate D2E/DX2                !
 ! A12   A(5,4,36)             128.6046         estimate D2E/DX2                !
 ! A13   A(25,4,26)            131.757          estimate D2E/DX2                !
 ! A14   A(4,5,6)              147.8789         estimate D2E/DX2                !
 ! A15   A(6,5,25)             157.4893         estimate D2E/DX2                !
 ! A16   A(5,6,7)              122.5112         estimate D2E/DX2                !
 ! A17   A(5,6,14)             121.5422         estimate D2E/DX2                !
 ! A18   A(7,6,14)             115.7825         estimate D2E/DX2                !
 ! A19   A(6,7,8)              134.8304         estimate D2E/DX2                !
 ! A20   A(6,7,12)             111.1285         estimate D2E/DX2                !
 ! A21   A(8,7,12)             114.0404         estimate D2E/DX2                !
 ! A22   A(7,8,9)              130.8377         estimate D2E/DX2                !
 ! A23   A(8,9,10)             113.8528         estimate D2E/DX2                !
 ! A24   A(8,9,37)             118.1837         estimate D2E/DX2                !
 ! A25   A(10,9,37)            127.9631         estimate D2E/DX2                !
 ! A26   A(9,10,11)            121.2735         estimate D2E/DX2                !
 ! A27   A(9,10,27)            119.1113         estimate D2E/DX2                !
 ! A28   A(11,10,27)           119.5912         estimate D2E/DX2                !
 ! A29   A(10,11,12)           117.7879         estimate D2E/DX2                !
 ! A30   A(10,11,38)           125.0455         estimate D2E/DX2                !
 ! A31   A(12,11,38)           117.1662         estimate D2E/DX2                !
 ! A32   A(7,12,11)            122.1997         estimate D2E/DX2                !
 ! A33   A(7,12,13)            111.2323         estimate D2E/DX2                !
 ! A34   A(11,12,13)           126.568          estimate D2E/DX2                !
 ! A35   A(12,13,14)            96.8701         estimate D2E/DX2                !
 ! A36   A(6,14,13)            104.983          estimate D2E/DX2                !
 ! A37   A(6,14,15)            120.3059         estimate D2E/DX2                !
 ! A38   A(13,14,15)           134.7108         estimate D2E/DX2                !
 ! A39   A(14,15,16)           109.8069         estimate D2E/DX2                !
 ! A40   A(14,15,24)           111.2175         estimate D2E/DX2                !
 ! A41   A(16,15,24)           138.9735         estimate D2E/DX2                !
 ! A42   A(15,16,17)           119.6547         estimate D2E/DX2                !
 ! A43   A(15,16,21)           127.9224         estimate D2E/DX2                !
 ! A44   A(17,16,21)           112.4227         estimate D2E/DX2                !
 ! A45   A(16,17,18)           118.1951         estimate D2E/DX2                !
 ! A46   A(16,17,39)           141.9072         estimate D2E/DX2                !
 ! A47   A(18,17,39)            99.8976         estimate D2E/DX2                !
 ! A48   A(17,18,20)           104.9356         estimate D2E/DX2                !
 ! A49   A(17,18,40)           160.8452         estimate D2E/DX2                !
 ! A50   A(19,18,20)            76.8784         estimate D2E/DX2                !
 ! A51   A(20,18,40)            55.9128         estimate D2E/DX2                !
 ! A52   A(18,19,41)            87.6164         estimate D2E/DX2                !
 ! A53   A(40,19,41)           164.915          estimate D2E/DX2                !
 ! A54   A(18,20,21)            94.6791         estimate D2E/DX2                !
 ! A55   A(21,20,42)            95.891          estimate D2E/DX2                !
 ! A56   A(16,21,20)           109.7656         estimate D2E/DX2                !
 ! A57   A(16,21,22)           107.1171         estimate D2E/DX2                !
 ! A58   A(20,21,22)           143.1173         estimate D2E/DX2                !
 ! A59   A(21,22,23)           122.7603         estimate D2E/DX2                !
 ! A60   A(21,22,43)           115.9653         estimate D2E/DX2                !
 ! A61   A(23,22,43)           121.2744         estimate D2E/DX2                !
 ! A62   A(22,23,24)           135.0937         estimate D2E/DX2                !
 ! A63   A(22,23,44)           101.0176         estimate D2E/DX2                !
 ! A64   A(24,23,44)           123.8886         estimate D2E/DX2                !
 ! A65   A(15,24,23)            88.1321         estimate D2E/DX2                !
 ! A66   A(15,24,25)           126.2751         estimate D2E/DX2                !
 ! A67   A(23,24,25)           145.5911         estimate D2E/DX2                !
 ! A68   A(4,25,24)            147.92           estimate D2E/DX2                !
 ! A69   A(5,25,24)             82.5644         estimate D2E/DX2                !
 ! A70   A(5,25,36)            134.6538         estimate D2E/DX2                !
 ! A71   A(24,25,36)           142.7204         estimate D2E/DX2                !
 ! A72   A(10,27,28)           118.6671         estimate D2E/DX2                !
 ! A73   A(10,27,35)           119.598          estimate D2E/DX2                !
 ! A74   A(28,27,35)           121.7298         estimate D2E/DX2                !
 ! A75   A(27,28,29)           118.7261         estimate D2E/DX2                !
 ! A76   A(28,29,30)           125.6478         estimate D2E/DX2                !
 ! A77   A(28,29,46)           116.4481         estimate D2E/DX2                !
 ! A78   A(30,29,46)           117.9042         estimate D2E/DX2                !
 ! A79   A(29,30,31)           115.7303         estimate D2E/DX2                !
 ! A80   A(29,30,47)           122.2422         estimate D2E/DX2                !
 ! A81   A(31,30,47)           122.0275         estimate D2E/DX2                !
 ! A82   A(30,31,32)           125.9492         estimate D2E/DX2                !
 ! A83   A(30,31,35)           120.5702         estimate D2E/DX2                !
 ! A84   A(32,31,35)           113.4807         estimate D2E/DX2                !
 ! A85   A(31,32,33)           106.7604         estimate D2E/DX2                !
 ! A86   A(32,33,34)            99.5546         estimate D2E/DX2                !
 ! A87   A(33,34,35)           106.5615         estimate D2E/DX2                !
 ! A88   A(27,35,31)           117.593          estimate D2E/DX2                !
 ! A89   A(27,35,34)           128.7642         estimate D2E/DX2                !
 ! A90   A(31,35,34)           113.6428         estimate D2E/DX2                !
 ! A91   A(25,36,26)            74.2736         estimate D2E/DX2                !
 ! A92   L(1,4,25,6,-1)        165.5075         estimate D2E/DX2                !
 ! A93   L(5,4,26,2,-1)        169.0874         estimate D2E/DX2                !
 ! A94   L(17,18,19,20,-1)     181.814          estimate D2E/DX2                !
 ! A95   L(18,20,42,21,-1)     190.5701         estimate D2E/DX2                !
 ! A96   L(1,26,36,4,-1)       176.5772         estimate D2E/DX2                !
 ! A97   L(1,4,25,6,-2)        179.3824         estimate D2E/DX2                !
 ! A98   L(5,4,26,2,-2)        173.6812         estimate D2E/DX2                !
 ! A99   L(17,18,19,20,-2)     179.3986         estimate D2E/DX2                !
 ! A100  L(18,20,42,21,-2)     180.3308         estimate D2E/DX2                !
 ! A101  L(1,26,36,4,-2)       181.3298         estimate D2E/DX2                !
 ! D1    D(2,1,4,5)            -61.4693         estimate D2E/DX2                !
 ! D2    D(2,1,4,36)           120.0192         estimate D2E/DX2                !
 ! D3    D(3,1,4,5)             57.8066         estimate D2E/DX2                !
 ! D4    D(3,1,4,36)          -120.7049         estimate D2E/DX2                !
 ! D5    D(45,1,4,5)           177.5361         estimate D2E/DX2                !
 ! D6    D(45,1,4,36)           -0.9754         estimate D2E/DX2                !
 ! D7    D(2,1,25,24)          -59.5796         estimate D2E/DX2                !
 ! D8    D(3,1,25,24)           58.9542         estimate D2E/DX2                !
 ! D9    D(45,1,25,24)         179.0197         estimate D2E/DX2                !
 ! D10   D(2,1,36,25)          -63.8316         estimate D2E/DX2                !
 ! D11   D(3,1,36,25)           64.1752         estimate D2E/DX2                !
 ! D12   D(45,1,36,25)         179.4035         estimate D2E/DX2                !
 ! D13   D(1,4,5,6)              7.8693         estimate D2E/DX2                !
 ! D14   D(36,4,5,6)          -173.6584         estimate D2E/DX2                !
 ! D15   D(26,4,25,24)        -178.3341         estimate D2E/DX2                !
 ! D16   D(36,4,26,1)         -178.6702         estimate D2E/DX2                !
 ! D17   D(4,5,6,7)             -9.6876         estimate D2E/DX2                !
 ! D18   D(4,5,6,14)           175.1669         estimate D2E/DX2                !
 ! D19   D(25,5,6,7)          -170.053          estimate D2E/DX2                !
 ! D20   D(25,5,6,14)           14.8016         estimate D2E/DX2                !
 ! D21   D(6,5,25,24)          -12.1055         estimate D2E/DX2                !
 ! D22   D(6,5,25,36)          170.3522         estimate D2E/DX2                !
 ! D23   D(5,6,7,8)              4.3196         estimate D2E/DX2                !
 ! D24   D(5,6,7,12)          -176.0074         estimate D2E/DX2                !
 ! D25   D(14,6,7,8)           179.7255         estimate D2E/DX2                !
 ! D26   D(14,6,7,12)           -0.6016         estimate D2E/DX2                !
 ! D27   D(5,6,14,13)          176.093          estimate D2E/DX2                !
 ! D28   D(5,6,14,15)           -3.7259         estimate D2E/DX2                !
 ! D29   D(7,6,14,13)            0.6387         estimate D2E/DX2                !
 ! D30   D(7,6,14,15)         -179.1801         estimate D2E/DX2                !
 ! D31   D(6,7,8,9)           -179.8337         estimate D2E/DX2                !
 ! D32   D(12,7,8,9)             0.5004         estimate D2E/DX2                !
 ! D33   D(6,7,12,11)         -179.6638         estimate D2E/DX2                !
 ! D34   D(6,7,12,13)            0.2389         estimate D2E/DX2                !
 ! D35   D(8,7,12,11)            0.0822         estimate D2E/DX2                !
 ! D36   D(8,7,12,13)          179.9849         estimate D2E/DX2                !
 ! D37   D(7,8,9,10)            -0.2565         estimate D2E/DX2                !
 ! D38   D(7,8,9,37)           179.9623         estimate D2E/DX2                !
 ! D39   D(8,9,10,11)           -0.55           estimate D2E/DX2                !
 ! D40   D(8,9,10,27)         -178.7587         estimate D2E/DX2                !
 ! D41   D(37,9,10,11)         179.2053         estimate D2E/DX2                !
 ! D42   D(37,9,10,27)           0.9966         estimate D2E/DX2                !
 ! D43   D(9,10,11,12)           1.0464         estimate D2E/DX2                !
 ! D44   D(9,10,11,38)        -179.1915         estimate D2E/DX2                !
 ! D45   D(27,10,11,12)        179.2467         estimate D2E/DX2                !
 ! D46   D(27,10,11,38)         -0.9912         estimate D2E/DX2                !
 ! D47   D(9,10,27,28)         -84.5395         estimate D2E/DX2                !
 ! D48   D(9,10,27,35)          96.2728         estimate D2E/DX2                !
 ! D49   D(11,10,27,28)         97.2211         estimate D2E/DX2                !
 ! D50   D(11,10,27,35)        -81.9665         estimate D2E/DX2                !
 ! D51   D(10,11,12,7)          -0.7909         estimate D2E/DX2                !
 ! D52   D(10,11,12,13)        179.322          estimate D2E/DX2                !
 ! D53   D(38,11,12,7)         179.428          estimate D2E/DX2                !
 ! D54   D(38,11,12,13)         -0.4592         estimate D2E/DX2                !
 ! D55   D(7,12,13,14)           0.1124         estimate D2E/DX2                !
 ! D56   D(11,12,13,14)       -179.99           estimate D2E/DX2                !
 ! D57   D(12,13,14,6)          -0.4234         estimate D2E/DX2                !
 ! D58   D(12,13,14,15)        179.3565         estimate D2E/DX2                !
 ! D59   D(6,14,15,16)        -179.3903         estimate D2E/DX2                !
 ! D60   D(6,14,15,24)           0.1853         estimate D2E/DX2                !
 ! D61   D(13,14,15,16)          0.856          estimate D2E/DX2                !
 ! D62   D(13,14,15,24)       -179.5684         estimate D2E/DX2                !
 ! D63   D(14,15,16,17)         -0.3692         estimate D2E/DX2                !
 ! D64   D(14,15,16,21)        179.784          estimate D2E/DX2                !
 ! D65   D(24,15,16,17)       -179.7666         estimate D2E/DX2                !
 ! D66   D(24,15,16,21)          0.3866         estimate D2E/DX2                !
 ! D67   D(14,15,24,23)       -179.6598         estimate D2E/DX2                !
 ! D68   D(14,15,24,25)          0.7047         estimate D2E/DX2                !
 ! D69   D(16,15,24,23)         -0.2681         estimate D2E/DX2                !
 ! D70   D(16,15,24,25)       -179.9035         estimate D2E/DX2                !
 ! D71   D(15,16,17,18)        179.9794         estimate D2E/DX2                !
 ! D72   D(15,16,17,39)         -0.0222         estimate D2E/DX2                !
 ! D73   D(21,16,17,18)         -0.1513         estimate D2E/DX2                !
 ! D74   D(21,16,17,39)        179.8471         estimate D2E/DX2                !
 ! D75   D(15,16,21,20)        179.6776         estimate D2E/DX2                !
 ! D76   D(15,16,21,22)         -0.2674         estimate D2E/DX2                !
 ! D77   D(17,16,21,20)         -0.1784         estimate D2E/DX2                !
 ! D78   D(17,16,21,22)        179.8766         estimate D2E/DX2                !
 ! D79   D(16,17,18,20)          0.3688         estimate D2E/DX2                !
 ! D80   D(16,17,18,40)         -0.6093         estimate D2E/DX2                !
 ! D81   D(39,17,18,20)       -179.6303         estimate D2E/DX2                !
 ! D82   D(39,17,18,40)        179.3916         estimate D2E/DX2                !
 ! D83   D(16,17,19,41)       -179.8754         estimate D2E/DX2                !
 ! D84   D(39,17,19,41)          0.326          estimate D2E/DX2                !
 ! D85   D(20,18,19,41)       -179.9594         estimate D2E/DX2                !
 ! D86   D(17,18,20,21)         -0.3946         estimate D2E/DX2                !
 ! D87   D(19,18,20,21)       -179.7932         estimate D2E/DX2                !
 ! D88   D(40,18,20,21)        179.2179         estimate D2E/DX2                !
 ! D89   D(18,20,21,16)          0.3278         estimate D2E/DX2                !
 ! D90   D(18,20,21,22)       -179.7599         estimate D2E/DX2                !
 ! D91   D(42,20,21,16)        179.997          estimate D2E/DX2                !
 ! D92   D(42,20,21,22)         -0.0906         estimate D2E/DX2                !
 ! D93   D(16,21,22,23)          0.2035         estimate D2E/DX2                !
 ! D94   D(16,21,22,43)       -179.8012         estimate D2E/DX2                !
 ! D95   D(20,21,22,23)       -179.7103         estimate D2E/DX2                !
 ! D96   D(20,21,22,43)          0.2851         estimate D2E/DX2                !
 ! D97   D(21,22,23,24)         -0.2272         estimate D2E/DX2                !
 ! D98   D(21,22,23,44)        179.8881         estimate D2E/DX2                !
 ! D99   D(43,22,23,24)        179.7777         estimate D2E/DX2                !
 ! D100  D(43,22,23,44)         -0.107          estimate D2E/DX2                !
 ! D101  D(22,23,24,15)          0.1918         estimate D2E/DX2                !
 ! D102  D(22,23,24,25)        179.6717         estimate D2E/DX2                !
 ! D103  D(44,23,24,15)       -179.9446         estimate D2E/DX2                !
 ! D104  D(44,23,24,25)         -0.4647         estimate D2E/DX2                !
 ! D105  D(15,24,25,4)           0.5586         estimate D2E/DX2                !
 ! D106  D(15,24,25,5)           1.7341         estimate D2E/DX2                !
 ! D107  D(15,24,25,36)        178.8473         estimate D2E/DX2                !
 ! D108  D(23,24,25,4)        -178.7966         estimate D2E/DX2                !
 ! D109  D(23,24,25,5)        -177.6211         estimate D2E/DX2                !
 ! D110  D(23,24,25,36)         -0.5079         estimate D2E/DX2                !
 ! D111  D(5,25,36,26)          -4.3021         estimate D2E/DX2                !
 ! D112  D(24,25,36,26)        179.7236         estimate D2E/DX2                !
 ! D113  D(10,27,28,29)       -178.7231         estimate D2E/DX2                !
 ! D114  D(35,27,28,29)          0.4465         estimate D2E/DX2                !
 ! D115  D(10,27,35,31)        179.0362         estimate D2E/DX2                !
 ! D116  D(10,27,35,34)         -1.0565         estimate D2E/DX2                !
 ! D117  D(28,27,35,31)         -0.1258         estimate D2E/DX2                !
 ! D118  D(28,27,35,34)        179.7815         estimate D2E/DX2                !
 ! D119  D(27,28,29,30)         -0.6854         estimate D2E/DX2                !
 ! D120  D(27,28,29,46)        179.3319         estimate D2E/DX2                !
 ! D121  D(28,29,30,31)          0.5451         estimate D2E/DX2                !
 ! D122  D(28,29,30,47)       -179.4782         estimate D2E/DX2                !
 ! D123  D(46,29,30,31)       -179.4724         estimate D2E/DX2                !
 ! D124  D(46,29,30,47)          0.5042         estimate D2E/DX2                !
 ! D125  D(29,30,31,32)        179.8293         estimate D2E/DX2                !
 ! D126  D(29,30,31,35)         -0.1832         estimate D2E/DX2                !
 ! D127  D(47,30,31,32)         -0.1474         estimate D2E/DX2                !
 ! D128  D(47,30,31,35)        179.8401         estimate D2E/DX2                !
 ! D129  D(30,31,32,33)        179.9848         estimate D2E/DX2                !
 ! D130  D(35,31,32,33)         -0.0035         estimate D2E/DX2                !
 ! D131  D(30,31,35,27)         -0.0033         estimate D2E/DX2                !
 ! D132  D(30,31,35,34)       -179.9245         estimate D2E/DX2                !
 ! D133  D(32,31,35,27)        179.9857         estimate D2E/DX2                !
 ! D134  D(32,31,35,34)          0.0645         estimate D2E/DX2                !
 ! D135  D(31,32,33,34)         -0.0439         estimate D2E/DX2                !
 ! D136  D(32,33,34,35)          0.0791         estimate D2E/DX2                !
 ! D137  D(33,34,35,27)        179.9994         estimate D2E/DX2                !
 ! D138  D(33,34,35,31)         -0.0902         estimate D2E/DX2                !
 --------------------------------------------------------------------------------
 Trust Radius=3.00D-01 FncErr=1.00D-07 GrdErr=1.00D-06
 Number of steps in this run=    282 maximum allowed number of steps=    282.
 GradGradGradGradGradGradGradGradGradGradGradGradGradGradGradGradGradGrad

                          Input orientation:                          
 ---------------------------------------------------------------------
 Center     Atomic      Atomic             Coordinates (Angstroms)
 Number     Number       Type             X           Y           Z
 ---------------------------------------------------------------------
      1         14           0        1.482870   -0.216680    1.715600
      2          1           0        0.762440    1.099720    1.594840
      3          1           0        0.766140   -1.466140    1.267450
      4          6           0        2.586640   -0.011940    0.052690
      5          6           0        1.692950    0.069160   -0.940400
      6          6           0        0.429540    0.169910   -1.298610
      7          6           0       -0.587000    0.043190   -0.418200
      8          7           0       -0.669730   -0.112440    0.866650
      9          6           0       -1.673590   -0.226470    1.620050
     10          6           0       -2.824900   -0.172480    0.984520
     11          6           0       -2.880010    0.003770   -0.364040
     12          6           0       -1.737390    0.098170   -1.019930
     13         16           0       -1.562280    0.285500   -2.553830
     14          6           0        0.079720    0.308280   -2.562760
     15          6           0        1.063700    0.430640   -3.563280
     16          6           0        0.385770    0.595160   -4.950760
     17          6           0       -0.967220    0.594860   -5.040640
     18          6           0       -1.506630    0.735440   -6.220110
     19          6           0       -2.057660    0.855010   -7.331870
     20          6           0       -0.139880    0.872720   -7.332720
     21          6           0        0.990420    0.746930   -6.170510
     22          6           0        2.428200    0.734100   -5.940670
     23          6           0        3.102910    0.553520   -4.413030
     24          6           0        2.527270    0.370960   -2.941930
     25          6           0        2.971230    0.139570   -1.061290
     26          6           0        3.006100   -0.079370    0.797300
     27          6           0       -3.995600   -0.260080    1.708310
     28          7           0       -4.473890   -1.484450    2.021750
     29          6           0       -5.631220   -1.571880    2.706340
     30          6           0       -6.390370   -0.505170    3.142100
     31          6           0       -5.897690    0.758890    2.822280
     32          7           0       -6.466610    1.925040    3.138150
     33         16           0       -5.490160    3.111140    2.531630
     34          7           0       -4.315880    2.177330    1.851350
     35          6           0       -4.660660    0.901930    2.081270
     36          1           0        4.219290    0.006830   -0.039770
     37          1           0       -1.505500   -0.349250    2.674960
     38          1           0       -3.764860    0.067630   -0.929180
     39          1           0       -1.823880    0.516340   -4.461010
     40          1           0       -1.619680    0.888360   -7.435630
     41          1           0       -3.266930    0.771500   -6.677250
     42          1           0        0.620120    0.987780   -8.228950
     43          1           0        3.077220    0.853820   -6.858450
     44          1           0        4.159580    0.591610   -4.647630
     45          1           0        2.883440   -0.296290    2.226150
     46          1           0       -5.986730   -2.572310    2.928490
     47          1           0       -7.294790   -0.637080    3.687360
 ---------------------------------------------------------------------
                    Distance matrix (angstroms):
                    1          2          3          4          5
     1  Si   0.000000
     2  H    1.505494   0.000000
     3  H    1.508539   2.586665   0.000000
     4  C    2.006364   2.634714   2.627653   0.000000
     5  C    2.679585   2.890561   2.844420   1.338464   0.000000
     6  C    3.216274   3.057355   3.061801   2.551894   1.317069
     7  C    2.984124   2.643780   2.636376   3.208858   2.339132
     8  N    2.316305   2.012636   2.013670   3.358061   2.980044
     9  C    3.157921   2.773744   2.759237   4.544469   4.239917
    10  C    4.369590   3.854866   3.827424   5.493528   4.916775
    11  C    4.838204   4.278523   4.256384   5.482533   4.609602
    12  C    4.237019   3.753568   3.734546   4.456442   3.431384
    13  S    5.268126   4.824805   4.805410   4.908763   3.639572
    14  C    4.533076   4.286971   4.276710   3.637000   2.300379
    15  C    5.334913   5.210051   5.198295   3.948476   2.721419
    16  C    6.804636   6.575815   6.561995   5.499719   4.250692
    17  C    7.232449   6.875769   6.858882   6.240203   4.915774
    18  C    8.533413   8.145847   8.128714   7.527380   6.209394
    19  C    9.774486   9.364774   9.343976   8.766576   7.452216
    20  C    9.257008   8.975914   8.958463   7.922172   6.698263
    21  C    7.960011   7.776702   7.763455   6.469314   5.320430
    22  C    7.772780   7.726082   7.717545   6.041692   5.097591
    23  C    6.385753   6.470752   6.465862   4.530887   3.779120
    24  C    4.809228   4.922194   4.918882   3.019584   2.189360
    25  C    3.170686   3.585480   3.586608   1.188199   1.285913
    26  C    1.783917   2.657129   2.676115   0.857285   2.183123
    27  C    5.478647   4.949836   4.931846   6.791799   6.283603
    28  N    6.097865   5.854856   5.294074   7.476401   7.015551
    29  C    7.309474   7.017960   6.558033   8.775448   8.344770
    30  C    8.006625   7.492154   7.460121   9.506547   9.073959
    31  C    7.526563   6.780863   7.195477   8.958162   8.500077
    32  N    8.354929   7.437884   8.204407   9.758755   9.308989
    33  S    7.769391   6.634636   7.854358   9.007412   8.538484
    34  N    6.274967   5.197728   6.280346   7.461425   6.953006
    35  C    6.255235   5.448463   5.976639   7.581138   7.084656
    36  H    3.258723   3.976955   3.975262   1.635374   2.682800
    37  H    3.141385   2.899953   2.896356   4.871929   4.845201
    38  H    5.883397   5.285105   5.263800   6.427437   5.457822
    39  H    7.044319   6.610802   6.591941   6.332871   4.996274
    40  H    9.725839   9.341764   9.326275   8.635890   7.337072
    41  H    9.694175   9.207118   9.186454   8.953779   7.616110
    42  H   10.054309   9.825459   9.809417   8.570426   7.424136
    43  H    8.786481   8.767941   8.760911   6.982411   6.128231
    44  H    6.950454   7.125108   7.123057   4.993137   4.483388
    45  H    1.492848   2.616493   2.602040   2.211984   3.402625
    46  H    7.925593   7.798315   7.041585   9.398319   8.995730
    47  H    9.006214   8.503768   8.457062  10.547241  10.133825
                    6          7          8          9         10
     6  C    0.000000
     7  C    1.350753   0.000000
     8  N    2.444681   1.296883   0.000000
     9  C    3.619233   2.325480   1.260297   0.000000
    10  C    3.990150   2.649969   2.159226   1.316179   0.000000
    11  C    3.442985   2.293988   2.532477   2.333468   1.361145
    12  C    2.185954   1.299423   2.177944   2.660631   2.296465
    13  S    2.357177   2.360254   3.557342   4.206635   3.784690
    14  C    1.318937   2.261399   3.535468   4.566832   4.609896
    15  C    2.366193   3.573018   4.787901   5.898429   6.013938
    16  C    3.677085   4.668517   5.954581   6.934810   6.791555
    17  C    4.016754   4.670745   5.956916   6.748210   6.351562
    18  C    5.318810   5.914989   7.186200   7.900712   7.380301
    19  C    6.561688   7.114824   8.371263   9.025186   8.414674
    20  C    6.101530   6.978440   8.275322   9.149458   8.802173
    21  C    4.937909   6.006045   7.281225   8.290795   8.160664
    22  C    5.085437   6.329807   7.526846   8.655164   8.739291
    23  C    4.122339   5.462100   6.523139   7.734429   8.049817
    24  C    2.672338   4.021856   4.995975   6.230233   6.660185
    25  C    2.552926   3.617161   4.127596   5.375679   6.154497
    26  C    3.330712   3.795106   3.676633   4.753741   5.834748
    27  C    5.367339   4.028967   3.433890   2.323930   1.379161
    28  N    6.148603   4.836833   4.205746   3.096055   2.348676
    29  C    7.470359   6.149419   5.489154   4.318911   3.577487
    30  C    8.166199   6.830486   6.169087   4.964103   4.180719
    31  C    7.573802   6.262297   5.649360   4.501035   3.699574
    32  N    8.385834   7.124521   6.550943   5.468699   4.722263
    33  S    7.639661   6.492672   6.033255   5.151391   4.503257
    34  N    6.039122   4.859008   4.416683   3.579588   2.914794
    35  C    6.153826   4.855872   4.293224   3.226236   2.393164
    36  H    3.996683   4.821302   4.973765   6.126619   7.120529
    37  H    4.450075   3.250429   2.006134   1.075251   2.151662
    38  H    4.211880   3.218772   3.582912   3.310359   2.145559
    39  H    3.898550   4.254181   5.487384   6.128103   5.579454
    40  H    6.509876   7.143183   8.416167   9.124204   8.571865
    41  H    6.554050   6.847493   8.027280   8.507636   7.732348
    42  H    6.981035   7.959724   9.252250  10.185201   9.904665
    43  H    6.195947   7.453888   8.640050   9.778660   9.869169
    44  H    5.030603   6.381133   7.363777   8.601101   9.004882
    45  H    4.320058   4.376276   3.808813   4.597690   5.843126
    46  H    8.158227   6.870099   6.210687   5.081157   4.419884
    47  H    9.229106   7.893848   7.219631   6.003354   5.244150
                   11         12         13         14         15
    11  C    0.000000
    12  C    1.320865   0.000000
    13  S    2.571180   1.555187   0.000000
    14  C    3.699608   2.392981   1.642182   0.000000
    15  C    5.096097   3.798061   2.817060   1.408627   0.000000
    16  C    5.661542   4.495134   3.104201   2.424564   1.552983
    17  C    5.087115   4.123830   2.575660   2.705199   2.516783
    18  C    6.059296   5.244162   3.694205   4.009387   3.709211
    19  C    7.067639   6.365215   4.837294   5.254685   4.911746
    20  C    7.538295   6.557689   5.020542   4.808257   3.981547
    21  C    7.017664   5.864325   4.450794   3.746685   2.627367
    22  C    7.733646   6.478443   5.253176   4.136056   2.757885
    23  C    7.245128   5.928657   5.029161   3.552931   2.212589
    24  C    6.001585   4.685704   4.108813   2.477539   1.591124
    25  C    5.894201   4.708984   4.775111   3.262469   3.159643
    26  C    6.000159   5.082769   5.677438   4.472580   4.800801
    27  C    2.368289   3.559656   4.938071   5.930709   7.339160
    28  N    3.232220   4.386905   5.704921   6.705742   8.094753
    29  C    4.413509   5.642346   6.904746   7.994576   9.388300
    30  C    4.987451   6.271900   7.508610   8.664248  10.069807
    31  C    4.453003   5.701511   6.922603   8.057986   9.452199
    32  N    5.368455   6.556875   7.690200   8.829990  10.190582
    33  S    4.985332   5.981208   7.019572   8.051857   9.342702
    34  N    3.419655   4.383579   5.528738   6.503769   7.830008
    35  C    3.155463   4.336932   5.609287   6.662630   8.053034
    36  H    7.106703   6.037474   6.310682   4.857200   4.748946
    37  H    3.354016   3.729098   5.267483   5.511713   6.791513
    38  H    1.051865   2.029730   2.745599   4.184172   5.512282
    39  H    4.261843   3.467474   1.938829   2.696356   3.025125
    40  H    7.237287   6.465250   4.919218   5.193199   4.733406
    41  H    6.371478   5.898994   4.488276   5.323877   5.344843
    42  H    8.664641   7.636703   6.120707   5.732317   4.719708
    43  H    8.853730   7.605248   6.354345   5.266457   3.884777
    44  H    8.261388   6.941033   6.100605   4.590448   3.284235
    45  H    6.325858   5.660804   6.553710   5.582115   6.112068
    46  H    5.208517   6.385795   7.602544   8.674874  10.043373
    47  H    6.026177   7.320100   8.524393   9.712935  11.116482
                   16         17         18         19         20
    16  C    0.000000
    17  C    1.355972   0.000000
    18  C    2.283004   1.304559   0.000000
    19  C    3.421631   2.550779   1.246572   0.000000
    20  C    2.455011   2.452617   1.767697   1.917862   0.000000
    21  C    1.369827   2.265411   2.497569   3.263622   1.626079
    22  C    2.273928   3.515440   3.944740   4.698191   2.924389
    23  C    2.770151   4.118442   4.954442   5.936498   4.375176
    24  C    2.944773   4.082423   5.210725   6.366118   5.161830
    25  C    4.692562   5.617286   6.857092   8.069806   7.038988
    26  C    6.353055   7.093899   8.382881   9.622793   8.769315
    27  C    8.016923   7.446498   8.369341   9.312566   9.893939
    28  N    8.749684   8.154607   9.036637   9.939892  10.575727
    29  C    9.976543   9.298567  10.100370  10.928211  11.701009
    30  C   10.612313   9.878150  10.632074  11.416064  12.275547
    31  C    9.996441   9.282346  10.052202  10.856419  11.674303
    32  N   10.684295   9.945113  10.658029  11.410746  12.279007
    33  S    9.840877   9.172128   9.904818  10.684606  11.442964
    34  N    8.418876   7.824146   8.667145   9.548802  10.172911
    35  C    8.660832   8.028536   8.881922   9.766525  10.443252
    36  H    6.257782   7.228718   8.456573   9.658894   8.540448
    37  H    7.913306   7.791763   8.960961  10.094145  10.174074
    38  H    5.803372   5.000886   5.791331   6.673001   7.402295
    39  H    2.264646   1.037305   1.800857   2.900205   3.348071
    40  H    3.206614   2.499565   1.230306   0.451337   1.483456
    41  H    4.044018   2.828137   1.819047   1.377619   3.196612
    42  H    3.309924   3.583205   2.936355   2.827169   1.180706
    43  H    3.309092   4.441733   4.629597   5.156658   3.251926
    44  H    3.785966   5.141843   5.882118   6.777064   5.076819
    45  H    7.651214   8.272120   9.574784  10.821077  10.093515
    46  H   10.617165   9.936472  10.710247  11.509088  12.302289
    47  H   11.624394  10.850521  11.556149  12.291350  13.225521
                   21         22         23         24         25
    21  C    0.000000
    22  C    1.456091   0.000000
    23  C    2.754770   1.679740   0.000000
    24  C    3.595412   3.022272   1.590228   0.000000
    25  C    5.513313   4.945371   3.379771   1.946137   0.000000
    26  C    7.300419   6.811457   5.249520   3.796566   1.871766
    27  C    9.378180  10.037953   9.408591   8.035594   7.507804
    28  N   10.097072  10.768516  10.147296   8.780484   8.220243
    29  C   11.314657  12.043362  11.466812  10.111308   9.546007
    30  C   11.948578  12.720050  12.178800  10.830851  10.282205
    31  C   11.327686  12.087611  11.550008  10.215506   9.701722
    32  N   11.985257  12.765616  12.266911  10.966878  10.483130
    33  S   11.104713  11.837678  11.340660  10.087003   9.660974
    34  N    9.723842  10.405821   9.844677   8.547936   8.107892
    35  C   10.002530  10.706616  10.127702   8.785261   8.288704
    36  H    6.968452   6.209472   4.546491   3.379061   1.618264
    37  H    9.256002   9.532928   8.502473   6.952078   5.851463
    38  H    7.109548   7.994574   7.716188   6.613174   6.737769
    39  H    3.300886   4.507438   4.927164   4.610992   5.890088
    40  H    2.903989   4.317874   5.617035   6.136631   7.891093
    41  H    4.287472   5.742687   6.763806   6.905491   8.417421
    42  H    2.105304   2.927410   4.573191   5.654226   7.590950
    43  H    2.199868   1.130434   2.463924   3.984310   5.841956
    44  H    3.519498   2.165625   1.083069   2.371188   3.805043
    45  H    8.670394   8.244143   6.696944   5.223134   3.317370
    46  H   11.936908  12.665125  12.095052  10.752342  10.174364
    47  H   12.951362  13.751932  13.234274  11.892708  11.337726
                   26         27         28         29         30
    26  C    0.000000
    27  C    7.063030   0.000000
    28  N    7.708682   1.351328   0.000000
    29  C    8.970804   2.322097   1.347487   0.000000
    30  C    9.693969   2.801918   2.426328   1.379879   0.000000
    31  C    9.169553   2.428410   2.775001   2.348816   1.393867
    32  N    9.961399   3.595147   4.103889   3.621158   2.431409
    33  S    9.239788   3.778451   4.734156   4.688400   3.776341
    34  N    7.734023   2.462521   3.669147   4.064198   3.628409
    35  C    7.835224   1.389846   2.394418   2.729915   2.469248
    36  H    1.476464   8.403061   9.057878  10.347270  11.088342
    37  H    4.894178   2.672632   3.244488   4.303182   4.909632
    38  H    6.989152   2.667768   3.408763   4.403215   4.878189
    39  H    7.164733   6.586327   7.283673   8.380179   8.927687
    40  H    9.492917   9.517119  10.159664  11.180554  11.687163
    41  H    9.795090   8.480138   9.067451   9.956559  10.382938
    42  H    9.397069  11.027745  11.710581  12.853470  13.441601
    43  H    7.712743  11.164897  11.888849  13.160781  13.838104
    44  H    5.606068  10.374503  11.105290  12.434682  13.159949
    45  H    1.450418   6.898598   7.455455   8.623059   9.321274
    46  H    9.572237   3.286312   2.072270   1.084711   2.116984
    47  H   10.713161   3.865672   3.383751   2.145627   1.064276
                   31         32         33         34         35
    31  C    0.000000
    32  N    1.335421   0.000000
    33  S    2.404920   1.651713   0.000000
    34  N    2.335979   2.518957   1.647336   0.000000
    35  C    1.449068   2.329207   2.402395   1.341038   0.000000
    36  H   10.540883  11.312257  10.512957   9.007582   9.173523
    37  H    4.532219   5.477185   5.279428   3.867839   3.445715
    38  H    4.370384   5.224232   4.921059   3.533526   3.249819
    39  H    8.348717   9.015909   8.310933   6.986762   7.141248
    40  H   11.114983  11.677853  10.920972   9.755969   9.990952
    41  H    9.857085  10.388007   9.758081   8.707105   8.869677
    42  H   12.832144  13.427999  12.555248  11.286788  11.584241
    43  H   13.201309  13.862331  12.910039  11.500879  11.823523
    44  H   12.529015  13.240556  12.288502  10.797438  11.098244
    45  H    8.864368   9.653470   9.045500   7.621645   7.640037
    46  H    3.334082   4.527737   5.718888   5.148888   3.813999
    47  H    2.156150   2.748085   4.317587   4.490628   3.447712
                   36         37         38         39         40
    36  H    0.000000
    37  H    6.345847   0.000000
    38  H    8.033766   4.274146   0.000000
    39  H    7.505123   7.195323   4.054944   0.000000
    40  H    9.464112  10.186695   6.899948   3.004740   0.000000
    41  H   10.034159   9.582408   5.812373   2.656919   1.817204
    42  H    8.998831  11.189333   8.565125   4.515835   2.378223
    43  H    6.965351  10.645873   9.087816   5.466479   4.732357
    44  H    4.645203   9.305841   8.769160   5.986843   6.423461
    45  H    2.647786   4.412146   7.368069   8.218110  10.725273
    46  H   10.937339   5.008762   5.175675   9.026283  11.767002
    47  H   12.119412   5.884189   5.854013   9.882164  12.579934
                   41         42         43         44         45
    41  H    0.000000
    42  H    4.190908   0.000000
    43  H    6.347271   2.816657   0.000000
    44  H    7.700959   5.050800   2.475476   0.000000
    45  H   10.873719  10.774069   9.159163   7.047393   0.000000
    46  H   10.528467  13.446679  13.772355  13.052034   9.184414
    47  H   11.208608  14.397375  14.866589  14.219154  10.288228
                   46         47
    46  H    0.000000
    47  H    2.456017   0.000000
 Small interatomic distances encountered:     40    19
 Problem with the distance matrix.
 Error termination via Lnk1e in /opt/gaussian/g09/l202.exe at Sat Dec 28 23:08:28 2013.
 Job cpu time:  0 days  0 hours  0 minutes  8.3 seconds.
 File lengths (MBytes):  RWF=      5 Int=      0 D2E=      0 Chk=      1 Scr=      1
