 Entering Gaussian System, Link 0=g09
 Initial command:
 /opt/gaussian/g09/l1.exe /panfs/panfs.cluster/home/shuo/Gau-10336.inp -scrdir=/panfs/panfs.cluster/home/shuo/
 Default is to use a total of  12 processors:
                               12 via shared-memory
                                1 via Linda
 Entering Link 1 = /opt/gaussian/g09/l1.exe PID=     10337.
  
 Copyright (c) 1988,1990,1992,1993,1995,1998,2003,2009,2011,
            Gaussian, Inc.  All Rights Reserved.
  
 This is part of the Gaussian(R) 09 program.  It is based on
 the Gaussian(R) 03 system (copyright 2003, Gaussian, Inc.),
 the Gaussian(R) 98 system (copyright 1998, Gaussian, Inc.),
 the Gaussian(R) 94 system (copyright 1995, Gaussian, Inc.),
 the Gaussian 92(TM) system (copyright 1992, Gaussian, Inc.),
 the Gaussian 90(TM) system (copyright 1990, Gaussian, Inc.),
 the Gaussian 88(TM) system (copyright 1988, Gaussian, Inc.),
 the Gaussian 86(TM) system (copyright 1986, Carnegie Mellon
 University), and the Gaussian 82(TM) system (copyright 1983,
 Carnegie Mellon University). Gaussian is a federally registered
 trademark of Gaussian, Inc.
  
 This software contains proprietary and confidential information,
 including trade secrets, belonging to Gaussian, Inc.
  
 This software is provided under written license and may be
 used, copied, transmitted, or stored only in accord with that
 written license.
  
 The following legend is applicable only to US Government
 contracts under FAR:
  
                    RESTRICTED RIGHTS LEGEND
  
 Use, reproduction and disclosure by the US Government is
 subject to restrictions as set forth in subparagraphs (a)
 and (c) of the Commercial Computer Software - Restricted
 Rights clause in FAR 52.227-19.
  
 Gaussian, Inc.
 340 Quinnipiac St., Bldg. 40, Wallingford CT 06492
  
  
 ---------------------------------------------------------------
 Warning -- This program may not be used in any manner that
 competes with the business of Gaussian, Inc. or will provide
 assistance to any competitor of Gaussian, Inc.  The licensee
 of this program is prohibited from giving any competitor of
 Gaussian, Inc. access to this program.  By using this program,
 the user acknowledges that Gaussian, Inc. is engaged in the
 business of creating and licensing software in the field of
 computational chemistry and represents and warrants to the
 licensee that it is not a competitor of Gaussian, Inc. and that
 it will not use this program in any manner prohibited above.
 ---------------------------------------------------------------
  

 Cite this work as:
 Gaussian 09, Revision C.01,
 M. J. Frisch, G. W. Trucks, H. B. Schlegel, G. E. Scuseria, 
 M. A. Robb, J. R. Cheeseman, G. Scalmani, V. Barone, B. Mennucci, 
 G. A. Petersson, H. Nakatsuji, M. Caricato, X. Li, H. P. Hratchian, 
 A. F. Izmaylov, J. Bloino, G. Zheng, J. L. Sonnenberg, M. Hada, 
 M. Ehara, K. Toyota, R. Fukuda, J. Hasegawa, M. Ishida, T. Nakajima, 
 Y. Honda, O. Kitao, H. Nakai, T. Vreven, J. A. Montgomery, Jr., 
 J. E. Peralta, F. Ogliaro, M. Bearpark, J. J. Heyd, E. Brothers, 
 K. N. Kudin, V. N. Staroverov, T. Keith, R. Kobayashi, J. Normand, 
 K. Raghavachari, A. Rendell, J. C. Burant, S. S. Iyengar, J. Tomasi, 
 M. Cossi, N. Rega, J. M. Millam, M. Klene, J. E. Knox, J. B. Cross, 
 V. Bakken, C. Adamo, J. Jaramillo, R. Gomperts, R. E. Stratmann, 
 O. Yazyev, A. J. Austin, R. Cammi, C. Pomelli, J. W. Ochterski, 
 R. L. Martin, K. Morokuma, V. G. Zakrzewski, G. A. Voth, 
 P. Salvador, J. J. Dannenberg, S. Dapprich, A. D. Daniels, 
 O. Farkas, J. B. Foresman, J. V. Ortiz, J. Cioslowski, 
 and D. J. Fox, Gaussian, Inc., Wallingford CT, 2010.
 
 ******************************************
 Gaussian 09:  EM64L-G09RevC.01 23-Sep-2011
                28-Dec-2013 
 ******************************************
 %chk=30_C24H12N6S3.chk
 %NProcShared=12
 Will use up to   12 processors via shared memory.
 %Mem=8000MB
 Default route:  MaxDisk=100GB
 --------------------------------------------
 #B3LYP/6-31++G(d,p) opt scf=direct freq test
 --------------------------------------------
 1/14=-1,18=20,19=15,26=3,38=1/1,3;
 2/9=110,12=2,17=6,18=5,40=1/2;
 3/5=1,6=6,7=1111,11=2,16=1,25=1,30=1,71=1,74=-5/1,2,3;
 4//1;
 5/5=2,38=5/2;
 6/7=2,8=2,9=2,10=2,28=1/1;
 7//1,2,3,16;
 1/14=-1,18=20,19=15/3(2);
 2/9=110/2;
 99//99;
 2/9=110/2;
 3/5=1,6=6,7=1111,11=2,16=1,25=1,30=1,71=1,74=-5/1,2,3;
 4/5=5,16=3/1;
 5/5=2,38=5/2;
 7//1,2,3,16;
 1/14=-1,18=20,19=15/3(-5);
 2/9=110/2;
 6/7=2,8=2,9=2,10=2,19=2,28=1/1;
 99/9=1/99;
 ----------------------------------------------------------------------
 Geom opt of No.30 candidate from the CEPDB database with SMILE code of
  [SiH2]1ccc2c1c(sc2-c1cccnc1)-c1ccc([nH]1)-c1cncc2nsnc12, HPC, 2013122
 7, Shuo Dai, Gaussian09
 ----------------------------------------------------------------------
 Charge =  0 Multiplicity = 1
 Symbolic Z-Matrix:
 Si                   -1.60396   1.44898   0.00377 
 H                    -1.69493   2.26067  -1.23795 
 H                    -1.69642   2.24386   1.25516 
 C                    -2.346    -0.24973  -0.00726 
 C                    -1.39043  -1.20384  -0.01664 
 C                    -0.04192  -0.705     0.01732 
 C                     0.06688   0.69857   0.019 
 C                     1.33592   1.17626   0.03288 
 S                     2.4405   -0.09695   0.13996 
 C                     1.20496  -1.29162   0.03512 
 C                     1.64731  -2.66619  -0.00231 
 C                     2.91758  -3.01166  -0.48557 
 C                     3.30134  -4.33395  -0.52357 
 C                     2.35521  -5.27768  -0.17612 
 N                     1.13508  -4.99169   0.32935 
 C                     0.83155  -3.68666   0.4518 
 C                     1.7835    2.49747   0.00524 
 C                     1.06602   3.66675  -0.02598 
 C                     1.99471   4.69844  -0.00758 
 C                     3.26617   4.15365   0.01535 
 N                     3.11055   2.80313   0.01083 
 H                     3.84208   2.09789   0.0282 
 C                     4.54974   4.79697   0.0437 
 C                     5.78969   4.15136   0.07107 
 N                     7.01657   4.75235   0.10056 
 C                     7.11824   6.11501   0.10569 
 C                     5.94047   6.88613   0.07827 
 N                     5.85093   8.22642   0.07703 
 S                     4.23616   8.59885   0.03826 
 N                     3.60038   7.08549   0.02194 
 C                     4.62189   6.209     0.04631 
 H                    -3.4152   -0.37331  -0.01319 
 H                    -1.63604  -2.25598  -0.04317 
 H                     3.62449  -2.26258  -0.83701 
 H                     4.30149  -4.60253  -0.83664 
 H                     2.56108  -6.33204  -0.30183 
 H                    -0.10489  -3.47609   0.95773 
 H                     0.00068   3.79165  -0.0433 
 H                     1.72341   5.74115  -0.0077 
 H                     5.85394   3.06243   0.07023 
 H                     8.1064    6.54522   0.13015 
 

 GradGradGradGradGradGradGradGradGradGradGradGradGradGradGradGradGradGrad
 Berny optimization.
 Initialization pass.
                           ----------------------------
                           !    Initial Parameters    !
                           ! (Angstroms and Degrees)  !
 --------------------------                            --------------------------
 ! Name  Definition              Value          Derivative Info.                !
 --------------------------------------------------------------------------------
 ! R1    R(1,2)                  1.4863         estimate D2E/DX2                !
 ! R2    R(1,3)                  1.4854         estimate D2E/DX2                !
 ! R3    R(1,4)                  1.8537         estimate D2E/DX2                !
 ! R4    R(1,7)                  1.8317         estimate D2E/DX2                !
 ! R5    R(4,5)                  1.3504         estimate D2E/DX2                !
 ! R6    R(4,32)                 1.0763         estimate D2E/DX2                !
 ! R7    R(5,6)                  1.4382         estimate D2E/DX2                !
 ! R8    R(5,33)                 1.0808         estimate D2E/DX2                !
 ! R9    R(6,7)                  1.4078         estimate D2E/DX2                !
 ! R10   R(6,10)                 1.3781         estimate D2E/DX2                !
 ! R11   R(7,8)                  1.356          estimate D2E/DX2                !
 ! R12   R(8,9)                  1.689          estimate D2E/DX2                !
 ! R13   R(8,17)                 1.3952         estimate D2E/DX2                !
 ! R14   R(9,10)                 1.7219         estimate D2E/DX2                !
 ! R15   R(10,11)                1.4445         estimate D2E/DX2                !
 ! R16   R(11,12)                1.4023         estimate D2E/DX2                !
 ! R17   R(11,16)                1.3831         estimate D2E/DX2                !
 ! R18   R(12,13)                1.3774         estimate D2E/DX2                !
 ! R19   R(12,34)                1.0883         estimate D2E/DX2                !
 ! R20   R(13,14)                1.3808         estimate D2E/DX2                !
 ! R21   R(13,35)                1.0819         estimate D2E/DX2                !
 ! R22   R(14,15)                1.3513         estimate D2E/DX2                !
 ! R23   R(14,36)                1.0816         estimate D2E/DX2                !
 ! R24   R(15,16)                1.3454         estimate D2E/DX2                !
 ! R25   R(16,37)                1.085          estimate D2E/DX2                !
 ! R26   R(17,18)                1.3722         estimate D2E/DX2                !
 ! R27   R(17,21)                1.3618         estimate D2E/DX2                !
 ! R28   R(18,19)                1.3882         estimate D2E/DX2                !
 ! R29   R(18,38)                1.0728         estimate D2E/DX2                !
 ! R30   R(19,20)                1.3834         estimate D2E/DX2                !
 ! R31   R(19,39)                1.0774         estimate D2E/DX2                !
 ! R32   R(20,21)                1.3595         estimate D2E/DX2                !
 ! R33   R(20,23)                1.436          estimate D2E/DX2                !
 ! R34   R(21,22)                1.0163         estimate D2E/DX2                !
 ! R35   R(23,24)                1.3982         estimate D2E/DX2                !
 ! R36   R(23,31)                1.4139         estimate D2E/DX2                !
 ! R37   R(24,25)                1.3665         estimate D2E/DX2                !
 ! R38   R(24,40)                1.0908         estimate D2E/DX2                !
 ! R39   R(25,26)                1.3665         estimate D2E/DX2                !
 ! R40   R(26,27)                1.408          estimate D2E/DX2                !
 ! R41   R(26,41)                1.078          estimate D2E/DX2                !
 ! R42   R(27,28)                1.3433         estimate D2E/DX2                !
 ! R43   R(27,31)                1.4826         estimate D2E/DX2                !
 ! R44   R(28,29)                1.6576         estimate D2E/DX2                !
 ! R45   R(29,30)                1.6416         estimate D2E/DX2                !
 ! R46   R(30,31)                1.3462         estimate D2E/DX2                !
 ! A1    A(2,1,3)              114.0661         estimate D2E/DX2                !
 ! A2    A(2,1,4)              118.098          estimate D2E/DX2                !
 ! A3    A(2,1,7)              106.6497         estimate D2E/DX2                !
 ! A4    A(3,1,4)              118.0652         estimate D2E/DX2                !
 ! A5    A(3,1,7)              105.6055         estimate D2E/DX2                !
 ! A6    A(4,1,7)               89.4139         estimate D2E/DX2                !
 ! A7    A(1,4,5)              111.3609         estimate D2E/DX2                !
 ! A8    A(1,4,32)             120.1911         estimate D2E/DX2                !
 ! A9    A(5,4,32)             128.4461         estimate D2E/DX2                !
 ! A10   A(4,5,6)              114.725          estimate D2E/DX2                !
 ! A11   A(4,5,33)             121.8164         estimate D2E/DX2                !
 ! A12   A(6,5,33)             123.458          estimate D2E/DX2                !
 ! A13   A(5,6,7)              114.7273         estimate D2E/DX2                !
 ! A14   A(5,6,10)             134.5081         estimate D2E/DX2                !
 ! A15   A(7,6,10)             110.7603         estimate D2E/DX2                !
 ! A16   A(1,7,6)              109.752          estimate D2E/DX2                !
 ! A17   A(1,7,8)              135.1888         estimate D2E/DX2                !
 ! A18   A(6,7,8)              115.0591         estimate D2E/DX2                !
 ! A19   A(7,8,9)              110.312          estimate D2E/DX2                !
 ! A20   A(7,8,17)             129.3152         estimate D2E/DX2                !
 ! A21   A(9,8,17)             120.3513         estimate D2E/DX2                !
 ! A22   A(8,9,10)              92.8596         estimate D2E/DX2                !
 ! A23   A(6,10,9)             110.774          estimate D2E/DX2                !
 ! A24   A(6,10,11)            132.9856         estimate D2E/DX2                !
 ! A25   A(9,10,11)            116.2368         estimate D2E/DX2                !
 ! A26   A(10,11,12)           121.3836         estimate D2E/DX2                !
 ! A27   A(10,11,16)           120.8618         estimate D2E/DX2                !
 ! A28   A(12,11,16)           117.7518         estimate D2E/DX2                !
 ! A29   A(11,12,13)           119.8938         estimate D2E/DX2                !
 ! A30   A(11,12,34)           122.0135         estimate D2E/DX2                !
 ! A31   A(13,12,34)           118.0926         estimate D2E/DX2                !
 ! A32   A(12,13,14)           117.277          estimate D2E/DX2                !
 ! A33   A(12,13,35)           120.257          estimate D2E/DX2                !
 ! A34   A(14,13,35)           122.4526         estimate D2E/DX2                !
 ! A35   A(13,14,15)           124.6236         estimate D2E/DX2                !
 ! A36   A(13,14,36)           120.4376         estimate D2E/DX2                !
 ! A37   A(15,14,36)           114.9387         estimate D2E/DX2                !
 ! A38   A(14,15,16)           116.2971         estimate D2E/DX2                !
 ! A39   A(11,16,15)           123.5524         estimate D2E/DX2                !
 ! A40   A(11,16,37)           121.2616         estimate D2E/DX2                !
 ! A41   A(15,16,37)           115.1754         estimate D2E/DX2                !
 ! A42   A(8,17,18)            129.7637         estimate D2E/DX2                !
 ! A43   A(8,17,21)            121.6726         estimate D2E/DX2                !
 ! A44   A(18,17,21)           108.5634         estimate D2E/DX2                !
 ! A45   A(17,18,19)           106.4501         estimate D2E/DX2                !
 ! A46   A(17,18,38)           128.2297         estimate D2E/DX2                !
 ! A47   A(19,18,38)           125.3118         estimate D2E/DX2                !
 ! A48   A(18,19,20)           108.8073         estimate D2E/DX2                !
 ! A49   A(18,19,39)           123.4199         estimate D2E/DX2                !
 ! A50   A(20,19,39)           127.7723         estimate D2E/DX2                !
 ! A51   A(19,20,21)           106.615          estimate D2E/DX2                !
 ! A52   A(19,20,23)           130.1947         estimate D2E/DX2                !
 ! A53   A(21,20,23)           123.19           estimate D2E/DX2                !
 ! A54   A(17,21,20)           109.5445         estimate D2E/DX2                !
 ! A55   A(17,21,22)           123.0766         estimate D2E/DX2                !
 ! A56   A(20,21,22)           127.3678         estimate D2E/DX2                !
 ! A57   A(20,23,24)           125.8866         estimate D2E/DX2                !
 ! A58   A(20,23,31)           119.5409         estimate D2E/DX2                !
 ! A59   A(24,23,31)           114.5724         estimate D2E/DX2                !
 ! A60   A(23,24,25)           126.4093         estimate D2E/DX2                !
 ! A61   A(23,24,40)           120.874          estimate D2E/DX2                !
 ! A62   A(25,24,40)           112.7168         estimate D2E/DX2                !
 ! A63   A(24,25,26)           120.3624         estimate D2E/DX2                !
 ! A64   A(25,26,27)           118.9359         estimate D2E/DX2                !
 ! A65   A(25,26,41)           117.7912         estimate D2E/DX2                !
 ! A66   A(27,26,41)           123.2729         estimate D2E/DX2                !
 ! A67   A(26,27,28)           127.029          estimate D2E/DX2                !
 ! A68   A(26,27,31)           119.6182         estimate D2E/DX2                !
 ! A69   A(28,27,31)           113.3528         estimate D2E/DX2                !
 ! A70   A(27,28,29)           106.8062         estimate D2E/DX2                !
 ! A71   A(28,29,30)            99.8106         estimate D2E/DX2                !
 ! A72   A(29,30,31)           107.8281         estimate D2E/DX2                !
 ! A73   A(23,31,27)           120.1018         estimate D2E/DX2                !
 ! A74   A(23,31,30)           127.6959         estimate D2E/DX2                !
 ! A75   A(27,31,30)           112.2023         estimate D2E/DX2                !
 ! D1    D(2,1,4,5)            107.8499         estimate D2E/DX2                !
 ! D2    D(2,1,4,32)           -71.6892         estimate D2E/DX2                !
 ! D3    D(3,1,4,5)           -108.1968         estimate D2E/DX2                !
 ! D4    D(3,1,4,32)            72.2641         estimate D2E/DX2                !
 ! D5    D(7,1,4,5)             -0.7739         estimate D2E/DX2                !
 ! D6    D(7,1,4,32)           179.6869         estimate D2E/DX2                !
 ! D7    D(2,1,7,6)           -119.348          estimate D2E/DX2                !
 ! D8    D(2,1,7,8)             60.7609         estimate D2E/DX2                !
 ! D9    D(3,1,7,6)            118.9531         estimate D2E/DX2                !
 ! D10   D(3,1,7,8)            -60.938          estimate D2E/DX2                !
 ! D11   D(4,1,7,6)             -0.1021         estimate D2E/DX2                !
 ! D12   D(4,1,7,8)           -179.9932         estimate D2E/DX2                !
 ! D13   D(1,4,5,6)              1.4626         estimate D2E/DX2                !
 ! D14   D(1,4,5,33)          -178.802          estimate D2E/DX2                !
 ! D15   D(32,4,5,6)          -179.0461         estimate D2E/DX2                !
 ! D16   D(32,4,5,33)            0.6894         estimate D2E/DX2                !
 ! D17   D(4,5,6,7)             -1.6094         estimate D2E/DX2                !
 ! D18   D(4,5,6,10)           179.2307         estimate D2E/DX2                !
 ! D19   D(33,5,6,7)           178.66           estimate D2E/DX2                !
 ! D20   D(33,5,6,10)           -0.4998         estimate D2E/DX2                !
 ! D21   D(5,6,7,1)              0.9274         estimate D2E/DX2                !
 ! D22   D(5,6,7,8)           -179.1573         estimate D2E/DX2                !
 ! D23   D(10,6,7,1)          -179.7134         estimate D2E/DX2                !
 ! D24   D(10,6,7,8)             0.2019         estimate D2E/DX2                !
 ! D25   D(5,6,10,9)          -177.717          estimate D2E/DX2                !
 ! D26   D(5,6,10,11)            1.5508         estimate D2E/DX2                !
 ! D27   D(7,6,10,9)             3.0991         estimate D2E/DX2                !
 ! D28   D(7,6,10,11)         -177.6331         estimate D2E/DX2                !
 ! D29   D(1,7,8,9)            176.4266         estimate D2E/DX2                !
 ! D30   D(1,7,8,17)            -1.8622         estimate D2E/DX2                !
 ! D31   D(6,7,8,9)             -3.4602         estimate D2E/DX2                !
 ! D32   D(6,7,8,17)           178.2509         estimate D2E/DX2                !
 ! D33   D(7,8,9,10)             4.4051         estimate D2E/DX2                !
 ! D34   D(17,8,9,10)         -177.129          estimate D2E/DX2                !
 ! D35   D(7,8,17,18)            0.9366         estimate D2E/DX2                !
 ! D36   D(7,8,17,21)         -179.2887         estimate D2E/DX2                !
 ! D37   D(9,8,17,18)         -177.2037         estimate D2E/DX2                !
 ! D38   D(9,8,17,21)            2.5709         estimate D2E/DX2                !
 ! D39   D(8,9,10,6)            -4.3541         estimate D2E/DX2                !
 ! D40   D(8,9,10,11)          176.2431         estimate D2E/DX2                !
 ! D41   D(6,10,11,12)         154.7731         estimate D2E/DX2                !
 ! D42   D(6,10,11,16)         -25.8561         estimate D2E/DX2                !
 ! D43   D(9,10,11,12)         -25.9902         estimate D2E/DX2                !
 ! D44   D(9,10,11,16)         153.3806         estimate D2E/DX2                !
 ! D45   D(10,11,12,13)       -179.157          estimate D2E/DX2                !
 ! D46   D(10,11,12,34)          0.8985         estimate D2E/DX2                !
 ! D47   D(16,11,12,13)          1.4533         estimate D2E/DX2                !
 ! D48   D(16,11,12,34)       -178.4912         estimate D2E/DX2                !
 ! D49   D(10,11,16,15)        173.6159         estimate D2E/DX2                !
 ! D50   D(10,11,16,37)         -7.6323         estimate D2E/DX2                !
 ! D51   D(12,11,16,15)         -6.9911         estimate D2E/DX2                !
 ! D52   D(12,11,16,37)        171.7607         estimate D2E/DX2                !
 ! D53   D(11,12,13,14)          5.1397         estimate D2E/DX2                !
 ! D54   D(11,12,13,35)       -176.1605         estimate D2E/DX2                !
 ! D55   D(34,12,13,14)       -174.9137         estimate D2E/DX2                !
 ! D56   D(34,12,13,35)          3.7862         estimate D2E/DX2                !
 ! D57   D(12,13,14,15)         -7.304          estimate D2E/DX2                !
 ! D58   D(12,13,14,36)        172.5821         estimate D2E/DX2                !
 ! D59   D(35,13,14,15)        174.0269         estimate D2E/DX2                !
 ! D60   D(35,13,14,36)         -6.087          estimate D2E/DX2                !
 ! D61   D(13,14,15,16)          2.2186         estimate D2E/DX2                !
 ! D62   D(36,14,15,16)       -177.6732         estimate D2E/DX2                !
 ! D63   D(14,15,16,11)          5.1917         estimate D2E/DX2                !
 ! D64   D(14,15,16,37)       -173.6293         estimate D2E/DX2                !
 ! D65   D(8,17,18,19)         178.4309         estimate D2E/DX2                !
 ! D66   D(8,17,18,38)          -0.5427         estimate D2E/DX2                !
 ! D67   D(21,17,18,19)         -1.3668         estimate D2E/DX2                !
 ! D68   D(21,17,18,38)        179.6595         estimate D2E/DX2                !
 ! D69   D(8,17,21,20)        -178.4024         estimate D2E/DX2                !
 ! D70   D(8,17,21,22)           0.4634         estimate D2E/DX2                !
 ! D71   D(18,17,21,20)          1.4149         estimate D2E/DX2                !
 ! D72   D(18,17,21,22)       -179.7193         estimate D2E/DX2                !
 ! D73   D(17,18,19,20)          0.8391         estimate D2E/DX2                !
 ! D74   D(17,18,19,39)       -178.925          estimate D2E/DX2                !
 ! D75   D(38,18,19,20)        179.8511         estimate D2E/DX2                !
 ! D76   D(38,18,19,39)          0.0869         estimate D2E/DX2                !
 ! D77   D(18,19,20,21)          0.0034         estimate D2E/DX2                !
 ! D78   D(18,19,20,23)       -179.8003         estimate D2E/DX2                !
 ! D79   D(39,19,20,21)        179.7543         estimate D2E/DX2                !
 ! D80   D(39,19,20,23)         -0.0494         estimate D2E/DX2                !
 ! D81   D(19,20,21,17)         -0.866          estimate D2E/DX2                !
 ! D82   D(19,20,21,22)       -179.6701         estimate D2E/DX2                !
 ! D83   D(23,20,21,17)        178.9548         estimate D2E/DX2                !
 ! D84   D(23,20,21,22)          0.1507         estimate D2E/DX2                !
 ! D85   D(19,20,23,24)        179.7215         estimate D2E/DX2                !
 ! D86   D(19,20,23,31)         -0.232          estimate D2E/DX2                !
 ! D87   D(21,20,23,24)         -0.0537         estimate D2E/DX2                !
 ! D88   D(21,20,23,31)        179.9928         estimate D2E/DX2                !
 ! D89   D(20,23,24,25)       -179.8754         estimate D2E/DX2                !
 ! D90   D(20,23,24,40)          0.1373         estimate D2E/DX2                !
 ! D91   D(31,23,24,25)          0.0801         estimate D2E/DX2                !
 ! D92   D(31,23,24,40)       -179.9072         estimate D2E/DX2                !
 ! D93   D(20,23,31,27)        179.8739         estimate D2E/DX2                !
 ! D94   D(20,23,31,30)         -0.1524         estimate D2E/DX2                !
 ! D95   D(24,23,31,27)         -0.0847         estimate D2E/DX2                !
 ! D96   D(24,23,31,30)        179.889          estimate D2E/DX2                !
 ! D97   D(23,24,25,26)          0.0066         estimate D2E/DX2                !
 ! D98   D(40,24,25,26)        179.9948         estimate D2E/DX2                !
 ! D99   D(24,25,26,27)         -0.0869         estimate D2E/DX2                !
 ! D100  D(24,25,26,41)        179.9509         estimate D2E/DX2                !
 ! D101  D(25,26,27,28)       -179.9128         estimate D2E/DX2                !
 ! D102  D(25,26,27,31)          0.0763         estimate D2E/DX2                !
 ! D103  D(41,26,27,28)          0.0473         estimate D2E/DX2                !
 ! D104  D(41,26,27,31)       -179.9636         estimate D2E/DX2                !
 ! D105  D(26,27,28,29)        179.9738         estimate D2E/DX2                !
 ! D106  D(31,27,28,29)         -0.0158         estimate D2E/DX2                !
 ! D107  D(26,27,31,23)          0.0124         estimate D2E/DX2                !
 ! D108  D(26,27,31,30)       -179.9652         estimate D2E/DX2                !
 ! D109  D(28,27,31,23)       -179.9971         estimate D2E/DX2                !
 ! D110  D(28,27,31,30)          0.0253         estimate D2E/DX2                !
 ! D111  D(27,28,29,30)          0.0032         estimate D2E/DX2                !
 ! D112  D(28,29,30,31)          0.0112         estimate D2E/DX2                !
 ! D113  D(29,30,31,23)       -179.9967         estimate D2E/DX2                !
 ! D114  D(29,30,31,27)         -0.0213         estimate D2E/DX2                !
 --------------------------------------------------------------------------------
 Trust Radius=3.00D-01 FncErr=1.00D-07 GrdErr=1.00D-06
 Number of steps in this run=    245 maximum allowed number of steps=    246.
 GradGradGradGradGradGradGradGradGradGradGradGradGradGradGradGradGradGrad

                          Input orientation:                          
 ---------------------------------------------------------------------
 Center     Atomic      Atomic             Coordinates (Angstroms)
 Number     Number       Type             X           Y           Z
 ---------------------------------------------------------------------
      1         14           0       -1.603960    1.448980    0.003770
      2          1           0       -1.694930    2.260670   -1.237950
      3          1           0       -1.696420    2.243860    1.255160
      4          6           0       -2.346000   -0.249730   -0.007260
      5          6           0       -1.390430   -1.203840   -0.016640
      6          6           0       -0.041920   -0.705000    0.017320
      7          6           0        0.066880    0.698570    0.019000
      8          6           0        1.335920    1.176260    0.032880
      9         16           0        2.440500   -0.096950    0.139960
     10          6           0        1.204960   -1.291620    0.035120
     11          6           0        1.647310   -2.666190   -0.002310
     12          6           0        2.917580   -3.011660   -0.485570
     13          6           0        3.301340   -4.333950   -0.523570
     14          6           0        2.355210   -5.277680   -0.176120
     15          7           0        1.135080   -4.991690    0.329350
     16          6           0        0.831550   -3.686660    0.451800
     17          6           0        1.783500    2.497470    0.005240
     18          6           0        1.066020    3.666750   -0.025980
     19          6           0        1.994710    4.698440   -0.007580
     20          6           0        3.266170    4.153650    0.015350
     21          7           0        3.110550    2.803130    0.010830
     22          1           0        3.842080    2.097890    0.028200
     23          6           0        4.549740    4.796970    0.043700
     24          6           0        5.789690    4.151360    0.071070
     25          7           0        7.016570    4.752350    0.100560
     26          6           0        7.118240    6.115010    0.105690
     27          6           0        5.940470    6.886130    0.078270
     28          7           0        5.850930    8.226420    0.077030
     29         16           0        4.236160    8.598850    0.038260
     30          7           0        3.600380    7.085490    0.021940
     31          6           0        4.621890    6.209000    0.046310
     32          1           0       -3.415200   -0.373310   -0.013190
     33          1           0       -1.636040   -2.255980   -0.043170
     34          1           0        3.624490   -2.262580   -0.837010
     35          1           0        4.301490   -4.602530   -0.836640
     36          1           0        2.561080   -6.332040   -0.301830
     37          1           0       -0.104890   -3.476090    0.957730
     38          1           0        0.000680    3.791650   -0.043300
     39          1           0        1.723410    5.741150   -0.007700
     40          1           0        5.853940    3.062430    0.070230
     41          1           0        8.106400    6.545220    0.130150
 ---------------------------------------------------------------------
                    Distance matrix (angstroms):
                    1          2          3          4          5
     1  Si   0.000000
     2  H    1.486265   0.000000
     3  H    1.485382   2.493167   0.000000
     4  C    1.853742   2.870644   2.869434   0.000000
     5  C    2.661478   3.686075   3.687511   1.350381   0.000000
     6  C    2.660786   3.619854   3.600749   2.348757   1.438219
     7  C    1.831680   2.669092   2.650517   2.592673   2.396703
     8  C    2.952646   3.460781   3.439306   3.948619   3.619435
     9  S    4.331986   4.955683   4.882332   4.791200   3.990708
    10  C    3.924526   4.759079   4.733511   3.700898   2.597390
    11  C    5.244561   6.080405   6.072096   4.667529   3.371430
    12  C    6.370329   7.045480   7.206915   5.963414   4.695430
    13  C    7.601469   8.304340   8.450389   6.988553   5.662797
    14  C    7.807390   8.623099   8.662438   6.885504   5.536373
    15  N    7.006466   7.941166   7.824813   5.892148   4.565711
    16  C    5.701512   6.679004   6.496698   4.703195   3.364673
    17  C    3.546014   3.701496   3.706273   4.959842   4.875860
    18  C    3.471049   3.326977   3.361103   5.194328   5.454987
    19  C    4.848664   4.590204   4.609112   6.582260   6.804128
    20  C    5.570776   5.455882   5.460012   7.133493   7.098426
    21  N    4.905138   4.994632   4.996809   6.252537   6.026225
    22  H    5.484618   5.682263   5.674656   6.618528   6.187293
    23  C    7.005616   6.860856   6.855693   8.545350   8.443872
    24  C    7.872322   7.829928   7.815527   9.250145   8.957677
    25  N    9.232289   9.159165   9.140121  10.615562  10.303766
    26  C    9.892371   9.712532   9.695634  11.405898  11.223992
    27  C    9.299816   9.023672   9.014312  10.935877  10.917817
    28  N   10.075438   9.708725   9.702655  11.791602  11.890159
    29  S    9.231946   8.773771   8.778511  11.028339  11.302843
    30  N    7.671749   7.273687   7.281367   9.442761   9.675881
    31  C    7.837143   7.559157   7.556765   9.501029   9.544745
    32  H    2.569362   3.375976   3.378238   1.076334   2.188489
    33  H    3.705396   4.672376   4.683788   2.128467   1.080753
    34  H    6.466783   6.994053   7.279922   6.355061   5.190699
    35  H    8.497141   9.122588   9.339358   7.988984   6.679929
    36  H    8.830924   9.634553   9.700339   7.820531   6.480293
    37  H    5.235797   6.345050   5.944683   4.045143   2.786598
    38  H    2.839927   2.578019   2.638522   4.673431   5.185636
    39  H    5.430861   5.031134   5.051840   7.242288   7.611108
    40  H    7.630721   7.703220   7.686485   8.843948   8.407705
    41  H   10.967166  10.784022  10.763950  12.467674  12.258028
                    6          7          8          9         10
     6  C    0.000000
     7  C    1.407782   0.000000
     8  C    2.331914   1.356039   0.000000
     9  S    2.558745   2.506303   1.688972   0.000000
    10  C    1.378096   2.292671   2.471353   1.721856   0.000000
    11  C    2.588465   3.717502   3.855207   2.692654   1.444478
    12  C    3.785792   4.706048   4.506563   3.019011   2.482483
    13  C    4.963792   6.006860   5.876642   4.374184   3.736672
    14  C    5.166532   6.402350   6.537276   5.191064   4.154079
    15  N    4.456277   5.797968   6.178336   5.069366   3.712408
    16  C    3.137199   4.472391   4.906921   3.946135   2.459527
    17  C    3.686206   2.486567   1.395238   2.679704   3.833119
    18  C    4.510167   3.132155   2.505764   4.010258   4.960693
    19  C    5.774569   4.440292   3.583489   4.818326   6.042048
    20  C    5.877920   4.708827   3.548383   4.331842   5.822366
    21  N    4.716470   3.700428   2.407593   2.979279   4.516508
    22  H    4.789756   4.026204   2.670255   2.606576   4.294558
    23  C    7.166290   6.074004   4.841311   5.329973   6.946838
    24  C    7.589124   6.683938   5.356188   5.410172   7.116676
    25  N    8.922549   8.045991   6.712882   6.667659   8.385026
    26  C    9.888793   8.891964   7.604721   7.776302   9.477870
    27  C    9.665297   8.531616   7.335295   7.811338   9.450001
    28  N   10.700444   9.493531   8.372098   8.995192  10.591500
    29  S   10.240314   8.932955   7.969082   8.879847  10.344543
    30  N    8.599890   7.299204   6.328262   7.276448   8.712875
    31  C    8.339986   7.149385   6.010512   6.673248   8.242259
    32  H    3.389685   3.643466   4.997643   5.864218   4.710786
    33  H    2.224953   3.410743   4.540771   4.616614   3.001233
    34  H    4.074125   4.707202   4.221360   2.654478   2.749091
    35  H    5.897898   6.838545   6.553250   4.971648   4.616339
    36  H    6.208143   7.466823   7.614960   6.251885   5.230529
    37  H    2.926991   4.282348   4.957383   4.308868   2.709027
    38  H    4.497260   3.094416   2.937505   4.594292   5.224564
    39  H    6.683552   5.307770   4.581486   5.883828   7.051984
    40  H    6.996963   6.251442   4.896074   4.651679   6.369615
    41  H   10.907499   9.941305   8.641446   8.730461  10.442939
                   11         12         13         14         15
    11  C    0.000000
    12  C    1.402311   0.000000
    13  C    2.406024   1.377377   0.000000
    14  C    2.711312   2.355179   1.380764   0.000000
    15  N    2.404231   2.786022   2.419251   1.351298   0.000000
    16  C    1.383127   2.384493   2.733165   2.290670   1.345447
    17  C    5.165461   5.646020   7.017961   7.798250   7.524162
    18  C    6.359606   6.945549   8.321986   9.038107   8.666003
    19  C    7.372821   7.779833   9.140984   9.984054   9.734018
    20  C    7.009368   7.191252   8.504765   9.477156   9.395605
    21  N    5.661687   5.839129   7.159602   8.118188   8.047556
    22  H    5.245417   5.217869   6.478072   7.526723   7.594780
    23  C    8.007807   7.994922   9.233309  10.313237  10.371083
    24  C    7.977699   7.737423   8.862616  10.038105  10.262917
    25  N    9.158290   8.799154   9.836327  11.063739  11.383786
    26  C   10.346604  10.064355  11.142058  12.351488  12.617726
    27  C   10.473038  10.364460  11.541985  12.683733  12.815515
    28  N   11.675858  11.628220  12.830589  13.951518  14.036429
    29  S   11.558759  11.696880  12.978708  14.005071  13.942891
    30  N    9.945367  10.132928  11.436373  12.427294  12.330064
    31  C    9.360528   9.391919  10.640602  11.710300  11.734284
    32  H    5.557556   6.876637   7.814030   7.574762   6.492443
    33  H    3.309128   4.637049   5.378333   5.007836   3.911775
    34  H    2.183773   1.088280   2.119727   3.337465   3.873706
    35  H    3.389718   2.137598   1.081872   2.163359   3.396635
    36  H    3.789874   3.344514   2.142316   1.081601   2.056308
    37  H    2.155880   3.381440   3.812162   3.253219   2.056558
    38  H    6.664591   7.415452   8.783530   9.370923   8.864130
    39  H    8.407686   8.846812  10.210956  11.038213  10.754236
    40  H    7.107608   6.769468   7.846961   9.047609   9.338288
    41  H   11.251109  10.892058  11.911016  13.151082  13.481071
                   16         17         18         19         20
    16  C    0.000000
    17  C    6.272885   0.000000
    18  C    7.372645   1.372213   0.000000
    19  C    8.477846   2.211118   1.388232   0.000000
    20  C    8.221212   2.222914   2.253761   1.383449   0.000000
    21  N    6.892436   1.361808   2.219752   2.199463   1.359464
    22  H    6.534810   2.097127   3.189164   3.190128   2.134944
    23  C    9.271648   3.597397   3.663135   2.557443   1.436042
    24  C    9.282385   4.334656   4.749455   3.835017   2.524136
    25  N   10.468750   5.698999   6.050090   5.023313   3.798842
    26  C   11.649678   6.446405   6.529983   5.316960   4.323602
    27  C   11.748382   6.045335   5.842563   4.512469   3.823910
    28  N   12.932753   7.026379   6.610338   5.227259   4.824131
    29  S   12.755240   6.575977   5.863406   4.498822   4.549858
    30  N   11.130607   4.934700   4.255944   2.876987   2.950835
    31  C   10.604489   4.672644   4.371781   3.030969   2.462397
    32  H    5.406421   5.938703   6.033538   7.415511   8.070619
    33  H    2.894968   5.855842   6.510004   7.845226   8.069600
    34  H    3.389624   5.172688   6.508494   7.197217   6.482509
    35  H    3.813054   7.580174   8.916638   9.618556   8.858243
    36  H    3.249195   8.869000  10.113708  11.048930  10.514155
    37  H    1.085000   6.336929   7.304716   8.494886   8.394347
    38  H    7.540596   2.203566   1.072776   2.190822   3.286017
    39  H    9.481042   3.244262   2.176151   1.077426   2.213774
    40  H    8.421414   4.109974   4.826866   4.192403   2.808972
    41  H   12.558593   7.508592   7.607688   6.386104   5.400057
                   21         22         23         24         25
    21  N    0.000000
    22  H    1.016268   0.000000
    23  C    2.459217   2.790350   0.000000
    24  C    2.999857   2.830506   1.398227   0.000000
    25  N    4.366292   4.138693   2.467889   1.366489   0.000000
    26  C    5.199916   5.184253   2.887605   2.371110   1.366457
    27  C    4.968288   5.228096   2.509963   2.738933   2.389876
    28  N    6.076688   6.449554   3.668151   4.075524   3.664483
    29  S    5.904077   6.512901   3.814794   4.711125   4.746591
    30  N    4.310297   4.993457   2.477717   3.661231   4.137642
    31  C    3.726306   4.184454   1.413875   2.366063   2.803438
    32  H    7.257807   7.666593   9.496068  10.257180  11.623560
    33  H    6.937408   6.997934   9.381659   9.808594  11.135754
    34  H    5.161820   4.450801   7.174189   6.830178   7.848216
    35  H    7.548533   6.771605   9.443899   8.925764   9.785897
    36  H    9.157019   8.533089  11.310571  10.975639  11.953117
    37  H    7.117884   6.892884   9.536485   9.680405  10.915913
    38  H    3.263647   4.198844   4.659633   5.801302   7.082821
    39  H    3.249071   4.214664   2.980312   4.366723   5.385814
    40  H    2.756257   2.231521   2.170316   1.090824   2.051453
    41  H    6.243076   6.162269   3.964049   3.331847   2.098330
                   26         27         28         29         30
    26  C    0.000000
    27  C    1.408020   0.000000
    28  N    2.462712   1.343278   0.000000
    29  S    3.805311   2.416544   1.657616   0.000000
    30  N    3.650231   2.349242   2.523833   1.641567   0.000000
    31  C    2.498824   1.482626   2.362513   2.420792   1.346221
    32  H   12.371976  11.842145  12.642178  11.791760  10.239790
    33  H   12.113342  11.874192  12.882153  12.341665  10.709220
    34  H    9.125732   9.481582  10.761581  10.913794   9.387480
    35  H   11.121499  11.640989  12.954440  13.230501  11.740465
    36  H   13.261328  13.648618  14.930352  15.028407  13.461615
    37  H   12.036975  12.028941  13.160401  12.864459  11.231727
    38  H    7.488649   6.698634   7.342145   6.407427   4.879701
    39  H    5.408957   4.370579   4.818731   3.805585   2.308927
    40  H    3.304233   3.824687   5.163995   5.768031   4.611494
    41  H    1.078026   2.193209   2.813610   4.382305   4.539583
                   31         32         33         34         35
    31  C    0.000000
    32  H   10.388704   0.000000
    33  H   10.527373   2.590513   0.000000
    34  H    8.575706   7.335207   5.320094   0.000000
    35  H   10.852255   8.838081   6.433518   2.435918   0.000000
    36  H   12.714001   8.444270   5.856363   4.240019   2.511226
    37  H   10.815457   4.639836   2.198838   4.313001   4.889255
    38  H    5.216051   5.386653   6.265196   7.100400   9.465126
    39  H    2.936492   7.986987   8.674171   8.268105  10.692303
    40  H    3.379264   9.885759   9.186846   5.843737   7.873000
    41  H    3.501697  13.440010  13.130358   9.929766  11.818814
                   36         37         38         39         40
    36  H    0.000000
    37  H    4.104916   0.000000
    38  H   10.445649   7.337115   0.000000
    39  H   12.105789   9.446282   2.601849   0.000000
    40  H    9.961798   8.890869   5.899602   4.923707   0.000000
    41  H   14.027152  12.982173   8.562414   6.434912   4.148131
                   41
    41  H    0.000000
 Stoichiometry    C20H13N5S2Si
 Framework group  C1[X(C20H13N5S2Si)]
 Deg. of freedom   117
 Full point group                 C1      NOp   1
 Largest Abelian subgroup         C1      NOp   1
 Largest concise Abelian subgroup C1      NOp   1
                         Standard orientation:                         
 ---------------------------------------------------------------------
 Center     Atomic      Atomic             Coordinates (Angstroms)
 Number     Number       Type             X           Y           Z
 ---------------------------------------------------------------------
      1         14           0        2.115133    3.512547    0.059374
      2          1           0        1.415928    3.900153    1.312314
      3          1           0        1.415771    3.936513   -1.180588
      4          6           0        3.968875    3.511936    0.058380
      5          6           0        4.460316    2.254243    0.043523
      6          6           0        3.462829    1.219118   -0.001304
      7          6           0        2.133241    1.681534    0.013374
      8          6           0        1.187098    0.710411   -0.010632
      9         16           0        1.910460   -0.809636   -0.147863
     10          6           0        3.500690   -0.157845   -0.042402
     11          6           0        4.583148   -1.114189   -0.027991
     12          6           0        4.393937   -2.424398    0.434641
     13          6           0        5.451970   -3.306138    0.451030
     14          6           0        6.693412   -2.811433    0.103758
     15          7           0        6.916890   -1.570609   -0.382471
     16          6           0        5.841985   -0.767871   -0.484536
     17          6           0       -0.202556    0.828976    0.028004
     18          6           0       -0.986259    1.954026    0.083142
     19          6           0       -2.303677    1.516647    0.065956
     20          6           0       -2.314022    0.134002    0.019945
     21          7           0       -1.014265   -0.264322    0.009373
     22          1           0       -0.661268   -1.216650   -0.026229
     23          6           0       -3.417835   -0.783864   -0.016620
     24          6           0       -3.323212   -2.177940   -0.067944
     25          7           0       -4.365538   -3.060800   -0.105461
     26          6           0       -5.654809   -2.608178   -0.094659
     27          6           0       -5.889338   -1.220808   -0.042491
     28          7           0       -7.081473   -0.602070   -0.023166
     29         16           0       -6.775573    1.025816    0.040877
     30          7           0       -5.134188    1.001990    0.046162
     31          6           0       -4.740499   -0.284467   -0.002298
     32          1           0        4.510464    4.441911    0.076368
     33          1           0        5.522882    2.057484    0.059877
     34          1           0        3.426696   -2.777952    0.786489
     35          1           0        5.299418   -4.335233    0.747913
     36          1           0        7.577791   -3.424371    0.213496
     37          1           0        6.020915    0.182853   -0.975793
     38          1           0       -0.673807    2.979779    0.115610
     39          1           0       -3.150355    2.182758    0.082714
     40          1           0       -2.351235   -2.672885   -0.081689
     41          1           0       -6.444997   -3.340805   -0.126265
 ---------------------------------------------------------------------
 Rotational constants (GHZ):      0.3235818      0.0627330      0.0527274
 Standard basis: 6-31++G(d,p) (6D, 7F)
 There are   622 symmetry adapted basis functions of A   symmetry.
 Integral buffers will be    131072 words long.
 Raffenetti 2 integral format.
 Two-electron integral symmetry is turned on.
   622 basis functions,  1072 primitive gaussians,   622 cartesian basis functions
   107 alpha electrons      107 beta electrons
       nuclear repulsion energy      2726.9551854447 Hartrees.
 NAtoms=   41 NActive=   41 NUniq=   41 SFac= 1.00D+00 NAtFMM=   60 NAOKFM=F Big=F
 One-electron integrals computed using PRISM.
 NBasis=   622 RedAO= T  NBF=   622
 NBsUse=   613 1.00D-06 NBFU=   613
 Harris functional with IExCor=  402 diagonalized for initial guess.
 ExpMin= 3.31D-02 ExpMax= 2.19D+04 ExpMxC= 3.30D+03 IAcc=3 IRadAn=         5 AccDes= 0.00D+00
 HarFok:  IExCor=  402 AccDes= 0.00D+00 IRadAn=         5 IDoV= 1
 ScaDFX=  1.000000  1.000000  1.000000  1.000000
 FoFCou: FMM=F IPFlag=           0 FMFlag=      100000 FMFlg1=           0
         NFxFlg=           0 DoJE=T BraDBF=F KetDBF=T FulRan=T
         Omega=  0.000000  0.000000  1.000000  0.000000  0.000000 ICntrl=     500 IOpCl=  0
         NMat0=    1 NMatS0=    1 NMatT0=    0 NMatD0=    1 NMtDS0=    0 NMtDT0=    0
         I1Cent=           4 NGrid=           0.
 Petite list used in FoFCou.
 Initial guess orbital symmetries:
       Occupied  (A) (A) (A) (A) (A) (A) (A) (A) (A) (A) (A) (A)
                 (A) (A) (A) (A) (A) (A) (A) (A) (A) (A) (A) (A)
                 (A) (A) (A) (A) (A) (A) (A) (A) (A) (A) (A) (A)
                 (A) (A) (A) (A) (A) (A) (A) (A) (A) (A) (A) (A)
                 (A) (A) (A) (A) (A) (A) (A) (A) (A) (A) (A) (A)
                 (A) (A) (A) (A) (A) (A) (A) (A) (A) (A) (A) (A)
                 (A) (A) (A) (A) (A) (A) (A) (A) (A) (A) (A) (A)
                 (A) (A) (A) (A) (A) (A) (A) (A) (A) (A) (A) (A)
                 (A) (A) (A) (A) (A) (A) (A) (A) (A) (A) (A)
       Virtual   (A) (A) (A) (A) (A) (A) (A) (A) (A) (A) (A) (A)
                 (A) (A) (A) (A) (A) (A) (A) (A) (A) (A) (A) (A)
                 (A) (A) (A) (A) (A) (A) (A) (A) (A) (A) (A) (A)
                 (A) (A) (A) (A) (A) (A) (A) (A) (A) (A) (A) (A)
                 (A) (A) (A) (A) (A) (A) (A) (A) (A) (A) (A) (A)
                 (A) (A) (A) (A) (A) (A) (A) (A) (A) (A) (A) (A)
                 (A) (A) (A) (A) (A) (A) (A) (A) (A) (A) (A) (A)
                 (A) (A) (A) (A) (A) (A) (A) (A) (A) (A) (A) (A)
                 (A) (A) (A) (A) (A) (A) (A) (A) (A) (A) (A) (A)
                 (A) (A) (A) (A) (A) (A) (A) (A) (A) (A) (A) (A)
                 (A) (A) (A) (A) (A) (A) (A) (A) (A) (A) (A) (A)
                 (A) (A) (A) (A) (A) (A) (A) (A) (A) (A) (A) (A)
                 (A) (A) (A) (A) (A) (A) (A) (A) (A) (A) (A) (A)
                 (A) (A) (A) (A) (A) (A) (A) (A) (A) (A) (A) (A)
                 (A) (A) (A) (A) (A) (A) (A) (A) (A) (A) (A) (A)
                 (A) (A) (A) (A) (A) (A) (A) (A) (A) (A) (A) (A)
                 (A) (A) (A) (A) (A) (A) (A) (A) (A) (A) (A) (A)
                 (A) (A) (A) (A) (A) (A) (A) (A) (A) (A) (A) (A)
                 (A) (A) (A) (A) (A) (A) (A) (A) (A) (A) (A) (A)
                 (A) (A) (A) (A) (A) (A) (A) (A) (A) (A) (A) (A)
                 (A) (A) (A) (A) (A) (A) (A) (A) (A) (A) (A) (A)
                 (A) (A) (A) (A) (A) (A) (A) (A) (A) (A) (A) (A)
                 (A) (A) (A) (A) (A) (A) (A) (A) (A) (A) (A) (A)
                 (A) (A) (A) (A) (A) (A) (A) (A) (A) (A) (A) (A)
                 (A) (A) (A) (A) (A) (A) (A) (A) (A) (A) (A) (A)
                 (A) (A) (A) (A) (A) (A) (A) (A) (A) (A) (A) (A)
                 (A) (A) (A) (A) (A) (A) (A) (A) (A) (A) (A) (A)
                 (A) (A) (A) (A) (A) (A) (A) (A) (A) (A) (A) (A)
                 (A) (A) (A) (A) (A) (A) (A) (A) (A) (A) (A) (A)
                 (A) (A) (A) (A) (A) (A) (A) (A) (A) (A) (A) (A)
                 (A) (A) (A) (A) (A) (A) (A) (A) (A) (A) (A) (A)
                 (A) (A) (A) (A) (A) (A) (A) (A) (A) (A) (A) (A)
                 (A) (A) (A) (A) (A) (A) (A) (A) (A) (A) (A) (A)
                 (A) (A) (A) (A) (A) (A) (A) (A) (A) (A) (A) (A)
                 (A) (A) (A) (A) (A) (A) (A) (A) (A) (A) (A) (A)
                 (A) (A) (A) (A) (A) (A) (A) (A) (A) (A) (A) (A)
                 (A) (A) (A) (A) (A) (A) (A) (A) (A) (A) (A) (A)
                 (A) (A) (A) (A) (A) (A) (A) (A) (A) (A) (A) (A)
                 (A) (A) (A) (A) (A) (A) (A) (A) (A) (A) (A) (A)
                 (A) (A) (A) (A) (A) (A) (A) (A) (A) (A) (A) (A)
                 (A) (A) (A) (A) (A) (A) (A) (A) (A) (A) (A) (A)
                 (A) (A) (A) (A) (A) (A) (A) (A) (A) (A) (A) (A)
                 (A) (A)
 The electronic state of the initial guess is 1-A.
 Requested convergence on RMS density matrix=1.00D-08 within 128 cycles.
 Requested convergence on MAX density matrix=1.00D-06.
 Requested convergence on             energy=1.00D-06.
 No special actions if energy rises.
 Restarting incremental Fock formation.
 SCF Done:  E(RB3LYP) =  -2129.56751354     A.U. after   23 cycles
             Convg  =    0.2040D-08             -V/T =  2.0060

 **********************************************************************

            Population analysis using the SCF density.

 **********************************************************************

 Orbital symmetries:
       Occupied  (A) (A) (A) (A) (A) (A) (A) (A) (A) (A) (A) (A)
                 (A) (A) (A) (A) (A) (A) (A) (A) (A) (A) (A) (A)
                 (A) (A) (A) (A) (A) (A) (A) (A) (A) (A) (A) (A)
                 (A) (A) (A) (A) (A) (A) (A) (A) (A) (A) (A) (A)
                 (A) (A) (A) (A) (A) (A) (A) (A) (A) (A) (A) (A)
                 (A) (A) (A) (A) (A) (A) (A) (A) (A) (A) (A) (A)
                 (A) (A) (A) (A) (A) (A) (A) (A) (A) (A) (A) (A)
                 (A) (A) (A) (A) (A) (A) (A) (A) (A) (A) (A) (A)
                 (A) (A) (A) (A) (A) (A) (A) (A) (A) (A) (A)
       Virtual   (A) (A) (A) (A) (A) (A) (A) (A) (A) (A) (A) (A)
                 (A) (A) (A) (A) (A) (A) (A) (A) (A) (A) (A) (A)
                 (A) (A) (A) (A) (A) (A) (A) (A) (A) (A) (A) (A)
                 (A) (A) (A) (A) (A) (A) (A) (A) (A) (A) (A) (A)
                 (A) (A) (A) (A) (A) (A) (A) (A) (A) (A) (A) (A)
                 (A) (A) (A) (A) (A) (A) (A) (A) (A) (A) (A) (A)
                 (A) (A) (A) (A) (A) (A) (A) (A) (A) (A) (A) (A)
                 (A) (A) (A) (A) (A) (A) (A) (A) (A) (A) (A) (A)
                 (A) (A) (A) (A) (A) (A) (A) (A) (A) (A) (A) (A)
                 (A) (A) (A) (A) (A) (A) (A) (A) (A) (A) (A) (A)
                 (A) (A) (A) (A) (A) (A) (A) (A) (A) (A) (A) (A)
                 (A) (A) (A) (A) (A) (A) (A) (A) (A) (A) (A) (A)
                 (A) (A) (A) (A) (A) (A) (A) (A) (A) (A) (A) (A)
                 (A) (A) (A) (A) (A) (A) (A) (A) (A) (A) (A) (A)
                 (A) (A) (A) (A) (A) (A) (A) (A) (A) (A) (A) (A)
                 (A) (A) (A) (A) (A) (A) (A) (A) (A) (A) (A) (A)
                 (A) (A) (A) (A) (A) (A) (A) (A) (A) (A) (A) (A)
                 (A) (A) (A) (A) (A) (A) (A) (A) (A) (A) (A) (A)
                 (A) (A) (A) (A) (A) (A) (A) (A) (A) (A) (A) (A)
                 (A) (A) (A) (A) (A) (A) (A) (A) (A) (A) (A) (A)
                 (A) (A) (A) (A) (A) (A) (A) (A) (A) (A) (A) (A)
                 (A) (A) (A) (A) (A) (A) (A) (A) (A) (A) (A) (A)
                 (A) (A) (A) (A) (A) (A) (A) (A) (A) (A) (A) (A)
                 (A) (A) (A) (A) (A) (A) (A) (A) (A) (A) (A) (A)
                 (A) (A) (A) (A) (A) (A) (A) (A) (A) (A) (A) (A)
                 (A) (A) (A) (A) (A) (A) (A) (A) (A) (A) (A) (A)
                 (A) (A) (A) (A) (A) (A) (A) (A) (A) (A) (A) (A)
                 (A) (A) (A) (A) (A) (A) (A) (A) (A) (A) (A) (A)
                 (A) (A) (A) (A) (A) (A) (A) (A) (A) (A) (A) (A)
                 (A) (A) (A) (A) (A) (A) (A) (A) (A) (A) (A) (A)
                 (A) (A) (A) (A) (A) (A) (A) (A) (A) (A) (A) (A)
                 (A) (A) (A) (A) (A) (A) (A) (A) (A) (A) (A) (A)
                 (A) (A) (A) (A) (A) (A) (A) (A) (A) (A) (A) (A)
                 (A) (A) (A) (A) (A) (A) (A) (A) (A) (A) (A) (A)
                 (A) (A) (A) (A) (A) (A) (A) (A) (A) (A) (A) (A)
                 (A) (A) (A) (A) (A) (A) (A) (A) (A) (A) (A) (A)
                 (A) (A) (A) (A) (A) (A) (A) (A) (A) (A) (A) (A)
                 (A) (A) (A) (A) (A) (A) (A) (A) (A) (A) (A) (A)
                 (A) (A) (A) (A) (A) (A) (A) (A) (A) (A) (A) (A)
                 (A) (A) (A) (A) (A) (A) (A) (A) (A) (A) (A) (A)
                 (A) (A) (A) (A) (A) (A) (A) (A) (A) (A) (A) (A)
                 (A) (A) (A) (A) (A) (A) (A) (A) (A) (A) (A) (A)
                 (A) (A)
 The electronic state is 1-A.
 Alpha  occ. eigenvalues --  -88.99672 -88.92585 -66.13596 -14.40615 -14.39379
 Alpha  occ. eigenvalues --  -14.39125 -14.36352 -14.35092 -10.26762 -10.26318
 Alpha  occ. eigenvalues --  -10.25006 -10.24705 -10.24159 -10.24145 -10.24077
 Alpha  occ. eigenvalues --  -10.23921 -10.23713 -10.23515 -10.23486 -10.22808
 Alpha  occ. eigenvalues --  -10.22442 -10.22326 -10.21589 -10.21375 -10.19578
 Alpha  occ. eigenvalues --  -10.19263 -10.19094 -10.18072  -8.04955  -7.98773
 Alpha  occ. eigenvalues --   -6.01514  -6.00925  -6.00720  -5.95196  -5.94804
 Alpha  occ. eigenvalues --   -5.94461  -5.28597  -3.64508  -3.64399  -3.64396
 Alpha  occ. eigenvalues --   -1.03408  -1.02118  -0.95710  -0.94831  -0.92359
 Alpha  occ. eigenvalues --   -0.91087  -0.84200  -0.83718  -0.82587  -0.81157
 Alpha  occ. eigenvalues --   -0.80039  -0.79150  -0.76634  -0.73217  -0.71918
 Alpha  occ. eigenvalues --   -0.68626  -0.65869  -0.65548  -0.64738  -0.63543
 Alpha  occ. eigenvalues --   -0.62237  -0.61673  -0.59487  -0.58796  -0.56561
 Alpha  occ. eigenvalues --   -0.55125  -0.53437  -0.52832  -0.52168  -0.51217
 Alpha  occ. eigenvalues --   -0.49643  -0.49325  -0.47820  -0.47267  -0.46994
 Alpha  occ. eigenvalues --   -0.46211  -0.45668  -0.44741  -0.44233  -0.42945
 Alpha  occ. eigenvalues --   -0.42914  -0.42030  -0.41666  -0.41171  -0.41014
 Alpha  occ. eigenvalues --   -0.40140  -0.39833  -0.39322  -0.38580  -0.37509
 Alpha  occ. eigenvalues --   -0.37002  -0.35937  -0.34356  -0.34176  -0.33157
 Alpha  occ. eigenvalues --   -0.31768  -0.31732  -0.30993  -0.29930  -0.29525
 Alpha  occ. eigenvalues --   -0.28369  -0.27976  -0.27578  -0.27456  -0.25624
 Alpha  occ. eigenvalues --   -0.24128  -0.19952
 Alpha virt. eigenvalues --   -0.11741  -0.07757  -0.05638  -0.04629  -0.02854
 Alpha virt. eigenvalues --   -0.02129  -0.02063  -0.01886  -0.01110  -0.00789
 Alpha virt. eigenvalues --   -0.00658  -0.00407   0.00318   0.00787   0.01198
 Alpha virt. eigenvalues --    0.01720   0.02148   0.02304   0.02395   0.02696
 Alpha virt. eigenvalues --    0.02872   0.03417   0.03713   0.04055   0.04284
 Alpha virt. eigenvalues --    0.04581   0.05037   0.05407   0.05533   0.05785
 Alpha virt. eigenvalues --    0.05816   0.05875   0.06810   0.06970   0.07477
 Alpha virt. eigenvalues --    0.07528   0.08312   0.08669   0.08931   0.09186
 Alpha virt. eigenvalues --    0.09224   0.09379   0.09541   0.09998   0.10395
 Alpha virt. eigenvalues --    0.10570   0.10660   0.10956   0.11091   0.11448
 Alpha virt. eigenvalues --    0.11769   0.11900   0.12081   0.12242   0.12280
 Alpha virt. eigenvalues --    0.12307   0.12735   0.13012   0.13160   0.13321
 Alpha virt. eigenvalues --    0.13450   0.13682   0.13837   0.14058   0.14467
 Alpha virt. eigenvalues --    0.14804   0.14892   0.15019   0.15234   0.15578
 Alpha virt. eigenvalues --    0.15733   0.16225   0.16367   0.16768   0.16891
 Alpha virt. eigenvalues --    0.17027   0.17282   0.17427   0.17878   0.17920
 Alpha virt. eigenvalues --    0.18246   0.18347   0.18733   0.18982   0.19413
 Alpha virt. eigenvalues --    0.19600   0.20107   0.20148   0.20305   0.20639
 Alpha virt. eigenvalues --    0.20953   0.21099   0.21131   0.21666   0.22054
 Alpha virt. eigenvalues --    0.22229   0.22453   0.22555   0.22861   0.23011
 Alpha virt. eigenvalues --    0.23284   0.23444   0.23570   0.23947   0.24186
 Alpha virt. eigenvalues --    0.24307   0.24600   0.24890   0.25335   0.25713
 Alpha virt. eigenvalues --    0.25899   0.25999   0.26552   0.26661   0.26770
 Alpha virt. eigenvalues --    0.26944   0.27434   0.27628   0.27808   0.27992
 Alpha virt. eigenvalues --    0.28147   0.28427   0.28623   0.29050   0.29209
 Alpha virt. eigenvalues --    0.29446   0.29899   0.30078   0.30342   0.30529
 Alpha virt. eigenvalues --    0.31114   0.31231   0.31802   0.32118   0.32436
 Alpha virt. eigenvalues --    0.32908   0.33083   0.33461   0.34054   0.34242
 Alpha virt. eigenvalues --    0.34687   0.34813   0.35035   0.35670   0.35764
 Alpha virt. eigenvalues --    0.35954   0.36529   0.36836   0.37171   0.37383
 Alpha virt. eigenvalues --    0.37817   0.38485   0.38523   0.38938   0.39408
 Alpha virt. eigenvalues --    0.39847   0.40564   0.40764   0.42005   0.42172
 Alpha virt. eigenvalues --    0.42465   0.43135   0.43499   0.44026   0.45599
 Alpha virt. eigenvalues --    0.46349   0.47003   0.49132   0.49574   0.49805
 Alpha virt. eigenvalues --    0.50599   0.51546   0.54061   0.54481   0.55384
 Alpha virt. eigenvalues --    0.56147   0.57289   0.57450   0.58642   0.59749
 Alpha virt. eigenvalues --    0.60786   0.62151   0.63689   0.64585   0.65159
 Alpha virt. eigenvalues --    0.65492   0.65802   0.66052   0.66413   0.66647
 Alpha virt. eigenvalues --    0.67086   0.67994   0.68615   0.69154   0.69314
 Alpha virt. eigenvalues --    0.70328   0.70550   0.71341   0.71993   0.72284
 Alpha virt. eigenvalues --    0.72544   0.72783   0.73722   0.73977   0.74377
 Alpha virt. eigenvalues --    0.74731   0.75206   0.75745   0.76111   0.76818
 Alpha virt. eigenvalues --    0.77459   0.77683   0.78005   0.78743   0.79217
 Alpha virt. eigenvalues --    0.79566   0.79705   0.80521   0.81306   0.81675
 Alpha virt. eigenvalues --    0.82474   0.83103   0.84250   0.84584   0.87030
 Alpha virt. eigenvalues --    0.87397   0.88931   0.89433   0.89973   0.90572
 Alpha virt. eigenvalues --    0.92008   0.92012   0.92764   0.93455   0.94223
 Alpha virt. eigenvalues --    0.94873   0.95029   0.95970   0.96067   0.96374
 Alpha virt. eigenvalues --    0.96942   0.97040   0.97748   0.98494   0.99063
 Alpha virt. eigenvalues --    0.99622   0.99994   1.00378   1.01826   1.02282
 Alpha virt. eigenvalues --    1.03164   1.03548   1.04311   1.04465   1.04842
 Alpha virt. eigenvalues --    1.05655   1.06075   1.06966   1.07151   1.07954
 Alpha virt. eigenvalues --    1.09226   1.09749   1.10153   1.11339   1.12809
 Alpha virt. eigenvalues --    1.13364   1.14197   1.14451   1.14631   1.15221
 Alpha virt. eigenvalues --    1.16764   1.17099   1.18174   1.19031   1.19244
 Alpha virt. eigenvalues --    1.19778   1.19946   1.20216   1.20806   1.21297
 Alpha virt. eigenvalues --    1.21479   1.22492   1.22866   1.22923   1.24202
 Alpha virt. eigenvalues --    1.24834   1.25440   1.26422   1.26957   1.28380
 Alpha virt. eigenvalues --    1.28451   1.28724   1.29369   1.30239   1.31471
 Alpha virt. eigenvalues --    1.31719   1.32199   1.32757   1.33064   1.34463
 Alpha virt. eigenvalues --    1.35768   1.35968   1.36362   1.37498   1.38297
 Alpha virt. eigenvalues --    1.38579   1.40088   1.40477   1.41409   1.41559
 Alpha virt. eigenvalues --    1.42482   1.43254   1.43989   1.45128   1.46238
 Alpha virt. eigenvalues --    1.46497   1.46626   1.47978   1.48659   1.50390
 Alpha virt. eigenvalues --    1.52465   1.52929   1.55360   1.58195   1.59134
 Alpha virt. eigenvalues --    1.63108   1.63476   1.64082   1.67689   1.68361
 Alpha virt. eigenvalues --    1.69785   1.71225   1.72649   1.74069   1.74865
 Alpha virt. eigenvalues --    1.75225   1.77306   1.78625   1.80300   1.81267
 Alpha virt. eigenvalues --    1.83108   1.83206   1.84165   1.84229   1.85215
 Alpha virt. eigenvalues --    1.85339   1.86521   1.87408   1.88025   1.89972
 Alpha virt. eigenvalues --    1.92214   1.92719   1.92949   1.93600   1.94462
 Alpha virt. eigenvalues --    1.94753   1.96316   1.96923   1.97810   1.98745
 Alpha virt. eigenvalues --    1.98815   2.01580   2.03676   2.05167   2.06111
 Alpha virt. eigenvalues --    2.06340   2.07047   2.07901   2.08570   2.09120
 Alpha virt. eigenvalues --    2.09957   2.11701   2.12083   2.13015   2.14112
 Alpha virt. eigenvalues --    2.14805   2.15997   2.16879   2.17270   2.18712
 Alpha virt. eigenvalues --    2.18957   2.21233   2.22022   2.23558   2.25145
 Alpha virt. eigenvalues --    2.25850   2.26722   2.28333   2.28920   2.29735
 Alpha virt. eigenvalues --    2.31141   2.31617   2.32425   2.33114   2.33272
 Alpha virt. eigenvalues --    2.33952   2.35798   2.36371   2.36915   2.38116
 Alpha virt. eigenvalues --    2.38563   2.39036   2.39374   2.42365   2.43245
 Alpha virt. eigenvalues --    2.43583   2.44032   2.44307   2.45504   2.46593
 Alpha virt. eigenvalues --    2.46815   2.47932   2.49770   2.50940   2.51249
 Alpha virt. eigenvalues --    2.51899   2.53620   2.55212   2.56551   2.56990
 Alpha virt. eigenvalues --    2.58535   2.59831   2.60602   2.61442   2.61645
 Alpha virt. eigenvalues --    2.62086   2.63898   2.64284   2.64696   2.65677
 Alpha virt. eigenvalues --    2.65848   2.66414   2.67498   2.68077   2.70045
 Alpha virt. eigenvalues --    2.70950   2.71898   2.72978   2.73487   2.74102
 Alpha virt. eigenvalues --    2.74867   2.75573   2.76030   2.79964   2.80944
 Alpha virt. eigenvalues --    2.82675   2.84468   2.86522   2.87207   2.92047
 Alpha virt. eigenvalues --    2.95638   2.97052   2.97733   2.99269   3.00295
 Alpha virt. eigenvalues --    3.02518   3.04253   3.05592   3.08635   3.10395
 Alpha virt. eigenvalues --    3.13394   3.16656   3.20332   3.24947   3.26546
 Alpha virt. eigenvalues --    3.27400   3.28973   3.31737   3.35166   3.37463
 Alpha virt. eigenvalues --    3.42602   3.43027   3.43646   3.51865   3.59511
 Alpha virt. eigenvalues --    3.66901   3.68414   3.78475   3.83203   3.94900
 Alpha virt. eigenvalues --    4.00582   4.12236   4.19470   4.26698   4.28148
 Alpha virt. eigenvalues --    4.30281   4.30479   4.33561   4.34340   4.34754
 Alpha virt. eigenvalues --    4.36537   4.39222   4.40720   4.43798   4.46393
 Alpha virt. eigenvalues --    4.50822   4.51130   4.53591   4.54611   4.56271
 Alpha virt. eigenvalues --    4.60669   4.67285   4.69090   4.81219   4.82645
 Alpha virt. eigenvalues --    4.87630
          Condensed to atoms (all electrons):
              1          2          3          4          5          6
     1  Si  12.585023   0.347265   0.367720   0.090370   0.194324  -0.120661
     2  H    0.347265   0.810534  -0.050906   0.049483  -0.028906   0.008702
     3  H    0.367720  -0.050906   0.805787   0.012218  -0.064558  -0.017735
     4  C    0.090370   0.049483   0.012218   7.461995  -1.784503  -0.082789
     5  C    0.194324  -0.028906  -0.064558  -1.784503  14.792059  -5.159424
     6  C   -0.120661   0.008702  -0.017735  -0.082789  -5.159424  13.648815
     7  C   -0.218925  -0.022173   0.012777   0.746360  -5.033100   3.455570
     8  C   -0.214693  -0.012350   0.054888   0.586351  -2.386330  -0.892432
     9  S   -0.133687   0.016944   0.009007   0.145335   0.283618  -0.294011
    10  C    0.141981  -0.000975  -0.031716  -0.922553   5.041896  -3.128588
    11  C    0.025328   0.002434   0.000400  -0.326555   0.905072  -0.665533
    12  C    0.017770   0.000563  -0.000504  -0.153431  -0.083859  -0.350628
    13  C    0.002194  -0.000253  -0.000307   0.009558   0.274009  -0.139431
    14  C   -0.000159  -0.000017   0.000110  -0.009291  -0.045545  -0.072321
    15  N   -0.000720   0.000055   0.000042   0.000833  -0.029561   0.042884
    16  C   -0.021847  -0.000566  -0.001270   0.257699  -0.088508  -0.106669
    17  C   -0.089328   0.037571   0.011057   0.217653  -0.485269  -0.250582
    18  C    0.185785  -0.019637   0.024881   0.038266  -0.329800   0.044305
    19  C    0.042401  -0.021291  -0.009625   0.010003  -0.032260   0.091492
    20  C   -0.005893   0.000891  -0.003157   0.034344  -0.021508   0.123404
    21  N   -0.001161  -0.000769   0.000567   0.011276  -0.028398  -0.047750
    22  H    0.019337  -0.000723  -0.001391  -0.022762   0.018082  -0.070291
    23  C    0.015754  -0.001068  -0.001094   0.003562  -0.003862  -0.024335
    24  C   -0.000248  -0.000665  -0.000379   0.002618  -0.003992   0.023557
    25  N   -0.000006  -0.000001  -0.000001   0.000005  -0.000008   0.000018
    26  C   -0.000639   0.000048   0.000049  -0.000013   0.000116   0.000855
    27  C   -0.000064   0.000128  -0.000042   0.000031  -0.000057  -0.000675
    28  N   -0.000014  -0.000004  -0.000002   0.000000  -0.000000   0.000019
    29  S   -0.000114   0.000002   0.000009   0.000012  -0.000015   0.000043
    30  N    0.000320  -0.000032  -0.000021   0.000021   0.000019   0.000007
    31  C   -0.005554   0.000092  -0.000427   0.000734   0.000144   0.017827
    32  H   -0.033073  -0.001920   0.003404   0.360331  -0.232078   0.131704
    33  H    0.026763   0.001350  -0.002562  -0.048225   0.344452  -0.053434
    34  H    0.001725  -0.000233   0.000043  -0.000061  -0.007466  -0.047047
    35  H   -0.000084   0.000010  -0.000001   0.000124   0.003157   0.000726
    36  H    0.000012  -0.000007   0.000003   0.000159   0.000411  -0.004075
    37  H   -0.009943  -0.000083   0.000287   0.062384  -0.130474   0.059843
    38  H   -0.024044  -0.010728  -0.007618  -0.020580   0.025721   0.058075
    39  H    0.007305   0.000292   0.000526   0.000316  -0.000141  -0.001074
    40  H   -0.001340   0.000035   0.000013   0.000839  -0.000504   0.008901
    41  H   -0.000004   0.000000  -0.000000   0.000000   0.000001   0.000022
              7          8          9         10         11         12
     1  Si  -0.218925  -0.214693  -0.133687   0.141981   0.025328   0.017770
     2  H   -0.022173  -0.012350   0.016944  -0.000975   0.002434   0.000563
     3  H    0.012777   0.054888   0.009007  -0.031716   0.000400  -0.000504
     4  C    0.746360   0.586351   0.145335  -0.922553  -0.326555  -0.153431
     5  C   -5.033100  -2.386330   0.283618   5.041896   0.905072  -0.083859
     6  C    3.455570  -0.892432  -0.294011  -3.128588  -0.665533  -0.350628
     7  C   10.031805   1.484141  -0.170020  -3.275365  -0.680602  -0.024495
     8  C    1.484141  13.080709  -1.892744  -2.626716   0.837912  -1.207172
     9  S   -0.170020  -1.892744  19.343785   0.138959  -0.026734  -0.205350
    10  C   -3.275365  -2.626716   0.138959  12.540394  -1.243478  -0.271628
    11  C   -0.680602   0.837912  -0.026734  -1.243478  14.251173  -5.588906
    12  C   -0.024495  -1.207172  -0.205350  -0.271628  -5.588906  29.313360
    13  C   -0.225077   0.286296  -0.227714   0.263691   2.464464 -10.714696
    14  C    0.020196  -0.080311  -0.048036  -0.421515  -1.443953   4.193184
    15  N    0.007544   0.013976   0.010648   0.087346   0.435052  -0.325565
    16  C   -0.024063   0.375713  -0.084048   0.374041  -2.268060  -9.397990
    17  C   -0.187448   1.049018  -1.080700   0.245626  -0.322671   0.084497
    18  C    0.116082  -1.482407   0.343390  -0.063919  -0.116576   0.034652
    19  C    0.024943  -0.851075   0.341281   0.092307  -0.045731   0.010771
    20  C   -0.120469  -0.076852   0.237739  -0.203196   0.070596  -0.045278
    21  N    0.007172  -0.038919   0.018268  -0.073887   0.018638  -0.016924
    22  H   -0.064636   0.562402  -0.573826   0.018616   0.043744  -0.064963
    23  C    0.017214   0.297173  -0.217173  -0.075682   0.030046  -0.023761
    24  C   -0.001828  -0.451023   0.257783   0.040447  -0.020668   0.012666
    25  N   -0.000053  -0.003532   0.001768   0.000078  -0.000140   0.000051
    26  C    0.001122  -0.001559   0.007166   0.000228  -0.000212   0.000107
    27  C   -0.003933   0.010295  -0.012711  -0.002703   0.000724  -0.000364
    28  N    0.000037  -0.000242   0.000252  -0.000007   0.000001  -0.000000
    29  S   -0.000124  -0.001473   0.000668  -0.000020   0.000004   0.000002
    30  N    0.001342  -0.000368   0.002158  -0.000297   0.000047  -0.000026
    31  C   -0.029884  -0.023761   0.013902  -0.008390   0.003035  -0.000383
    32  H    0.108090   0.060842  -0.004289  -0.088889  -0.021432  -0.004151
    33  H   -0.005913   0.030195   0.009869  -0.018954   0.095162   0.048576
    34  H    0.001437  -0.027308   0.024477  -0.114191  -0.377906   0.993657
    35  H   -0.002291   0.006670  -0.000735   0.011198   0.160414  -0.469384
    36  H    0.000549  -0.000800  -0.001427  -0.010556  -0.067256   0.235940
    37  H    0.067349  -0.002299  -0.050800  -0.150168  -0.513463  -0.092828
    38  H    0.059722  -0.255849   0.048188   0.011952  -0.001773  -0.000522
    39  H   -0.014816   0.028536   0.002270   0.004694  -0.000743   0.000498
    40  H    0.002728  -0.086785   0.086283  -0.001297  -0.004795   0.003327
    41  H    0.000048  -0.000304   0.000330  -0.000014   0.000002  -0.000004
             13         14         15         16         17         18
     1  Si   0.002194  -0.000159  -0.000720  -0.021847  -0.089328   0.185785
     2  H   -0.000253  -0.000017   0.000055  -0.000566   0.037571  -0.019637
     3  H   -0.000307   0.000110   0.000042  -0.001270   0.011057   0.024881
     4  C    0.009558  -0.009291   0.000833   0.257699   0.217653   0.038266
     5  C    0.274009  -0.045545  -0.029561  -0.088508  -0.485269  -0.329800
     6  C   -0.139431  -0.072321   0.042884  -0.106669  -0.250582   0.044305
     7  C   -0.225077   0.020196   0.007544  -0.024063  -0.187448   0.116082
     8  C    0.286296  -0.080311   0.013976   0.375713   1.049018  -1.482407
     9  S   -0.227714  -0.048036   0.010648  -0.084048  -1.080700   0.343390
    10  C    0.263691  -0.421515   0.087346   0.374041   0.245626  -0.063919
    11  C    2.464464  -1.443953   0.435052  -2.268060  -0.322671  -0.116576
    12  C  -10.714696   4.193184  -0.325565  -9.397990   0.084497   0.034652
    13  C   13.734559  -2.453645   0.235390   2.442598  -0.015430  -0.011685
    14  C   -2.453645   7.123912   0.014468  -1.132015   0.002344   0.001250
    15  N    0.235390   0.014468   6.808123   0.061363  -0.001320  -0.000283
    16  C    2.442598  -1.132015   0.061363  15.337197  -0.012433  -0.015831
    17  C   -0.015430   0.002344  -0.001320  -0.012433  14.466051  -2.589253
    18  C   -0.011685   0.001250  -0.000283  -0.015831  -2.589253   8.712702
    19  C   -0.001472   0.000101  -0.000064  -0.001069  -4.072935   2.186340
    20  C    0.001947  -0.000229   0.000065   0.030892   0.293532  -1.542246
    21  N   -0.001477  -0.000352   0.000051   0.001461  -0.125460  -0.046090
    22  H    0.032045  -0.006267  -0.000036  -0.001659   0.391002  -0.216585
    23  C    0.003404  -0.000570   0.000008   0.003891   1.331930  -0.733904
    24  C   -0.002719   0.000389  -0.000004  -0.001693  -1.740662   0.499698
    25  N   -0.000009  -0.000000  -0.000000  -0.000008   0.012935   0.001428
    26  C   -0.000001  -0.000001  -0.000000  -0.000015   0.097544  -0.028207
    27  C    0.000030  -0.000001   0.000000   0.000057   0.012889   0.158383
    28  N    0.000000   0.000000  -0.000000   0.000000  -0.013079   0.000575
    29  S   -0.000000   0.000000   0.000000   0.000001  -0.025417   0.011603
    30  N   -0.000000  -0.000000   0.000000   0.000005  -0.057706  -0.015526
    31  C    0.000254   0.000008  -0.000000   0.000490  -1.049282   0.455665
    32  H   -0.000615  -0.000071   0.000064   0.014156   0.005745   0.006951
    33  H   -0.004504  -0.002113   0.009057  -0.196482  -0.011633  -0.007133
    34  H   -0.289776   0.147658  -0.004604  -0.103546  -0.003021   0.007019
    35  H    0.656966  -0.182720   0.017792   0.091954  -0.000714  -0.000314
    36  H   -0.385031   0.580134  -0.135735  -0.001463  -0.000069   0.000015
    37  H    0.058030   0.035474  -0.149734   0.897629   0.008912   0.001495
    38  H   -0.000335  -0.000014  -0.000004   0.000701  -0.667939   0.487720
    39  H   -0.000029   0.000007  -0.000001  -0.000178   0.054069   0.029149
    40  H   -0.001912   0.000280  -0.000002  -0.000490  -0.169442   0.044164
    41  H   -0.000001  -0.000000   0.000000   0.000000   0.000010  -0.000582
             19         20         21         22         23         24
     1  Si   0.042401  -0.005893  -0.001161   0.019337   0.015754  -0.000248
     2  H   -0.021291   0.000891  -0.000769  -0.000723  -0.001068  -0.000665
     3  H   -0.009625  -0.003157   0.000567  -0.001391  -0.001094  -0.000379
     4  C    0.010003   0.034344   0.011276  -0.022762   0.003562   0.002618
     5  C   -0.032260  -0.021508  -0.028398   0.018082  -0.003862  -0.003992
     6  C    0.091492   0.123404  -0.047750  -0.070291  -0.024335   0.023557
     7  C    0.024943  -0.120469   0.007172  -0.064636   0.017214  -0.001828
     8  C   -0.851075  -0.076852  -0.038919   0.562402   0.297173  -0.451023
     9  S    0.341281   0.237739   0.018268  -0.573826  -0.217173   0.257783
    10  C    0.092307  -0.203196  -0.073887   0.018616  -0.075682   0.040447
    11  C   -0.045731   0.070596   0.018638   0.043744   0.030046  -0.020668
    12  C    0.010771  -0.045278  -0.016924  -0.064963  -0.023761   0.012666
    13  C   -0.001472   0.001947  -0.001477   0.032045   0.003404  -0.002719
    14  C    0.000101  -0.000229  -0.000352  -0.006267  -0.000570   0.000389
    15  N   -0.000064   0.000065   0.000051  -0.000036   0.000008  -0.000004
    16  C   -0.001069   0.030892   0.001461  -0.001659   0.003891  -0.001693
    17  C   -4.072935   0.293532  -0.125460   0.391002   1.331930  -1.740662
    18  C    2.186340  -1.542246  -0.046090  -0.216585  -0.733904   0.499698
    19  C    8.783336  -0.544679  -0.165336  -0.250013  -1.011771   0.648754
    20  C   -0.544679  10.567376  -0.094062  -0.081625   3.053858  -1.745371
    21  N   -0.165336  -0.094062   7.240438   0.393067  -0.111095  -0.176977
    22  H   -0.250013  -0.081625   0.393067   0.919163   0.464477  -0.610317
    23  C   -1.011771   3.053858  -0.111095   0.464477  14.116371  -6.044547
    24  C    0.648754  -1.745371  -0.176977  -0.610317  -6.044547  12.142328
    25  N    0.010552   0.148551  -0.010618   0.015197   0.636526  -0.109494
    26  C   -0.050918  -0.262930  -0.005713  -0.072885  -0.121253  -0.208096
    27  C   -0.119644  -2.050667   0.118215   0.047169  -3.785156   1.085305
    28  N    0.028352   0.012945  -0.001279  -0.003056   0.103523   0.016328
    29  S    0.025463  -0.098338   0.000604  -0.002293  -0.081824   0.049859
    30  N    0.260130  -0.243168  -0.008477  -0.004111  -0.297621   0.065483
    31  C    0.241686  -1.172980   0.185782  -0.091672  -0.656944   1.628528
    32  H    0.001316   0.000915   0.000481  -0.000344   0.000220   0.000049
    33  H   -0.001572  -0.002114   0.000056   0.001280  -0.000012  -0.000134
    34  H    0.002764   0.002357  -0.000868  -0.013951  -0.003821   0.003955
    35  H   -0.000075  -0.000051   0.000074   0.001460   0.000228  -0.000211
    36  H   -0.000003  -0.000018  -0.000005  -0.000039  -0.000004   0.000002
    37  H    0.000165   0.001913  -0.000170  -0.001862  -0.000025   0.000113
    38  H    0.339354  -0.015028   0.062973  -0.018364   0.006495   0.048802
    39  H    0.284660  -0.108778   0.022709   0.004175  -0.092741  -0.022194
    40  H    0.022161  -0.187735  -0.020732  -0.171464  -0.976928   1.213648
    41  H   -0.004147  -0.009523  -0.000859  -0.004475  -0.022373   0.012542
             25         26         27         28         29         30
     1  Si  -0.000006  -0.000639  -0.000064  -0.000014  -0.000114   0.000320
     2  H   -0.000001   0.000048   0.000128  -0.000004   0.000002  -0.000032
     3  H   -0.000001   0.000049  -0.000042  -0.000002   0.000009  -0.000021
     4  C    0.000005  -0.000013   0.000031   0.000000   0.000012   0.000021
     5  C   -0.000008   0.000116  -0.000057  -0.000000  -0.000015   0.000019
     6  C    0.000018   0.000855  -0.000675   0.000019   0.000043   0.000007
     7  C   -0.000053   0.001122  -0.003933   0.000037  -0.000124   0.001342
     8  C   -0.003532  -0.001559   0.010295  -0.000242  -0.001473  -0.000368
     9  S    0.001768   0.007166  -0.012711   0.000252   0.000668   0.002158
    10  C    0.000078   0.000228  -0.002703  -0.000007  -0.000020  -0.000297
    11  C   -0.000140  -0.000212   0.000724   0.000001   0.000004   0.000047
    12  C    0.000051   0.000107  -0.000364  -0.000000   0.000002  -0.000026
    13  C   -0.000009  -0.000001   0.000030   0.000000  -0.000000  -0.000000
    14  C   -0.000000  -0.000001  -0.000001   0.000000   0.000000  -0.000000
    15  N   -0.000000  -0.000000   0.000000  -0.000000   0.000000   0.000000
    16  C   -0.000008  -0.000015   0.000057   0.000000   0.000001   0.000005
    17  C    0.012935   0.097544   0.012889  -0.013079  -0.025417  -0.057706
    18  C    0.001428  -0.028207   0.158383   0.000575   0.011603  -0.015526
    19  C    0.010552  -0.050918  -0.119644   0.028352   0.025463   0.260130
    20  C    0.148551  -0.262930  -2.050667   0.012945  -0.098338  -0.243168
    21  N   -0.010618  -0.005713   0.118215  -0.001279   0.000604  -0.008477
    22  H    0.015197  -0.072885   0.047169  -0.003056  -0.002293  -0.004111
    23  C    0.636526  -0.121253  -3.785156   0.103523  -0.081824  -0.297621
    24  C   -0.109494  -0.208096   1.085305   0.016328   0.049859   0.065483
    25  N    6.715408   0.015257   0.029280   0.001554  -0.001392  -0.000237
    26  C    0.015257  10.928905  -2.482769  -0.421411  -0.038063   0.166208
    27  C    0.029280  -2.482769  15.798256  -0.094479  -0.014192   0.557631
    28  N    0.001554  -0.421411  -0.094479   7.397326   0.011414  -0.158541
    29  S   -0.001392  -0.038063  -0.014192   0.011414  15.614171  -0.141635
[...]
 -0.00000243,-0.00000097,0.00001420,0.00000303,-0.00002422,0.00001677,0
 .00000154,0.00028373,-0.00029687,0.00037385,-0.00091178,0.00051392,0.0
 0064048,0.00003445,0.00019331,-0.00028284,0.00090923,-0.00034627,-0.00
 056882,-0.07552648,0.09891072,0.00041653,0.00035403,-0.00002002,-0.000
 06260,-0.00008237,0.00000137,-0.00008603,-0.00012137,-0.00002430,-0.00
 028273,-0.00050545,-0.00001424,0.00026576,0.00067747,0.00026150,0.0004
 8621,0.00061168,-0.00031887,-0.00032127,0.00005363,0.00010403,0.000046
 32,0.00000252,0.00002923,-0.00031423,-0.00017451,0.00011507,-0.0013253
 3,-0.00021614,-0.00127791,0.01327330,-0.00715305,-0.00364269,0.0037627
 5,0.00355043,0.00272274,-0.00057006,0.00014681,-0.00016355,0.00370717,
 0.00190096,0.00725868,-0.00503172,-0.00350277,0.00076109,0.13142236,-0
 .04909386,-0.14708355,-0.00004007,0.00003419,-0.00000592,-0.00000146,-
 0.00002734,-0.00001983,0.00001500,0.00001215,-0.00000163,-0.00004975,-
 0.00003773,0.00001404,0.00000023,0.00001029,-0.00000498,0.00001394,0.0
 0000410,-0.00000120,0.00006282,0.00002401,-0.00001604,-0.00002995,0.00
 000798,0.00000846,0.00000974,0.00001404,-0.00000377,-0.00000568,-0.000
 01570,0.00000266,-0.00000896,0.00000138,0.00000347,-0.00001117,-0.0000
 0104,0.00000154,0.00001200,-0.00000430,-0.00000164,-0.00000543,0.00000
 271,0.00000145,-0.00000127,-0.00001196,-0.00000286,-0.00000292,-0.0000
 1363,0.00004096,-0.00069670,0.00000246,-0.00055900,0.00043614,-0.00046
 701,-0.00054554,-0.00078007,-0.00015996,-0.00108014,0.00018192,0.00008
 184,0.00027967,-0.14449296,0.05408928,0.14316894,0.00033800,-0.0006984
 0,-0.00018975,-0.00006424,0.00004132,0.00010140,-0.00012286,0.00002867
 ,0.00000387,-0.00017728,0.00002184,-0.00003194,0.00000095,0.00002820,0
 .00001909,0.00015084,0.00014605,-0.00012945,0.00003810,-0.00014356,0.0
 0002494,-0.00077136,-0.00042305,-0.00087281,-0.00004746,0.00017324,-0.
 00003301,-0.00004756,-0.00005509,-0.00002034,0.00002730,0.00003114,0.0
 0004756,-0.00000282,-0.00000412,0.00000494,-0.00000123,0.00000013,-0.0
 0000370,-0.00000076,-0.00000081,0.00000304,-0.00000287,-0.00000487,-0.
 00001413,-0.00000423,-0.00000499,0.00000894,-0.00525103,-0.00281230,0.
 00133792,-0.31270267,0.01853894,0.11079865,-0.00876795,0.00534990,0.00
 431304,-0.00070854,-0.00261618,0.00138913,0.00074176,0.00116756,0.0016
 9010,0.00004978,-0.00037789,0.00058062,0.00001111,0.00057787,0.0005208
 3,-0.00017935,-0.00019279,0.00001351,-0.00005595,0.00004725,-0.0001026
 9,-0.00002957,-0.00000598,-0.00000759,-0.00001069,-0.00002375,-0.00000
 414,-0.00005501,-0.00001882,0.00000094,0.00001646,-0.00002971,0.000004
 08,0.00003096,-0.00002649,0.00000299,0.00000866,0.00006270,-0.00001665
 ,0.00000115,-0.00004252,-0.00001137,-0.00000223,-0.00000283,0.00000229
 ,0.00000030,-0.00000101,-0.00000131,0.00000080,-0.00000128,-0.00000010
 ,0.00000167,-0.00000048,0.00000114,0.00000485,0.00000223,0.00000133,0.
 32746714,-0.00080520,-0.00100265,-0.00100674,0.00011412,0.00006374,0.0
 0016125,0.00016413,0.00016697,0.00014323,-0.00007566,-0.00000448,0.000
 16176,0.00010106,0.00008943,-0.00000313,-0.00018090,-0.00022742,0.0001
 9070,-0.00009973,0.00002850,-0.00003993,0.00012315,0.00107262,0.000584
 74,-0.00006488,0.00005521,0.00009690,-0.00002488,0.00017427,-0.0000002
 7,-0.00001971,-0.00007061,-0.00003681,0.00000267,0.00001742,-0.0000043
 9,0.00000303,0.00000645,-0.00000442,-0.00000686,0.00000505,0.00000569,
 0.00000375,0.00001821,0.00000185,0.00000638,0.00001042,-0.00001166,0.0
 2265806,0.00566266,-0.00773769,0.01654347,-0.05913536,-0.01059571,-0.0
 1995606,0.00930413,0.00883078,-0.00366081,-0.00450506,-0.00011441,0.00
 249499,-0.00514312,-0.00244233,0.00111515,0.00081646,-0.00038993,-0.00
 067088,0.00127058,0.00015012,-0.00022620,-0.00043947,0.00012633,-0.000
 10705,0.00010462,0.00003419,-0.00002272,0.00004099,0.00001116,0.000008
 25,-0.00001973,-0.00001818,-0.00002297,-0.00000314,0.00000940,-0.00000
 208,-0.00005610,0.00000259,0.00006442,-0.00000205,-0.00003191,0.000082
 17,0.00012353,-0.00002191,0.00000366,0.00005625,0.00001118,-0.00000975
 ,0.00002641,-0.00004042,0.00000259,-0.00000416,-0.00000322,-0.00000355
 ,0.00000433,0.00000221,-0.00000248,0.00000436,-0.00000047,-0.00000324,
 -0.00000388,0.00000913,-0.01868118,0.05102407,-0.00061315,-0.00154931,
 0.00042707,0.00008590,0.00021632,-0.00011375,0.00030994,0.00036073,-0.
 00009081,-0.00007850,0.00001107,-0.00018242,0.00016441,0.00012289,0.00
 002436,-0.00018417,-0.00003178,-0.00027039,0.00016292,-0.00000931,0.00
 013176,-0.00089263,0.00002516,-0.00219264,-0.00019235,0.00018316,-0.00
 007066,-0.00002847,0.00001731,-0.00004670,-0.00002645,0.00000574,0.000
 13457,0.00000945,0.00001974,-0.00000819,-0.00000555,0.00000733,-0.0000
 0553,-0.00000412,-0.00000197,0.00000580,-0.00001296,0.00000402,-0.0000
 2102,-0.00000173,-0.00002210,0.00000699,0.00453771,0.00309622,-0.00194
 704,0.11237333,-0.01149819,-0.07182573,-0.00083970,-0.00097924,0.00064
 209,0.00138225,-0.00131139,0.00343331,0.00212759,-0.00084204,0.0030343
 9,0.00065043,-0.00024799,0.00200945,0.00029814,-0.00015060,0.00113824,
 -0.00003415,-0.00002743,-0.00016028,0.00003280,0.00007569,-0.00024643,
 0.00000426,-0.00005813,-0.00002384,-0.00003579,0.00002350,-0.00001624,
 0.00002020,0.00000246,-0.00002550,0.00001132,0.00000650,0.00000838,0.0
 0000718,0.00002604,0.00000472,-0.00000588,-0.00003539,-0.00001521,0.00
 001441,0.00007852,0.00000714,-0.00004336,0.00002618,0.00004320,0.00000
 505,-0.00000349,-0.00000009,-0.00000025,0.00000312,0.00000175,0.000001
 98,0.00000195,0.00000244,0.00000600,-0.00000035,0.00001312,-0.11844181
 ,0.01196351,0.06833742,0.00014092,-0.00015967,-0.00001474,-0.00002210,
 0.00004199,-0.00000627,-0.00001759,0.00005134,0.00001674,-0.00005141,0
 .00002668,-0.00000062,0.00003972,0.00000659,0.00000757,0.00002047,0.00
 000269,0.00000976,0.00003348,0.00005830,0.00000882,0.00098464,-0.00047
 467,-0.00000457,-0.00015614,-0.00023532,-0.00003698,0.00007764,-0.0001
 7133,-0.00006925,-0.00004519,-0.00000084,0.00001116,-0.00000352,-0.000
 00942,0.00000283,-0.00000027,0.00000363,-0.00000158,-0.00000291,-0.000
 00372,0.00000171,-0.00000256,-0.00000755,0.00000410,0.00001085,-0.0000
 1119,-0.00000945,-0.00321001,-0.00371768,0.00207610,0.00938322,-0.0183
 2884,-0.00587891,-0.06258242,0.04354194,0.01717470,0.00323093,0.024019
 40,0.00270041,-0.00477007,0.00247854,0.00361418,0.00087944,0.00125802,
 0.00048656,0.00107098,-0.00014086,-0.00125248,-0.00045474,0.00011581,-
 0.00001639,0.00022506,0.00000184,0.00003776,-0.00012681,-0.00005699,0.
 00004638,-0.00007813,0.00019124,0.00012910,0.00083176,0.00016467,-0.00
 014687,-0.00009069,-0.00122246,-0.00005263,-0.00082969,-0.00017613,0.0
 0001816,-0.00105730,0.00057634,0.00028993,-0.00000065,-0.00000134,-0.0
 0000032,-0.00000641,0.00000182,-0.00000133,0.00000049,0.00000218,0.000
 00305,0.00000072,-0.00000066,0.00000026,0.00000072,-0.00000021,0.00000
 028,-0.00000035,0.00000042,0.00000206,0.00008176,0.00119304,-0.0007812
 0,0.05639297,0.00009648,-0.00008328,-0.00002094,-0.00001480,0.00002564
 ,-0.00000081,-0.00001584,0.00002398,0.00001021,-0.00003580,0.00001420,
 0.00000375,0.00002857,0.00000111,0.00000598,0.00000034,-0.00002745,-0.
 00000473,-0.00000136,0.00000534,0.00001565,0.00040573,-0.00018828,-0.0
 0021821,-0.00011042,-0.00006815,-0.00005780,0.00002836,-0.00005786,0.0
 0002122,-0.00002650,0.00000874,0.00001969,-0.00000047,-0.00000027,0.00
 000348,-0.00000239,-0.00000174,0.00000027,0.00000077,-0.00000109,-0.00
 000024,-0.00000399,-0.00000820,0.00000409,0.00001005,-0.00000994,-0.00
 001165,-0.00234278,-0.00144100,0.00003168,0.00606999,-0.00924859,-0.00
 382629,0.04845130,-0.34329901,-0.06588787,-0.00204318,-0.00317408,0.00
 027527,0.00013985,0.00136664,-0.00069117,-0.00018014,0.00012062,-0.000
 07619,0.00047989,-0.00006479,0.00015236,0.00000868,-0.00000560,0.00002
 358,0.00003963,-0.00009281,-0.00003098,-0.00008488,0.00005445,0.000027
 84,0.00011300,-0.00002179,-0.00003682,0.00004873,-0.00008388,-0.000023
 76,-0.00058281,-0.00072067,0.00018805,-0.00169722,-0.00262672,0.000819
 87,0.00014630,0.00082640,-0.00010121,-0.00000153,-0.00000039,-0.000001
 08,-0.00000553,-0.00000041,-0.00000288,-0.00000149,0.00000161,0.000001
 69,0.00000058,-0.00000140,-0.00000036,0.00000051,-0.00000091,0.0000000
 1,-0.00000005,0.00000142,-0.00000010,-0.00004568,0.00039935,0.00042794
 ,-0.04890182,0.35840870,-0.00001555,-0.00001793,0.00011202,0.00001633,
 0.00000769,-0.00002499,0.00000746,-0.00000165,-0.00002391,-0.00000879,
 -0.00000074,-0.00003346,-0.00001484,0.00001554,-0.00000980,-0.00002358
 ,0.00001157,0.00001765,0.00008291,0.00000439,-0.00006132,-0.00003653,-
 0.00018670,0.00096095,-0.00014542,0.00005538,-0.00004452,0.00011213,0.
 00002922,-0.00006323,-0.00001786,-0.00001204,-0.00005244,-0.00000321,-
 0.00001034,-0.00000282,0.00000164,0.00000499,0.00000225,-0.00000384,-0
 .00000383,0.00000222,0.00000787,-0.00000143,-0.00000035,-0.00000121,0.
 00000620,0.00000501,0.00281130,0.00051496,0.00340775,-0.00172827,0.004
 88205,0.00242807,0.01810098,-0.06349437,-0.04629687,-0.00211468,-0.008
 70282,-0.00066652,0.00257451,-0.00217016,0.00263613,0.00052681,-0.0005
 4018,0.00206038,-0.00098414,0.00053390,-0.00230586,-0.00013539,0.00002
 102,-0.00006517,0.00006285,0.00017614,0.00020194,0.00011471,-0.0000965
 3,-0.00001526,-0.00005218,-0.00006645,0.00028715,-0.00057480,-0.000120
 45,0.00010627,0.00008749,0.00072831,0.00001207,0.00015035,-0.00024771,
 -0.00054984,0.00065680,-0.00034877,0.00001048,-0.00000055,-0.00000163,
 0.00000374,-0.00000124,-0.00000081,0.00000912,0.00000028,0.00000128,0.
 00000097,0.00000069,-0.00000032,-0.00000012,-0.00000048,-0.00000033,-0
 .00000047,0.00000017,-0.00000036,0.00000030,-0.00106277,0.00002569,-0.
 00230071,-0.01832663,0.06894849,0.04035855,-0.00009963,-0.00000550,-0.
 00000714,0.00001937,-0.00000179,0.00000333,0.00002169,-0.00000024,-0.0
 0000054,0.00002653,-0.00000036,0.00000227,-0.00001935,-0.00000221,-0.0
 0000007,0.00002005,0.00001924,-0.00000110,0.00005299,0.00005179,-0.000
 01567,0.00000936,-0.00010502,0.00001908,0.00001113,0.00001649,0.000020
 71,-0.00000279,0.00000465,-0.00001276,0.00001990,-0.00005263,-0.000000
 91,-0.00000277,0.00001128,-0.00000582,0.00000508,0.00000416,-0.0000088
 5,-0.00000459,0.00000867,0.00000330,-0.00000049,0.00001553,-0.00000166
 ,-0.00000590,0.00001334,0.00000278,-0.00084845,-0.00016357,0.00029035,
 0.00013223,-0.00043848,-0.00013086,0.00051650,-0.00011341,-0.00016595,
 0.00025699,0.00107355,-0.00083746,-0.00055360,-0.00052660,-0.00005882,
 -0.00257935,-0.00111310,-0.00012527,0.00462239,0.02525518,-0.00109764,
 -0.05160301,0.01153996,0.00258816,-0.00906157,-0.03693959,0.00397497,-
 0.00331607,-0.00330397,0.00249593,-0.00093592,0.00005703,0.00017123,0.
 00039199,-0.00022261,-0.00014772,-0.00017168,0.00040482,-0.00031442,0.
 00044421,0.00138647,0.00007728,-0.00394221,0.00123851,0.00280517,0.000
 00418,0.00000597,-0.00000020,0.00000412,0.00000609,0.00000129,0.000009
 62,-0.00000682,-0.00000115,-0.00000160,0.00000667,0.00000410,-0.000000
 88,0.00000390,0.00000013,-0.00000205,-0.00000341,0.00000435,0.00002722
 ,-0.00003761,0.00000032,0.00008589,0.00001022,-0.00003075,0.06645005,0
 .00005064,-0.00001148,0.00000527,-0.00001169,0.00000311,-0.00000244,-0
 .00001275,0.00000288,0.00000072,-0.00002761,0.00000497,-0.00000196,0.0
 0001578,0.00001104,0.00000039,-0.00004936,-0.00000237,-0.00001333,-0.0
 0001807,-0.00002532,0.00000623,0.00002894,-0.00002540,0.00001823,-0.00
 002678,0.00001536,-0.00001383,0.00006108,0.00005743,0.00000953,-0.0000
 1894,0.00000833,0.00000464,0.00000393,0.00000479,-0.00000409,-0.000006
 92,-0.00000525,0.00000559,0.00000505,0.00000405,-0.00000377,-0.0000048
 6,-0.00001236,0.00000507,0.00000562,-0.00000112,-0.00000462,0.00089972
 ,0.00077864,-0.00034202,-0.00035067,0.00034675,0.00016443,-0.00022404,
 0.00020128,0.00003140,-0.00067074,-0.00173068,-0.00013140,-0.00224868,
 -0.00016779,0.00002384,-0.00008821,0.00115859,0.00044113,-0.00131751,-
 0.01354240,0.00135517,0.01026240,-0.33060109,0.01599916,-0.01093646,-0
 .01349089,0.00307541,-0.00110941,0.00200679,0.00069332,0.00020461,0.00
 022117,-0.00003809,-0.00013085,0.00004944,0.00003016,0.00027482,-0.000
 28973,-0.00016936,-0.00004710,-0.00075153,0.00006739,0.00273996,0.0005
 7099,-0.00012656,-0.00000312,-0.00000378,-0.00000013,-0.00000261,-0.00
 000376,-0.00000028,-0.00000270,0.00000313,0.00000416,0.00000180,0.0000
 0015,-0.00000087,0.00000028,-0.00000298,0.,0.00000094,0.00000148,-0.00
 000141,0.00000589,0.00007799,0.00005519,-0.00009123,-0.00001672,0.0000
 5047,0.00280545,0.35559409,0.00000682,0.00000668,0.00002427,-0.0000004
 1,-0.00000074,-0.00000654,0.00000275,0.00000032,-0.00000584,-0.0000033
 2,-0.00000075,-0.00000847,-0.00000064,0.00000102,0.00000793,-0.0000185
 8,0.00000366,-0.00000087,-0.00000461,-0.00001065,-0.00002657,0.0000354
 7,-0.00000052,0.00012788,0.00003982,-0.00003005,0.00003330,0.00002953,
 0.00002761,-0.00002677,-0.00000688,0.00000466,-0.00001680,-0.00001058,
 -0.00001199,0.00001115,0.00000037,0.00000597,-0.00000613,-0.00000262,-
 0.00000118,0.00000348,0.00000333,-0.00000055,-0.00000674,0.00000122,-0
 .00000103,0.00000332,-0.00011629,0.00010394,-0.00036124,-0.00014265,-0
 .00017837,-0.00015177,0.00033232,0.00003472,-0.00017783,-0.00133716,-0
 .00047894,-0.00240764,-0.00010825,0.00042306,-0.00006202,-0.00005660,-
 0.00031668,0.00120330,0.00097796,-0.00560694,0.00555062,0.00273520,0.0
 1752961,-0.03982124,0.00224341,0.00907104,-0.00244547,0.00221038,0.001
 22361,0.00565540,0.00029837,-0.00019580,-0.00035597,-0.00019308,0.0001
 8434,-0.00016753,-0.00022913,-0.00014520,-0.00129252,0.00005782,-0.000
 25411,0.00086158,0.00270792,-0.00037049,0.00688404,-0.00000068,-0.0000
 0062,-0.00000030,-0.00000131,-0.00000121,0.00000217,0.00000133,-0.0000
 0037,0.00000518,0.00000138,-0.00000256,0.00000176,0.00000104,0.0000005
 0,0.00000041,0.00000251,0.00000014,-0.00000037,0.00004786,-0.00001620,
 0.00010371,-0.00000246,0.00000905,-0.00002823,-0.00962671,-0.02124744,
 0.02638645,-0.00002087,0.00000602,0.00000116,0.00000273,-0.00000305,0.
 00000053,0.00000473,-0.00000184,-0.00000073,0.00000325,-0.00000245,-0.
 00000122,-0.00000630,0.00000140,-0.00000046,-0.00001465,0.00001611,-0.
 00000980,-0.00000722,-0.00001154,0.00000617,0.00001878,0.00000131,0.00
 001116,-0.00000078,-0.00000641,-0.00000303,0.00002245,0.00001683,0.000
 00152,-0.00000038,-0.00000743,0.00000209,0.00000170,0.00000351,-0.0000
 0112,-0.00000030,0.00000017,-0.00000096,-0.00000005,0.00000191,0.00000
 008,-0.00000035,0.00000176,0.00000085,-0.00000163,0.00000110,0.0000000
 5,0.00015422,-0.00007611,-0.00008886,0.00003330,0.00017028,0.00005699,
 -0.00021167,-0.00001254,0.00001453,0.00024202,-0.00000605,-0.00052061,
 -0.00011419,-0.00013808,0.00005787,0.00002059,-0.00000056,0.00001334,-
 0.00058475,0.00045695,0.00005907,0.00379705,0.00139953,0.00198251,0.00
 295368,-0.00845617,-0.00213942,-0.29173536,-0.08186344,0.06734153,-0.0
 1616774,-0.01003841,0.00598757,0.00155835,-0.00069242,-0.00074317,-0.0
 0111520,0.00028611,0.00009574,-0.00103406,0.00036492,0.00031156,0.0001
 9014,0.00320013,0.00096528,0.00000041,0.00000092,0.00000021,0.00000035
 ,0.00000031,0.00000083,0.00000040,-0.00000069,0.00000003,-0.00000001,0
 .00000097,0.00000064,-0.00000027,0.00000032,-0.00000008,-0.00000028,-0
 .00000058,0.00000045,0.00000686,0.00000033,0.00001666,0.00001733,0.000
 01966,-0.00003257,0.00002042,0.00003340,0.00012516,0.30196728,0.000056
 96,-0.00000792,0.00000477,-0.00001000,0.00000384,-0.00000271,-0.000011
 29,0.00000295,0.00000031,-0.00001425,0.00000268,-0.00000079,0.00001233
 ,-0.00000002,-0.00000026,-0.00000006,-0.00000722,0.00000895,-0.0000340
 6,-0.00001412,-0.00000673,0.00000751,0.00004981,0.00000129,0.00000149,
 -0.00000143,-0.00000171,-0.00000762,-0.00001364,0.00000062,-0.00000795
 ,0.00002185,-0.00000352,0.00000113,-0.00000497,0.00000023,-0.00000395,
 -0.00000203,0.00000372,0.00000269,-0.00000256,-0.00000165,-0.00000150,
 -0.00000815,0.00000028,0.00000341,-0.00000408,-0.00000087,-0.00001804,
 0.00003538,0.00001435,-0.00007265,-0.00003254,0.00001802,-0.00000225,-
 0.00004810,-0.00001348,-0.00028035,0.00015454,0.00001182,-0.00001263,0
 .00011470,-0.00000860,0.00009319,0.00006505,0.00002395,-0.00021659,-0.
 00075841,0.00006563,-0.00072776,-0.00315665,0.00072498,-0.03266822,-0.
 02129103,0.00873598,-0.08076805,-0.08282829,0.02197857,0.01844616,0.01
 026913,-0.00477249,-0.00130783,0.00190139,0.00022934,0.00006174,0.0003
 6857,-0.00004564,0.00175402,-0.00014578,-0.00040847,0.00132864,-0.0034
 7144,-0.00015012,-0.00000221,-0.00000328,0.00000005,-0.00000154,-0.000
 00264,-0.00000058,-0.00000146,0.00000283,0.00000228,0.00000136,-0.0000
 0179,-0.00000111,0.00000064,-0.00000203,0.00000037,0.00000095,0.000001
 59,-0.00000142,-0.00000914,-0.00000676,0.00000842,-0.00002458,-0.00001
 316,0.00000825,-0.00090205,-0.00043779,0.00024245,0.09533379,0.0992715
 3,0.00003075,-0.00001588,0.00000932,-0.00000575,0.00000380,-0.00000340
 ,-0.00000286,0.00000558,-0.00000041,-0.00000613,0.00000212,-0.00000305
 ,0.00000662,-0.00000142,-0.00000005,0.00000675,0.00000169,-0.00000052,
 -0.00002244,-0.00000529,-0.00000615,0.00001274,0.00003794,0.00001327,0
 .00000567,0.00000174,0.00000413,-0.00001123,-0.00002155,-0.00000357,-0
 .00000206,0.00001256,-0.00000251,-0.00000079,-0.00000460,0.00000190,-0
 .00000117,0.00000047,0.00000021,0.00000021,-0.00000248,-0.00000032,-0.
 00000043,-0.00000202,-0.00000225,0.00000099,-0.00000275,0.00000106,-0.
 00018707,-0.00000291,0.00002439,0.00006398,-0.00016839,0.00012017,0.00
 012704,0.00010472,-0.00020391,-0.00061432,-0.00021371,-0.00157817,0.00
 009219,0.00011567,0.00004692,-0.00002725,-0.00003048,0.00002468,0.0003
 0466,-0.00005855,-0.00037278,0.00208377,0.00022407,0.01138485,-0.00140
 988,0.00286023,-0.00643319,0.06729738,0.02205783,-0.05425635,0.0051815
 1,0.00250669,0.00492420,-0.00074874,0.00001530,-0.00130500,0.00011097,
 -0.00011292,-0.00068700,0.00028417,0.00003479,0.00022249,0.00082855,-0
 .00073023,0.00400942,-0.00000089,-0.00000137,0.00000043,-0.00000081,-0
 .00000095,0.00000084,-0.00000012,0.00000086,0.00000104,0.00000088,-0.0
 0000121,0.00000018,0.00000061,-0.00000048,0.00000051,0.00000087,0.0000
 0063,-0.00000025,0.00002536,-0.00000269,0.00005328,-0.00003891,0.00000
 293,-0.00007716,0.00012671,0.00005474,0.00051092,-0.07351154,-0.026664
 48,0.04358180\\0.00000178,-0.00000018,0.00001498,0.00000519,0.00000152
 ,0.00000097,-0.00000461,0.00000402,-0.00000326,-0.00000402,0.00001332,
 0.00000002,-0.00000747,-0.00000574,-0.00000022,0.00001203,0.00001614,-
 0.00000223,-0.00000614,-0.00001439,-0.00001501,0.00000745,0.00000059,0
 .00001510,-0.00000172,0.00000761,-0.00000137,0.00000204,-0.00000089,0.
 00000672,0.00000345,-0.00000654,-0.00000358,-0.00000593,0.00000181,0.0
 0000079,0.00000032,-0.00000152,0.00000320,-0.00000654,0.00000272,-0.00
 000277,0.00000215,-0.00000260,0.00000341,-0.00000372,0.00000530,-0.000
 00167,-0.00000294,-0.00001664,0.00000281,0.00000254,0.00000565,-0.0000
 0835,0.00000453,-0.00000465,0.00001192,0.00000198,0.,-0.00001456,-0.00
 000638,0.00000656,0.00000781,0.00000215,-0.00000035,-0.00000767,0.0000
 0057,0.00000720,0.00000647,0.00000099,-0.00000472,0.00000519,0.0000009
 5,-0.00000253,-0.00000307,0.00000261,0.00000798,-0.00000856,-0.0000006
 5,-0.00000980,-0.00001576,0.00000187,0.00000968,0.00001448,0.00000531,
 -0.00001629,-0.00001048,-0.00000573,0.00000704,0.00000174,0.00000482,-
 0.00000734,0.00000494,0.00000028,-0.00000538,0.00000496,0.00000003,0.0
 0000233,0.00000144,-0.00000107,0.00000090,-0.00000028,-0.00000384,0.00
 000025,-0.00000246,0.00000072,0.00000060,0.00000257,-0.00000127,0.0000
 0093,-0.00000031,-0.00000211,-0.00000327,-0.00000444,0.00000472,0.0000
 0433,-0.00000030,-0.00000435,-0.00000295,-0.00000397,0.00000002,-0.000
 00065,0.00000079\\\@


 IF I HAVE SEEN FARTHER, IT IS BY STANDING ON THE
 SHOULDERS OF GIANTS. -- SIR ISAAC NEWTON
 Job cpu time:  0 days 20 hours 31 minutes 15.1 seconds.
 File lengths (MBytes):  RWF=   1668 Int=      0 D2E=      0 Chk=     29 Scr=      1
 Normal termination of Gaussian 09 at Sun Dec 29 08:40:33 2013.
