 Entering Gaussian System, Link 0=g09
 Initial command:
 /opt/gaussian/g09/l1.exe /panfs/panfs.cluster/home/shuo/Gau-30474.inp -scrdir=/panfs/panfs.cluster/home/shuo/
 Default is to use a total of  12 processors:
                               12 via shared-memory
                                1 via Linda
 Entering Link 1 = /opt/gaussian/g09/l1.exe PID=     30475.
  
 Copyright (c) 1988,1990,1992,1993,1995,1998,2003,2009,2011,
            Gaussian, Inc.  All Rights Reserved.
  
 This is part of the Gaussian(R) 09 program.  It is based on
 the Gaussian(R) 03 system (copyright 2003, Gaussian, Inc.),
 the Gaussian(R) 98 system (copyright 1998, Gaussian, Inc.),
 the Gaussian(R) 94 system (copyright 1995, Gaussian, Inc.),
 the Gaussian 92(TM) system (copyright 1992, Gaussian, Inc.),
 the Gaussian 90(TM) system (copyright 1990, Gaussian, Inc.),
 the Gaussian 88(TM) system (copyright 1988, Gaussian, Inc.),
 the Gaussian 86(TM) system (copyright 1986, Carnegie Mellon
 University), and the Gaussian 82(TM) system (copyright 1983,
 Carnegie Mellon University). Gaussian is a federally registered
 trademark of Gaussian, Inc.
  
 This software contains proprietary and confidential information,
 including trade secrets, belonging to Gaussian, Inc.
  
 This software is provided under written license and may be
 used, copied, transmitted, or stored only in accord with that
 written license.
  
 The following legend is applicable only to US Government
 contracts under FAR:
  
                    RESTRICTED RIGHTS LEGEND
  
 Use, reproduction and disclosure by the US Government is
 subject to restrictions as set forth in subparagraphs (a)
 and (c) of the Commercial Computer Software - Restricted
 Rights clause in FAR 52.227-19.
  
 Gaussian, Inc.
 340 Quinnipiac St., Bldg. 40, Wallingford CT 06492
  
  
 ---------------------------------------------------------------
 Warning -- This program may not be used in any manner that
 competes with the business of Gaussian, Inc. or will provide
 assistance to any competitor of Gaussian, Inc.  The licensee
 of this program is prohibited from giving any competitor of
 Gaussian, Inc. access to this program.  By using this program,
 the user acknowledges that Gaussian, Inc. is engaged in the
 business of creating and licensing software in the field of
 computational chemistry and represents and warrants to the
 licensee that it is not a competitor of Gaussian, Inc. and that
 it will not use this program in any manner prohibited above.
 ---------------------------------------------------------------
  

 Cite this work as:
 Gaussian 09, Revision C.01,
 M. J. Frisch, G. W. Trucks, H. B. Schlegel, G. E. Scuseria, 
 M. A. Robb, J. R. Cheeseman, G. Scalmani, V. Barone, B. Mennucci, 
 G. A. Petersson, H. Nakatsuji, M. Caricato, X. Li, H. P. Hratchian, 
 A. F. Izmaylov, J. Bloino, G. Zheng, J. L. Sonnenberg, M. Hada, 
 M. Ehara, K. Toyota, R. Fukuda, J. Hasegawa, M. Ishida, T. Nakajima, 
 Y. Honda, O. Kitao, H. Nakai, T. Vreven, J. A. Montgomery, Jr., 
 J. E. Peralta, F. Ogliaro, M. Bearpark, J. J. Heyd, E. Brothers, 
 K. N. Kudin, V. N. Staroverov, T. Keith, R. Kobayashi, J. Normand, 
 K. Raghavachari, A. Rendell, J. C. Burant, S. S. Iyengar, J. Tomasi, 
 M. Cossi, N. Rega, J. M. Millam, M. Klene, J. E. Knox, J. B. Cross, 
 V. Bakken, C. Adamo, J. Jaramillo, R. Gomperts, R. E. Stratmann, 
 O. Yazyev, A. J. Austin, R. Cammi, C. Pomelli, J. W. Ochterski, 
 R. L. Martin, K. Morokuma, V. G. Zakrzewski, G. A. Voth, 
 P. Salvador, J. J. Dannenberg, S. Dapprich, A. D. Daniels, 
 O. Farkas, J. B. Foresman, J. V. Ortiz, J. Cioslowski, 
 and D. J. Fox, Gaussian, Inc., Wallingford CT, 2010.
 
 ******************************************
 Gaussian 09:  EM64L-G09RevC.01 23-Sep-2011
                30-Dec-2013 
 ******************************************
 %chk=93_C19H10N4S3Se.chk
 %NProcShared=12
 Will use up to   12 processors via shared memory.
 %Mem=8000MB
 Default route:  MaxDisk=100GB
 --------------------------------------------
 #B3LYP/6-31++G(d,p) opt scf=direct freq test
 --------------------------------------------
 1/14=-1,18=20,19=15,26=3,38=1/1,3;
 2/9=110,12=2,17=6,18=5,40=1/2;
 3/5=1,6=6,7=1111,11=2,16=1,25=1,30=1,71=1,74=-5/1,2,3;
 4//1;
 5/5=2,38=5/2;
 6/7=2,8=2,9=2,10=2,28=1/1;
 7//1,2,3,16;
 1/14=-1,18=20,19=15/3(2);
 2/9=110/2;
 99//99;
 2/9=110/2;
 3/5=1,6=6,7=1111,11=2,16=1,25=1,30=1,71=1,74=-5/1,2,3;
 4/5=5,16=3/1;
 5/5=2,38=5/2;
 7//1,2,3,16;
 1/14=-1,18=20,19=15/3(-5);
 2/9=110/2;
 6/7=2,8=2,9=2,10=2,19=2,28=1/1;
 99/9=1/99;
 ----------------------------------------------------------------------
 Geom opt of No.93 candidate from the CEPDB database with SMILE code of
  c1cc2c3c[nH]cc3c3c4oc(cc4ncc3c2[Se]1)-c1cncc2nsnc12, HPC, 20131227, S
 huo Dai, Gaussian09
 ----------------------------------------------------------------------
 Charge =  0 Multiplicity = 1
 Symbolic Z-Matrix:
 C                     1.00646  -0.02334  -0.09702 
 C                     2.38966  -0.02334  -0.09702 
 C                     2.88366  -0.35014  -1.45551 
 C                     2.83708  -1.57531  -1.82601 
 C                     2.39556  -2.49121  -0.94873 
 N                     2.02873  -2.1257    0.24231 
 H                     1.69995  -2.80772   0.89556 
 C                     3.13876  -3.28262  -3.35982 
 C                     3.20219  -1.98255  -3.02931 
 C                     3.65768  -1.03049  -3.95571 
 C                     4.08754  -1.35051  -5.30976 
 O                     4.1875   -2.53468  -6.06507 
 C                     4.64368  -2.23495  -7.24888 
 C                     4.8621   -0.85431  -7.33004 
 C                     4.52048  -0.29342  -6.13002 
 N                     4.53434   0.95908  -5.67343 
 C                     4.15715   1.29247  -4.4648 
 C                     3.7049    0.32827  -3.55247 
 C                     3.28833   0.6328   -2.23954 
 Se                    0.35314   0.40887   1.69963 
 C                     4.88632  -3.18095  -8.31252 
 C                     4.65048  -4.49052  -8.07465 
 N                     4.72768  -5.42056  -9.06263 
 C                     5.03226  -5.07873  -10.3334 
 C                     5.2839   -3.72604  -10.64462 
 N                     5.60168  -3.05803  -11.75253 
 S                     5.72047  -1.77284  -11.45314 
 N                     5.4869   -1.5741   -10.17189 
 C                     5.20738  -2.75833  -9.60395 
 H                     0.41063  -0.22042  -0.91627 
 H                     2.98549   0.17374   0.72223 
 H                     2.34774  -3.4855   -1.22099 
 H                     3.27856  -4.03536  -4.05182 
 H                     5.2197   -0.34661  -8.15428 
 H                     4.19332   2.28322  -4.17821 
 H                     4.40558  -4.79178  -7.11846 
 H                     5.08042  -5.8003   -11.06963 
 

 GradGradGradGradGradGradGradGradGradGradGradGradGradGradGradGradGradGrad
 Berny optimization.
 Initialization pass.
                           ----------------------------
                           !    Initial Parameters    !
                           ! (Angstroms and Degrees)  !
 --------------------------                            --------------------------
 ! Name  Definition              Value          Derivative Info.                !
 --------------------------------------------------------------------------------
 ! R1    R(1,2)                  1.3832         estimate D2E/DX2                !
 ! R2    R(1,20)                 1.96           estimate D2E/DX2                !
 ! R3    R(1,30)                 1.032          estimate D2E/DX2                !
 ! R4    R(2,3)                  1.482          estimate D2E/DX2                !
 ! R5    R(2,31)                 1.032          estimate D2E/DX2                !
 ! R6    R(3,4)                  1.2808         estimate D2E/DX2                !
 ! R7    R(3,19)                 1.3208         estimate D2E/DX2                !
 ! R8    R(4,5)                  1.3429         estimate D2E/DX2                !
 ! R9    R(4,9)                  1.3218         estimate D2E/DX2                !
 ! R10   R(5,6)                  1.2987         estimate D2E/DX2                !
 ! R11   R(5,32)                 1.032          estimate D2E/DX2                !
 ! R12   R(6,7)                  1.0            estimate D2E/DX2                !
 ! R13   R(8,9)                  1.3429         estimate D2E/DX2                !
 ! R14   R(8,33)                 1.032          estimate D2E/DX2                !
 ! R15   R(9,10)                 1.4043         estimate D2E/DX2                !
 ! R16   R(10,11)                1.4562         estimate D2E/DX2                !
 ! R17   R(10,18)                1.4181         estimate D2E/DX2                !
 ! R18   R(11,12)                1.4081         estimate D2E/DX2                !
 ! R19   R(11,15)                1.4063         estimate D2E/DX2                !
 ! R20   R(12,13)                1.3036         estimate D2E/DX2                !
 ! R21   R(13,14)                1.4002         estimate D2E/DX2                !
 ! R22   R(13,21)                1.444          estimate D2E/DX2                !
 ! R23   R(14,15)                1.368          estimate D2E/DX2                !
 ! R24   R(14,34)                1.032          estimate D2E/DX2                !
 ! R25   R(15,16)                1.3332         estimate D2E/DX2                !
 ! R26   R(16,17)                1.3093         estimate D2E/DX2                !
 ! R27   R(17,18)                1.4023         estimate D2E/DX2                !
 ! R28   R(17,35)                1.032          estimate D2E/DX2                !
 ! R29   R(18,19)                1.4107         estimate D2E/DX2                !
 ! R30   R(21,22)                1.3517         estimate D2E/DX2                !
 ! R31   R(21,29)                1.3962         estimate D2E/DX2                !
 ! R32   R(22,23)                1.3591         estimate D2E/DX2                !
 ! R33   R(22,36)                1.032          estimate D2E/DX2                !
 ! R34   R(23,24)                1.3507         estimate D2E/DX2                !
 ! R35   R(24,25)                1.4107         estimate D2E/DX2                !
 ! R36   R(24,37)                1.032          estimate D2E/DX2                !
 ! R37   R(25,26)                1.3322         estimate D2E/DX2                !
 ! R38   R(25,27)                2.1585         estimate D2E/DX2                !
 ! R39   R(25,29)                1.4231         estimate D2E/DX2                !
 ! R40   R(26,27)                1.3249         estimate D2E/DX2                !
 ! R41   R(27,28)                1.3174         estimate D2E/DX2                !
 ! R42   R(27,29)                2.1573         estimate D2E/DX2                !
 ! R43   R(28,29)                1.3428         estimate D2E/DX2                !
 ! A1    A(2,1,20)             109.4709         estimate D2E/DX2                !
 ! A2    A(2,1,30)             125.2647         estimate D2E/DX2                !
 ! A3    A(20,1,30)            125.2645         estimate D2E/DX2                !
 ! A4    A(1,2,3)              109.4712         estimate D2E/DX2                !
 ! A5    A(1,2,31)             125.2647         estimate D2E/DX2                !
 ! A6    A(3,2,31)             125.2641         estimate D2E/DX2                !
 ! A7    A(2,3,4)              117.6437         estimate D2E/DX2                !
 ! A8    A(2,3,19)             118.825          estimate D2E/DX2                !
 ! A9    A(4,3,19)             123.455          estimate D2E/DX2                !
 ! A10   A(3,4,5)              118.3841         estimate D2E/DX2                !
 ! A11   A(3,4,9)              123.2308         estimate D2E/DX2                !
 ! A12   A(5,4,9)              118.3851         estimate D2E/DX2                !
 ! A13   A(4,5,6)              120.0005         estimate D2E/DX2                !
 ! A14   A(4,5,32)             119.9995         estimate D2E/DX2                !
 ! A15   A(6,5,32)             120.0001         estimate D2E/DX2                !
 ! A16   A(5,6,7)              120.0001         estimate D2E/DX2                !
 ! A17   A(9,8,33)             149.8546         estimate D2E/DX2                !
 ! A18   A(4,9,8)              120.6156         estimate D2E/DX2                !
 ! A19   A(4,9,10)             118.7683         estimate D2E/DX2                !
 ! A20   A(8,9,10)             120.6161         estimate D2E/DX2                !
 ! A21   A(9,10,11)            124.0658         estimate D2E/DX2                !
 ! A22   A(9,10,18)            118.2159         estimate D2E/DX2                !
 ! A23   A(11,10,18)           117.7182         estimate D2E/DX2                !
 ! A24   A(10,11,12)           134.7912         estimate D2E/DX2                !
 ! A25   A(10,11,15)           117.9064         estimate D2E/DX2                !
 ! A26   A(12,11,15)           107.3024         estimate D2E/DX2                !
 ! A27   A(11,12,13)           108.5781         estimate D2E/DX2                !
 ! A28   A(12,13,14)           109.5086         estimate D2E/DX2                !
 ! A29   A(12,13,21)           125.2458         estimate D2E/DX2                !
 ! A30   A(14,13,21)           125.2456         estimate D2E/DX2                !
 ! A31   A(13,14,15)           108.3302         estimate D2E/DX2                !
 ! A32   A(13,14,34)           125.8349         estimate D2E/DX2                !
 ! A33   A(15,14,34)           125.8349         estimate D2E/DX2                !
 ! A34   A(11,15,14)           106.2806         estimate D2E/DX2                !
 ! A35   A(11,15,16)           120.6386         estimate D2E/DX2                !
 ! A36   A(14,15,16)           133.0808         estimate D2E/DX2                !
 ! A37   A(15,16,17)           123.5303         estimate D2E/DX2                !
 ! A38   A(16,17,18)           121.2246         estimate D2E/DX2                !
 ! A39   A(16,17,35)           119.3877         estimate D2E/DX2                !
 ! A40   A(18,17,35)           119.3877         estimate D2E/DX2                !
 ! A41   A(10,18,17)           118.9819         estimate D2E/DX2                !
 ! A42   A(10,18,19)           117.4934         estimate D2E/DX2                !
 ! A43   A(17,18,19)           123.5247         estimate D2E/DX2                !
 ! A44   A(3,19,18)            118.8337         estimate D2E/DX2                !
 ! A45   A(13,21,22)           118.4085         estimate D2E/DX2                !
 ! A46   A(13,21,29)           121.4427         estimate D2E/DX2                !
 ! A47   A(22,21,29)           119.7442         estimate D2E/DX2                !
 ! A48   A(21,22,23)           121.678          estimate D2E/DX2                !
 ! A49   A(21,22,36)           119.1608         estimate D2E/DX2                !
 ! A50   A(23,22,36)           119.1611         estimate D2E/DX2                !
 ! A51   A(22,23,24)           121.5707         estimate D2E/DX2                !
 ! A52   A(23,24,25)           119.3706         estimate D2E/DX2                !
 ! A53   A(23,24,37)           120.3146         estimate D2E/DX2                !
 ! A54   A(25,24,37)           120.3148         estimate D2E/DX2                !
 ! A55   A(24,25,26)           134.9809         estimate D2E/DX2                !
 ! A56   A(24,25,29)           118.7587         estimate D2E/DX2                !
 ! A57   A(26,25,29)           106.2603         estimate D2E/DX2                !
 ! A58   A(25,27,28)            74.7142         estimate D2E/DX2                !
 ! A59   A(26,27,28)           110.4989         estimate D2E/DX2                !
 ! A60   A(26,27,29)            74.2915         estimate D2E/DX2                !
 ! A61   A(21,29,25)           118.8752         estimate D2E/DX2                !
 ! A62   A(21,29,28)           134.9116         estimate D2E/DX2                !
 ! A63   A(25,29,28)           106.2131         estimate D2E/DX2                !
 ! A64   L(24,25,27,1,-1)      189.2377         estimate D2E/DX2                !
 ! A65   L(21,29,27,24,-1)     189.6688         estimate D2E/DX2                !
 ! A66   L(24,25,27,1,-2)      182.0352         estimate D2E/DX2                !
 ! A67   L(21,29,27,24,-2)     180.0102         estimate D2E/DX2                !
 ! D1    D(20,1,2,3)          -179.9998         estimate D2E/DX2                !
 ! D2    D(20,1,2,31)            0.0002         estimate D2E/DX2                !
 ! D3    D(30,1,2,3)             0.0            estimate D2E/DX2                !
 ! D4    D(30,1,2,31)          180.0            estimate D2E/DX2                !
 ! D5    D(1,2,3,4)            -76.7782         estimate D2E/DX2                !
 ! D6    D(1,2,3,19)           100.157          estimate D2E/DX2                !
 ! D7    D(31,2,3,4)           103.2218         estimate D2E/DX2                !
 ! D8    D(31,2,3,19)          -79.843          estimate D2E/DX2                !
 ! D9    D(2,3,4,5)             -2.5534         estimate D2E/DX2                !
 ! D10   D(2,3,4,9)            177.4469         estimate D2E/DX2                !
 ! D11   D(19,3,4,5)          -179.335          estimate D2E/DX2                !
 ! D12   D(19,3,4,9)             0.6653         estimate D2E/DX2                !
 ! D13   D(2,3,19,18)         -177.3307         estimate D2E/DX2                !
 ! D14   D(4,3,19,18)           -0.5849         estimate D2E/DX2                !
 ! D15   D(3,4,5,6)              0.0006         estimate D2E/DX2                !
 ! D16   D(3,4,5,32)           179.9998         estimate D2E/DX2                !
 ! D17   D(9,4,5,6)           -179.9997         estimate D2E/DX2                !
 ! D18   D(9,4,5,32)            -0.0005         estimate D2E/DX2                !
 ! D19   D(3,4,9,8)            179.6262         estimate D2E/DX2                !
 ! D20   D(3,4,9,10)            -0.3728         estimate D2E/DX2                !
 ! D21   D(5,4,9,8)             -0.3735         estimate D2E/DX2                !
 ! D22   D(5,4,9,10)           179.6274         estimate D2E/DX2                !
 ! D23   D(4,5,6,7)            179.9995         estimate D2E/DX2                !
 ! D24   D(32,5,6,7)             0.0003         estimate D2E/DX2                !
 ! D25   D(33,8,9,4)          -179.8679         estimate D2E/DX2                !
 ! D26   D(33,8,9,10)            0.1311         estimate D2E/DX2                !
 ! D27   D(4,9,10,11)         -179.9982         estimate D2E/DX2                !
 ! D28   D(4,9,10,18)            0.049          estimate D2E/DX2                !
 ! D29   D(8,9,10,11)            0.0028         estimate D2E/DX2                !
 ! D30   D(8,9,10,18)         -179.95           estimate D2E/DX2                !
 ! D31   D(9,10,11,12)           0.0654         estimate D2E/DX2                !
 ! D32   D(9,10,11,15)        -179.9945         estimate D2E/DX2                !
 ! D33   D(18,10,11,12)       -179.9815         estimate D2E/DX2                !
 ! D34   D(18,10,11,15)         -0.0415         estimate D2E/DX2                !
 ! D35   D(9,10,18,17)        -179.9998         estimate D2E/DX2                !
 ! D36   D(9,10,18,19)           0.0003         estimate D2E/DX2                !
 ! D37   D(11,10,18,17)          0.0443         estimate D2E/DX2                !
 ! D38   D(11,10,18,19)       -179.9556         estimate D2E/DX2                !
 ! D39   D(10,11,12,13)        179.9909         estimate D2E/DX2                !
 ! D40   D(15,11,12,13)          0.0464         estimate D2E/DX2                !
 ! D41   D(10,11,15,14)       -179.9552         estimate D2E/DX2                !
 ! D42   D(10,11,15,16)          0.044          estimate D2E/DX2                !
 ! D43   D(12,11,15,14)          0.0003         estimate D2E/DX2                !
 ! D44   D(12,11,15,16)        179.9995         estimate D2E/DX2                !
 ! D45   D(11,12,13,14)         -0.0741         estimate D2E/DX2                !
 ! D46   D(11,12,13,21)        179.9263         estimate D2E/DX2                !
 ! D47   D(12,13,14,15)          0.0753         estimate D2E/DX2                !
 ! D48   D(12,13,14,34)       -179.9255         estimate D2E/DX2                !
 ! D49   D(21,13,14,15)       -179.9252         estimate D2E/DX2                !
 ! D50   D(21,13,14,34)          0.0741         estimate D2E/DX2                !
 ! D51   D(12,13,21,22)         -1.2511         estimate D2E/DX2                !
 ! D52   D(12,13,21,29)        171.4267         estimate D2E/DX2                !
 ! D53   D(14,13,21,22)        178.7494         estimate D2E/DX2                !
 ! D54   D(14,13,21,29)         -8.5728         estimate D2E/DX2                !
 ! D55   D(13,14,15,11)         -0.0436         estimate D2E/DX2                !
 ! D56   D(13,14,15,16)        179.9573         estimate D2E/DX2                !
 ! D57   D(34,14,15,11)        179.9571         estimate D2E/DX2                !
 ! D58   D(34,14,15,16)         -0.042          estimate D2E/DX2                !
 ! D59   D(11,15,16,17)         -0.0515         estimate D2E/DX2                !
 ! D60   D(14,15,16,17)        179.9475         estimate D2E/DX2                !
 ! D61   D(15,16,17,18)          0.0544         estimate D2E/DX2                !
 ! D62   D(15,16,17,35)       -179.9449         estimate D2E/DX2                !
 ! D63   D(16,17,18,10)         -0.0506         estimate D2E/DX2                !
 ! D64   D(16,17,18,19)        179.9494         estimate D2E/DX2                !
 ! D65   D(35,17,18,10)        179.9488         estimate D2E/DX2                !
 ! D66   D(35,17,18,19)         -0.0513         estimate D2E/DX2                !
 ! D67   D(10,18,19,3)           0.2478         estimate D2E/DX2                !
 ! D68   D(17,18,19,3)        -179.7521         estimate D2E/DX2                !
 ! D69   D(13,21,22,23)        173.3533         estimate D2E/DX2                !
 ! D70   D(13,21,22,36)         -6.6477         estimate D2E/DX2                !
 ! D71   D(29,21,22,23)          0.5476         estimate D2E/DX2                !
 ! D72   D(29,21,22,36)       -179.4535         estimate D2E/DX2                !
 ! D73   D(13,21,27,26)       -173.1937         estimate D2E/DX2                !
 ! D74   D(22,21,27,26)         -0.2329         estimate D2E/DX2                !
 ! D75   D(13,21,29,25)       -172.8266         estimate D2E/DX2                !
 ! D76   D(13,21,29,28)          7.1316         estimate D2E/DX2                !
 ! D77   D(22,21,29,25)         -0.2448         estimate D2E/DX2                !
 ! D78   D(22,21,29,28)        179.7134         estimate D2E/DX2                !
 ! D79   D(21,22,23,24)         -0.6089         estimate D2E/DX2                !
 ! D80   D(36,22,23,24)        179.3922         estimate D2E/DX2                !
 ! D81   D(22,23,24,25)          0.3478         estimate D2E/DX2                !
 ! D82   D(22,23,24,37)       -179.6524         estimate D2E/DX2                !
 ! D83   D(23,24,25,26)        179.9637         estimate D2E/DX2                !
 ! D84   D(23,24,25,29)         -0.0518         estimate D2E/DX2                !
 ! D85   D(37,24,25,26)         -0.0361         estimate D2E/DX2                !
 ! D86   D(37,24,25,29)        179.9484         estimate D2E/DX2                !
 ! D87   D(23,24,27,28)         -0.1036         estimate D2E/DX2                !
 ! D88   D(37,24,27,28)        179.9078         estimate D2E/DX2                !
 ! D89   D(24,25,29,21)          0.003          estimate D2E/DX2                !
 ! D90   D(24,25,29,28)       -179.9662         estimate D2E/DX2                !
 ! D91   D(26,25,29,21)        179.9916         estimate D2E/DX2                !
 ! D92   D(26,25,29,28)          0.0224         estimate D2E/DX2                !
 --------------------------------------------------------------------------------
 Trust Radius=3.00D-01 FncErr=1.00D-07 GrdErr=1.00D-06
 Number of steps in this run=    212 maximum allowed number of steps=    222.
 GradGradGradGradGradGradGradGradGradGradGradGradGradGradGradGradGradGrad

                          Input orientation:                          
 ---------------------------------------------------------------------
 Center     Atomic      Atomic             Coordinates (Angstroms)
 Number     Number       Type             X           Y           Z
 ---------------------------------------------------------------------
      1          6           0        1.006460   -0.023340   -0.097020
      2          6           0        2.389660   -0.023340   -0.097020
      3          6           0        2.883660   -0.350140   -1.455510
      4          6           0        2.837080   -1.575310   -1.826010
      5          6           0        2.395560   -2.491210   -0.948730
      6          7           0        2.028730   -2.125700    0.242310
      7          1           0        1.699950   -2.807720    0.895560
      8          6           0        3.138760   -3.282620   -3.359820
      9          6           0        3.202190   -1.982550   -3.029310
     10          6           0        3.657680   -1.030490   -3.955710
     11          6           0        4.087540   -1.350510   -5.309760
     12          8           0        4.187500   -2.534680   -6.065070
     13          6           0        4.643680   -2.234950   -7.248880
     14          6           0        4.862100   -0.854310   -7.330040
     15          6           0        4.520480   -0.293420   -6.130020
     16          7           0        4.534340    0.959080   -5.673430
     17          6           0        4.157150    1.292470   -4.464800
     18          6           0        3.704900    0.328270   -3.552470
     19          6           0        3.288330    0.632800   -2.239540
     20         34           0        0.353140    0.408870    1.699630
     21          6           0        4.886320   -3.180950   -8.312520
     22          6           0        4.650480   -4.490520   -8.074650
     23          7           0        4.727680   -5.420560   -9.062630
     24          6           0        5.032260   -5.078730  -10.333400
     25          6           0        5.283900   -3.726040  -10.644620
     26          7           0        5.601680   -3.058030  -11.752530
     27         16           0        5.720470   -1.772840  -11.453140
     28          7           0        5.486900   -1.574100  -10.171890
     29          6           0        5.207380   -2.758330   -9.603950
     30          1           0        0.410630   -0.220420   -0.916270
     31          1           0        2.985490    0.173740    0.722230
     32          1           0        2.347740   -3.485500   -1.220990
     33          1           0        3.278560   -4.035360   -4.051820
     34          1           0        5.219700   -0.346610   -8.154280
     35          1           0        4.193320    2.283220   -4.178210
     36          1           0        4.405580   -4.791780   -7.118460
     37          1           0        5.080420   -5.800300  -11.069630
 ---------------------------------------------------------------------
                    Distance matrix (angstroms):
                    1          2          3          4          5
     1  C    0.000000
     2  C    1.383200   0.000000
     3  C    2.340122   1.482002   0.000000
     4  C    2.957902   2.366052   1.280813   0.000000
     5  C    2.957261   2.610714   2.253719   1.342920   0.000000
     6  N    2.362223   2.159938   2.601175   2.287861   1.298745
     7  H    3.036267   3.035406   3.601166   3.196692   1.996361
     8  C    5.080893   4.672250   3.505840   2.314842   2.644245
     9  C    4.154282   3.618982   2.289775   1.321772   2.288711
    10  C    4.788821   4.184700   2.704253   2.346452   3.573315
    11  C    6.198959   5.640641   4.159965   3.708194   4.814829
    12  O    7.214116   6.719872   5.265003   4.551226   5.421243
    13  C    8.322841   7.817987   6.341397   5.753820   6.694147
    14  C    8.238510   7.688956   6.219205   5.908883   7.034513
    15  C    6.987014   6.403938   4.953124   4.795996   6.015923
    16  N    6.671389   6.054845   4.714833   4.909833   6.229099
    17  C    5.543979   4.892124   3.657290   4.114603   5.457305
    18  C    4.398334   3.713976   2.352003   2.712451   4.055034
    19  C    3.198100   2.414233   1.320845   2.291372   3.496093
    20  Se   1.959996   2.749940   4.115159   4.747322   4.426709
    21  C    9.618641   9.148675   7.683926   6.989440   7.804167
    22  C    9.842620   9.418577   8.004837   7.129682   7.736966
    23  N   11.106738  10.722802   9.326191   8.410053   8.936176
    24  C   12.105681  11.718523  10.285571   9.458776  10.085607
    25  C   11.969058  11.547228  10.079563   9.401088  10.192036
    26  N   12.890939  12.465044  10.988581  10.410440  11.283731
    27  S   12.419505  11.963131  10.489241  10.051596  11.041454
    28  N   11.134730  10.653673   9.178792   8.756441   9.770576
    29  C   10.747540  10.285982   8.808866   8.216703   9.104423
    30  H    1.032000   2.150946   2.534459   2.924212   3.016204
    31  H    2.150946   1.032000   2.242180   3.094306   3.200325
    32  H    3.879290   3.640277   3.189466   2.062602   1.032000
    33  H    6.074470   5.703235   4.525220   3.346787   3.576766
    34  H    9.098095   8.545939   7.094407   6.872669   8.030880
    35  H    5.668545   5.022900   4.007853   4.718102   6.037935
    36  H    9.142902   8.723679   7.356182   6.388732   6.884647
    37  H   13.052532  12.689036  11.267711  10.408056  10.981401
                    6          7          8          9         10
     6  N    0.000000
     7  H    0.999992   0.000000
     8  C    3.942838   4.517075   0.000000
     9  C    3.478649   4.282784   1.342923   0.000000
    10  C    4.634257   5.525041   2.386724   1.404317   0.000000
    11  C    5.972026   6.806618   2.904393   2.526613   1.456243
    12  O    6.679116   7.396812   2.996272   3.239062   2.644371
    13  C    7.935227   8.679027   4.299673   4.466136   3.642511
    14  C    8.184431   9.026378   4.962785   4.745999   3.587167
    15  C    7.083266   7.977209   4.303310   3.769012   2.452615
    16  N    7.126705   8.085430   5.029160   4.173629   2.770827
    17  C    6.194428   7.182120   4.815553   3.701126   2.429977
    18  C    4.819945   5.799934   3.660076   2.422045   1.418119
    19  C    3.918609   4.918229   4.075281   2.733352   2.418304
    20  Se   3.369782   3.578670   6.854547   6.016548   6.706311
    21  C    9.080996   9.750948   5.252955   5.673162   5.011569
    22  C    9.035362   9.591773   5.096464   5.817466   5.470203
    23  N   10.233393  10.731245   6.294243   7.109710   6.818962
    24  C   11.383638  11.931107   7.445950   8.141573   7.678063
    25  C   11.475298  12.118736   7.607007   8.084938   7.392706
    26  N   12.550354  13.238593   8.749514   9.110915   8.287367
    27  S   12.269352  13.027891   8.628238   8.794693   7.811379
    28  N   10.987209  11.762281   7.405208   7.510205   6.502496
    29  C   10.365948  11.069969   6.598729   6.917262   6.106522
    30  H    2.755113   3.411626   4.773960   3.919547   4.520812
    31  H    2.536363   3.251424   5.350986   4.332505   4.877000
    32  H    2.022887   2.314909   2.289425   2.501792   3.901501
    33  H    4.862965   5.336261   1.032001   2.294643   3.030217
    34  H    9.156974  10.017250   5.994774   5.745604   4.531621
    35  H    6.607951   7.607740   5.723673   4.527594   3.364088
    36  H    8.181585   8.688006   4.243792   5.105004   4.970880
    37  H   12.279067  12.788623   8.339660   9.096687   8.682346
                   11         12         13         14         15
    11  C    0.000000
    12  O    1.408099   0.000000
    13  C    2.202660   1.303589   0.000000
    14  C    2.219840   2.208818   1.400165   0.000000
    15  C    1.406308   2.266791   2.244229   1.367973   0.000000
    16  N    2.380355   3.532710   3.563120   2.477936   1.333200
    17  C    2.775634   4.148357   4.520012   3.649002   2.328092
    18  C    2.460241   3.839602   4.595090   4.124032   2.774064
    19  C    3.741458   5.047387   5.929119   5.531857   4.184724
    20  Se   8.134661   9.146440  10.270071  10.171592   8.897379
    21  C    3.606262   2.440706   1.443995   2.525689   3.637990
    22  C    4.221514   2.842195   2.401986   3.717694   4.627541
    23  N    5.573071   4.195887   3.666723   4.885752   5.910220
    24  C    6.326854   5.040283   4.213353   5.186024   6.389798
    25  C    5.961137   4.857336   3.763546   4.405813   5.722526
    26  N    6.835022   5.883961   4.677402   4.996176   6.358041
    27  S    6.370710   5.653468   4.364496   4.310505   5.653695
    28  N    5.064436   4.413290   3.113154   2.997430   4.348657
    29  C    4.655756   3.689695   2.477507   2.985829   4.314603
    30  H    5.839480   6.791958   7.879022   7.832870   6.639231
    31  H    6.318446   7.405931   8.490582   8.331723   7.037596
    32  H    4.929820   5.268196   6.570439   7.110953   6.245698
    33  H    3.073318   2.670466   3.914872   4.834605   4.456837
    34  H    3.221940   3.196543   2.171952   1.031993   2.142281
    35  H    3.807307   5.174209   5.481396   4.497265   3.248949
    36  H    3.900626   2.500338   2.571202   3.969489   4.607110
    37  H    7.345920   6.042119   5.244101   6.204435   7.418828
                   16         17         18         19         20
    16  N    0.000000
    17  C    1.309278   0.000000
    18  C    2.363126   1.402340   0.000000
    19  C    3.667506   2.478264   1.410693   0.000000
    20  Se   8.493950   7.297358   6.230999   4.917575   0.000000
    21  C    4.922249   5.945429   6.030626   7.347064  11.561993
    22  C    5.956298   6.835010   6.675700   7.883677  11.747668
    23  N    7.226608   8.156612   8.028511   9.234146  12.997888
    24  C    7.643193   8.706232   8.773742  10.058501  14.028604
    25  C    6.872039   8.040223   8.320412   9.676113  13.920861
    26  N    7.364227   8.609560   9.072254  10.462829  14.850157
    27  S    6.501949   7.789544   8.420081   9.828165  14.372315
    28  N    5.249811   6.523522   7.114159   8.522106  13.085131
    29  C    5.451707   6.627430   6.957367   8.331690  12.702981
    30  H    6.405215   5.377482   4.254742   3.280272   2.691142
    31  H    6.627229   5.434117   4.337567   3.012396   2.817776
    32  H    6.660310   6.051881   4.671458   4.345405   5.260662
    33  H    5.399170   5.415556   4.412752   5.007611   7.835078
    34  H    2.886029   4.174669   4.891496   6.298697  11.016065
    35  H    2.026160   1.032002   2.109961   2.702098   7.266992
    36  H    5.931027   6.642419   6.278706   7.380933  11.010347
    37  H    8.666395   9.735687   9.795873  11.070991  14.965125
                   21         22         23         24         25
    21  C    0.000000
    22  C    1.351731   0.000000
    23  N    2.367210   1.359058   0.000000
    24  C    2.776117   2.365100   1.350731   0.000000
    25  C    2.427732   2.755067   2.384003   1.410656   0.000000
    26  N    3.515753   4.060001   3.685239   2.534048   1.332173
    27  S    3.541479   4.465967   4.472810   3.557578   2.158538
    28  N    2.529806   3.688295   4.074571   3.537685   2.212584
    29  C    1.396237   2.376842   2.758733   2.438651   1.423135
    30  H    9.137891   9.351603  10.584968  11.560492  11.431488
    31  H    9.823126  10.095178  11.405039  12.409862  12.235042
    32  H    7.538364   7.299680   8.420207   9.632292   9.873383
    33  H    4.633408   4.274634   5.396938   6.604720   6.897976
    34  H    2.858263   4.183580   5.178045   5.213124   4.198388
    35  H    6.886939   7.827822   9.137359   9.632678   8.894663
    36  H    2.061956   1.032004   2.068553   3.287994   3.786958
    37  H    3.807929   3.297010   2.072843   1.031997   2.127109
                   26         27         28         29         30
    26  N    0.000000
    27  S    1.324937   0.000000
    28  N    2.171093   1.317442   0.000000
    29  C    2.204924   2.157303   1.342791   0.000000
    30  H   12.345994  11.900842  10.642719  10.243319   0.000000
    31  H   13.149465  12.629684  11.313437  10.961926   3.077328
    32  H   11.031056  10.908960   9.676073   8.887088   3.808674
    33  H    8.102654   8.115507   6.956279   6.014757   5.710557
    34  H    4.521627   3.628688   2.376737   2.813910   8.690907
    35  H    9.374580   8.468082   7.244064   7.475573   5.587236
    36  H    5.090300   5.443564   4.565759   3.309904   8.678947
    37  H    2.873693   4.095995   4.339577   3.379041  12.491306
                   31         32         33         34         35
    31  H    0.000000
    32  H    4.192000   0.000000
    33  H    6.371339   3.030243   0.000000
    34  H    9.168145   8.134574   5.848511   0.000000
    35  H    5.470198   6.740137   6.385704   4.876330   0.000000
    36  H    9.388795   6.381318   3.353599   4.636297   7.664578
    37  H   13.383790  10.479578   7.457303   6.185580  10.659358
                   36         37
    36  H    0.000000
    37  H    4.133312   0.000000
 Stoichiometry    C20H9N5OSSe
 Framework group  C1[X(C20H9N5OSSe)]
 Deg. of freedom   105
 Full point group                 C1      NOp   1
 Largest Abelian subgroup         C1      NOp   1
 Largest concise Abelian subgroup C1      NOp   1
                         Standard orientation:                         
 ---------------------------------------------------------------------
 Center     Atomic      Atomic             Coordinates (Angstroms)
 Number     Number       Type             X           Y           Z
 ---------------------------------------------------------------------
      1          6           0       -5.420952   -0.089652    0.710797
      2          6           0       -4.946224   -0.339417   -0.564151
      3          6           0       -3.464580   -0.364600   -0.543471
      4          6           0       -2.851903    0.758642   -0.484850
      5          6           0       -3.582112    1.885603   -0.498510
      6          7           0       -4.877208    1.819411   -0.569797
      7          1           0       -5.420945    2.658595   -0.579960
      8          6           0       -0.947893    2.069226   -0.359931
      9          6           0       -1.536311    0.863184   -0.411578
     10          6           0       -0.765302   -0.310329   -0.388763
     11          6           0        0.688678   -0.329656   -0.309944
     12          8           0        1.691477    0.656236   -0.238136
     13          6           0        2.852087    0.065039   -0.185078
     14          6           0        2.671660   -1.323078   -0.217290
     15          6           0        1.330481   -1.580889   -0.295548
     16          7           0        0.621846   -2.708674   -0.353510
     17          6           0       -0.685130   -2.738711   -0.425064
     18          6           0       -1.439350   -1.556663   -0.446815
     19          6           0       -2.847718   -1.532390   -0.524038
     20         34           0       -7.380474   -0.056355    0.683435
     21          6           0        4.127197    0.737987   -0.105363
     22          6           0        4.142332    2.089629   -0.108652
     23          7           0        5.288119    2.791050    0.096818
     24          6           0        6.465666    2.170451    0.326415
     25          6           0        6.512314    0.760716    0.346948
     26          7           0        7.468675   -0.147173    0.536146
     27         16           0        6.931077   -1.354604    0.443633
     28          7           0        5.639516   -1.267055    0.198970
     29          6           0        5.309910    0.032546    0.124899
     30          1           0       -4.834174    0.056545    1.547064
     31          1           0       -5.533002   -0.485614   -1.400419
     32          1           0       -3.114150    2.804247   -0.452348
     33          1           0       -0.091785    2.642908   -0.305213
     34          1           0        3.422188   -2.030756   -0.187157
     35          1           0       -1.169265   -3.649177   -0.466211
     36          1           0        3.261394    2.601987   -0.271349
     37          1           0        7.323075    2.722378    0.485299
 ---------------------------------------------------------------------
 Rotational constants (GHZ):      0.5397216      0.0445931      0.0418682
 Standard basis: 6-31++G(d,p) (6D, 7F)
 There are   605 symmetry adapted basis functions of A   symmetry.
 Integral buffers will be    131072 words long.
 Raffenetti 2 integral format.
 Two-electron integral symmetry is turned on.
   605 basis functions,  1047 primitive gaussians,   605 cartesian basis functions
   111 alpha electrons      111 beta electrons
       nuclear repulsion energy      2829.2530192780 Hartrees.
 NAtoms=   37 NActive=   37 NUniq=   37 SFac= 1.00D+00 NAtFMM=   60 NAOKFM=F Big=F
 One-electron integrals computed using PRISM.
 NBasis=   605 RedAO= T  NBF=   605
 NBsUse=   594 1.00D-06 NBFU=   594
 Harris functional with IExCor=  402 diagonalized for initial guess.
 ExpMin= 3.00D-02 ExpMax= 5.61D+05 ExpMxC= 5.42D+03 IAcc=3 IRadAn=         5 AccDes= 0.00D+00
 HarFok:  IExCor=  402 AccDes= 0.00D+00 IRadAn=         5 IDoV= 1
 ScaDFX=  1.000000  1.000000  1.000000  1.000000
 FoFCou: FMM=F IPFlag=           0 FMFlag=      100000 FMFlg1=           0
         NFxFlg=           0 DoJE=T BraDBF=F KetDBF=T FulRan=T
         Omega=  0.000000  0.000000  1.000000  0.000000  0.000000 ICntrl=     500 IOpCl=  0
         NMat0=    1 NMatS0=    1 NMatT0=    0 NMatD0=    1 NMtDS0=    0 NMtDT0=    0
         I1Cent=           4 NGrid=           0.
 Petite list used in FoFCou.
 Initial guess orbital symmetries:
       Occupied  (A) (A) (A) (A) (A) (A) (A) (A) (A) (A) (A) (A)
                 (A) (A) (A) (A) (A) (A) (A) (A) (A) (A) (A) (A)
                 (A) (A) (A) (A) (A) (A) (A) (A) (A) (A) (A) (A)
                 (A) (A) (A) (A) (A) (A) (A) (A) (A) (A) (A) (A)
                 (A) (A) (A) (A) (A) (A) (A) (A) (A) (A) (A) (A)
                 (A) (A) (A) (A) (A) (A) (A) (A) (A) (A) (A) (A)
                 (A) (A) (A) (A) (A) (A) (A) (A) (A) (A) (A) (A)
                 (A) (A) (A) (A) (A) (A) (A) (A) (A) (A) (A) (A)
                 (A) (A) (A) (A) (A) (A) (A) (A) (A) (A) (A) (A)
                 (A) (A) (A)
       Virtual   (A) (A) (A) (A) (A) (A) (A) (A) (A) (A) (A) (A)
                 (A) (A) (A) (A) (A) (A) (A) (A) (A) (A) (A) (A)
                 (A) (A) (A) (A) (A) (A) (A) (A) (A) (A) (A) (A)
                 (A) (A) (A) (A) (A) (A) (A) (A) (A) (A) (A) (A)
                 (A) (A) (A) (A) (A) (A) (A) (A) (A) (A) (A) (A)
                 (A) (A) (A) (A) (A) (A) (A) (A) (A) (A) (A) (A)
                 (A) (A) (A) (A) (A) (A) (A) (A) (A) (A) (A) (A)
                 (A) (A) (A) (A) (A) (A) (A) (A) (A) (A) (A) (A)
                 (A) (A) (A) (A) (A) (A) (A) (A) (A) (A) (A) (A)
                 (A) (A) (A) (A) (A) (A) (A) (A) (A) (A) (A) (A)
                 (A) (A) (A) (A) (A) (A) (A) (A) (A) (A) (A) (A)
                 (A) (A) (A) (A) (A) (A) (A) (A) (A) (A) (A) (A)
                 (A) (A) (A) (A) (A) (A) (A) (A) (A) (A) (A) (A)
                 (A) (A) (A) (A) (A) (A) (A) (A) (A) (A) (A) (A)
                 (A) (A) (A) (A) (A) (A) (A) (A) (A) (A) (A) (A)
                 (A) (A) (A) (A) (A) (A) (A) (A) (A) (A) (A) (A)
                 (A) (A) (A) (A) (A) (A) (A) (A) (A) (A) (A) (A)
                 (A) (A) (A) (A) (A) (A) (A) (A) (A) (A) (A) (A)
                 (A) (A) (A) (A) (A) (A) (A) (A) (A) (A) (A) (A)
                 (A) (A) (A) (A) (A) (A) (A) (A) (A) (A) (A) (A)
                 (A) (A) (A) (A) (A) (A) (A) (A) (A) (A) (A) (A)
                 (A) (A) (A) (A) (A) (A) (A) (A) (A) (A) (A) (A)
                 (A) (A) (A) (A) (A) (A) (A) (A) (A) (A) (A) (A)
                 (A) (A) (A) (A) (A) (A) (A) (A) (A) (A) (A) (A)
                 (A) (A) (A) (A) (A) (A) (A) (A) (A) (A) (A) (A)
                 (A) (A) (A) (A) (A) (A) (A) (A) (A) (A) (A) (A)
                 (A) (A) (A) (A) (A) (A) (A) (A) (A) (A) (A) (A)
                 (A) (A) (A) (A) (A) (A) (A) (A) (A) (A) (A) (A)
                 (A) (A) (A) (A) (A) (A) (A) (A) (A) (A) (A) (A)
                 (A) (A) (A) (A) (A) (A) (A) (A) (A) (A) (A) (A)
                 (A) (A) (A) (A) (A) (A) (A) (A) (A) (A) (A) (A)
                 (A) (A) (A) (A) (A) (A) (A) (A) (A) (A) (A) (A)
                 (A) (A) (A) (A) (A) (A) (A) (A) (A) (A) (A) (A)
                 (A) (A) (A) (A) (A) (A) (A) (A) (A) (A) (A) (A)
                 (A) (A) (A) (A) (A) (A) (A) (A) (A) (A) (A) (A)
                 (A) (A) (A) (A) (A) (A) (A) (A) (A) (A) (A) (A)
                 (A) (A) (A) (A) (A) (A) (A) (A) (A) (A) (A) (A)
                 (A) (A) (A) (A) (A) (A) (A) (A) (A) (A) (A) (A)
                 (A) (A) (A) (A) (A) (A) (A) (A) (A) (A) (A) (A)
                 (A) (A) (A) (A) (A) (A) (A) (A) (A) (A) (A) (A)
                 (A) (A) (A)
 The electronic state of the initial guess is 1-A.
 Requested convergence on RMS density matrix=1.00D-08 within 128 cycles.
 Requested convergence on MAX density matrix=1.00D-06.
 Requested convergence on             energy=1.00D-06.
 No special actions if energy rises.
 EnCoef did   100 forward-backward iterations
 EnCoef did     4 forward-backward iterations
 EnCoef did     2 forward-backward iterations
 EnCoef did     5 forward-backward iterations
 EnCoef did     3 forward-backward iterations
 EnCoef did     3 forward-backward iterations
 EnCoef did     2 forward-backward iterations
 EnCoef did     7 forward-backward iterations
 EnCoef did     2 forward-backward iterations
 EnCoef did    14 forward-backward iterations
 EnCoef did     7 forward-backward iterations
 Restarting incremental Fock formation.
 SCF Done:  E(RB3LYP) =  -3913.47269960     A.U. after   35 cycles
             Convg  =    0.9523D-08             -V/T =  2.0043

 **********************************************************************

            Population analysis using the SCF density.

 **********************************************************************

 Orbital symmetries:
       Occupied  (A) (A) (A) (A) (A) (A) (A) (A) (A) (A) (A) (A)
                 (A) (A) (A) (A) (A) (A) (A) (A) (A) (A) (A) (A)
                 (A) (A) (A) (A) (A) (A) (A) (A) (A) (A) (A) (A)
                 (A) (A) (A) (A) (A) (A) (A) (A) (A) (A) (A) (A)
                 (A) (A) (A) (A) (A) (A) (A) (A) (A) (A) (A) (A)
                 (A) (A) (A) (A) (A) (A) (A) (A) (A) (A) (A) (A)
                 (A) (A) (A) (A) (A) (A) (A) (A) (A) (A) (A) (A)
                 (A) (A) (A) (A) (A) (A) (A) (A) (A) (A) (A) (A)
                 (A) (A) (A) (A) (A) (A) (A) (A) (A) (A) (A) (A)
                 (A) (A) (A)
       Virtual   (A) (A) (A) (A) (A) (A) (A) (A) (A) (A) (A) (A)
                 (A) (A) (A) (A) (A) (A) (A) (A) (A) (A) (A) (A)
                 (A) (A) (A) (A) (A) (A) (A) (A) (A) (A) (A) (A)
                 (A) (A) (A) (A) (A) (A) (A) (A) (A) (A) (A) (A)
                 (A) (A) (A) (A) (A) (A) (A) (A) (A) (A) (A) (A)
                 (A) (A) (A) (A) (A) (A) (A) (A) (A) (A) (A) (A)
                 (A) (A) (A) (A) (A) (A) (A) (A) (A) (A) (A) (A)
                 (A) (A) (A) (A) (A) (A) (A) (A) (A) (A) (A) (A)
                 (A) (A) (A) (A) (A) (A) (A) (A) (A) (A) (A) (A)
                 (A) (A) (A) (A) (A) (A) (A) (A) (A) (A) (A) (A)
                 (A) (A) (A) (A) (A) (A) (A) (A) (A) (A) (A) (A)
                 (A) (A) (A) (A) (A) (A) (A) (A) (A) (A) (A) (A)
                 (A) (A) (A) (A) (A) (A) (A) (A) (A) (A) (A) (A)
                 (A) (A) (A) (A) (A) (A) (A) (A) (A) (A) (A) (A)
                 (A) (A) (A) (A) (A) (A) (A) (A) (A) (A) (A) (A)
                 (A) (A) (A) (A) (A) (A) (A) (A) (A) (A) (A) (A)
                 (A) (A) (A) (A) (A) (A) (A) (A) (A) (A) (A) (A)
                 (A) (A) (A) (A) (A) (A) (A) (A) (A) (A) (A) (A)
                 (A) (A) (A) (A) (A) (A) (A) (A) (A) (A) (A) (A)
                 (A) (A) (A) (A) (A) (A) (A) (A) (A) (A) (A) (A)
                 (A) (A) (A) (A) (A) (A) (A) (A) (A) (A) (A) (A)
                 (A) (A) (A) (A) (A) (A) (A) (A) (A) (A) (A) (A)
                 (A) (A) (A) (A) (A) (A) (A) (A) (A) (A) (A) (A)
                 (A) (A) (A) (A) (A) (A) (A) (A) (A) (A) (A) (A)
                 (A) (A) (A) (A) (A) (A) (A) (A) (A) (A) (A) (A)
                 (A) (A) (A) (A) (A) (A) (A) (A) (A) (A) (A) (A)
                 (A) (A) (A) (A) (A) (A) (A) (A) (A) (A) (A) (A)
                 (A) (A) (A) (A) (A) (A) (A) (A) (A) (A) (A) (A)
                 (A) (A) (A) (A) (A) (A) (A) (A) (A) (A) (A) (A)
                 (A) (A) (A) (A) (A) (A) (A) (A) (A) (A) (A) (A)
                 (A) (A) (A) (A) (A) (A) (A) (A) (A) (A) (A) (A)
                 (A) (A) (A) (A) (A) (A) (A) (A) (A) (A) (A) (A)
                 (A) (A) (A) (A) (A) (A) (A) (A) (A) (A) (A) (A)
                 (A) (A) (A) (A) (A) (A) (A) (A) (A) (A) (A) (A)
                 (A) (A) (A) (A) (A) (A) (A) (A) (A) (A) (A) (A)
                 (A) (A) (A) (A) (A) (A) (A) (A) (A) (A) (A) (A)
                 (A) (A) (A) (A) (A) (A) (A) (A) (A) (A) (A) (A)
                 (A) (A) (A) (A) (A) (A) (A) (A) (A) (A) (A) (A)
                 (A) (A) (A) (A) (A) (A) (A) (A) (A) (A) (A) (A)
                 (A) (A) (A) (A) (A) (A) (A) (A) (A) (A) (A) (A)
                 (A) (A) (A)
 The electronic state is 1-A.
 Alpha  occ. eigenvalues -- -453.85597 -88.98905 -57.45647 -52.13185 -52.13071
 Alpha  occ. eigenvalues --  -52.12793 -19.25974 -14.39883 -14.36975 -14.36911
 Alpha  occ. eigenvalues --  -14.36782 -14.34717 -10.28927 -10.28112 -10.27706
 Alpha  occ. eigenvalues --  -10.27314 -10.27242 -10.26962 -10.26571 -10.26171
 Alpha  occ. eigenvalues --  -10.25069 -10.25061 -10.24716 -10.24457 -10.23686
 Alpha  occ. eigenvalues --  -10.22754 -10.22158 -10.21765 -10.21727 -10.21233
 Alpha  occ. eigenvalues --  -10.20062 -10.18724  -8.06304  -7.70186  -6.02726
 Alpha  occ. eigenvalues --   -6.02098  -6.01890  -5.74457  -5.74263  -5.73194
 Alpha  occ. eigenvalues --   -2.10201  -2.10156  -2.09304  -2.09133  -2.08900
 Alpha  occ. eigenvalues --   -1.18856  -1.16427  -0.99175  -0.98947  -0.97310
 Alpha  occ. eigenvalues --   -0.97035  -0.92460  -0.86905  -0.86245  -0.83815
 Alpha  occ. eigenvalues --   -0.83426  -0.82444  -0.80234  -0.76679  -0.73130
 Alpha  occ. eigenvalues --   -0.71767  -0.70095  -0.68923  -0.68462  -0.66199
 Alpha  occ. eigenvalues --   -0.64216  -0.62160  -0.61943  -0.61476  -0.60863
 Alpha  occ. eigenvalues --   -0.58989  -0.56942  -0.56489  -0.56078  -0.54780
 Alpha  occ. eigenvalues --   -0.54055  -0.51998  -0.51202  -0.50697  -0.50640
 Alpha  occ. eigenvalues --   -0.49917  -0.49043  -0.48055  -0.46653  -0.45908
 Alpha  occ. eigenvalues --   -0.45575  -0.43656  -0.43241  -0.42862  -0.41461
 Alpha  occ. eigenvalues --   -0.41301  -0.40650  -0.40270  -0.39554  -0.39410
 Alpha  occ. eigenvalues --   -0.37559  -0.34978  -0.34875  -0.34624  -0.32776
 Alpha  occ. eigenvalues --   -0.32242  -0.31176  -0.30114  -0.28482  -0.27601
 Alpha  occ. eigenvalues --   -0.26280  -0.26019  -0.23993  -0.22056  -0.20245
 Alpha  occ. eigenvalues --   -0.18821
 Alpha virt. eigenvalues --   -0.16017  -0.14632  -0.10434  -0.08429  -0.05075
 Alpha virt. eigenvalues --   -0.04659  -0.03822  -0.02547  -0.01929  -0.01395
 Alpha virt. eigenvalues --   -0.00627  -0.00168   0.00512   0.00864   0.01127
 Alpha virt. eigenvalues --    0.01344   0.02212   0.02338   0.02415   0.02470
 Alpha virt. eigenvalues --    0.03248   0.03441   0.03564   0.04134   0.04680
 Alpha virt. eigenvalues --    0.04834   0.05232   0.05628   0.05732   0.06040
 Alpha virt. eigenvalues --    0.06482   0.06693   0.06990   0.07612   0.07701
 Alpha virt. eigenvalues --    0.07917   0.08209   0.08607   0.08669   0.09151
 Alpha virt. eigenvalues --    0.09566   0.09628   0.10211   0.10644   0.10803
 Alpha virt. eigenvalues --    0.11093   0.11261   0.11478   0.11647   0.11996
 Alpha virt. eigenvalues --    0.12032   0.12143   0.12570   0.12896   0.13187
 Alpha virt. eigenvalues --    0.13345   0.13506   0.13765   0.13993   0.14254
 Alpha virt. eigenvalues --    0.14407   0.15058   0.15261   0.15341   0.15616
 Alpha virt. eigenvalues --    0.15848   0.16041   0.16185   0.16638   0.16671
 Alpha virt. eigenvalues --    0.17214   0.17713   0.18034   0.18116   0.18374
 Alpha virt. eigenvalues --    0.18851   0.18925   0.19360   0.19561   0.19732
 Alpha virt. eigenvalues --    0.20058   0.20480   0.20766   0.21209   0.21326
 Alpha virt. eigenvalues --    0.21502   0.21548   0.22017   0.22185   0.22513
 Alpha virt. eigenvalues --    0.22639   0.23198   0.23375   0.23618   0.23819
 Alpha virt. eigenvalues --    0.23927   0.24388   0.24721   0.24971   0.25253
 Alpha virt. eigenvalues --    0.25625   0.25781   0.26026   0.26344   0.26469
 Alpha virt. eigenvalues --    0.26767   0.27010   0.27130   0.27288   0.27416
 Alpha virt. eigenvalues --    0.28087   0.28606   0.28816   0.28973   0.29282
 Alpha virt. eigenvalues --    0.29677   0.29971   0.30212   0.30366   0.30684
 Alpha virt. eigenvalues --    0.31127   0.31582   0.31690   0.31741   0.32556
 Alpha virt. eigenvalues --    0.33421   0.33572   0.33809   0.34097   0.34220
 Alpha virt. eigenvalues --    0.34532   0.35474   0.35762   0.36229   0.36567
 Alpha virt. eigenvalues --    0.36713   0.36807   0.37176   0.38219   0.38495
 Alpha virt. eigenvalues --    0.38800   0.39219   0.40386   0.40588   0.40951
 Alpha virt. eigenvalues --    0.41564   0.42091   0.42161   0.43106   0.44208
 Alpha virt. eigenvalues --    0.44566   0.45418   0.45906   0.46461   0.47789
 Alpha virt. eigenvalues --    0.48198   0.49112   0.49597   0.49887   0.50280
 Alpha virt. eigenvalues --    0.51722   0.52710   0.54495   0.54988   0.55671
 Alpha virt. eigenvalues --    0.56077   0.57458   0.57680   0.59369   0.60667
 Alpha virt. eigenvalues --    0.61325   0.62208   0.62745   0.64199   0.64938
 Alpha virt. eigenvalues --    0.65619   0.66025   0.66911   0.67726   0.68177
 Alpha virt. eigenvalues --    0.68876   0.69169   0.70151   0.70340   0.70508
 Alpha virt. eigenvalues --    0.71275   0.72146   0.72587   0.72819   0.73698
 Alpha virt. eigenvalues --    0.75095   0.75475   0.75884   0.76575   0.76825
 Alpha virt. eigenvalues --    0.77363   0.77581   0.77859   0.78308   0.78474
 Alpha virt. eigenvalues --    0.79713   0.80112   0.80177   0.81271   0.81913
 Alpha virt. eigenvalues --    0.82305   0.82446   0.83077   0.83709   0.84761
 Alpha virt. eigenvalues --    0.85531   0.86327   0.86838   0.87185   0.87950
 Alpha virt. eigenvalues --    0.88471   0.89495   0.91487   0.91790   0.92252
 Alpha virt. eigenvalues --    0.92547   0.93025   0.94452   0.94665   0.95096
 Alpha virt. eigenvalues --    0.95600   0.96193   0.96998   0.97329   0.97924
 Alpha virt. eigenvalues --    0.98522   1.00077   1.00483   1.01551   1.01855
 Alpha virt. eigenvalues --    1.02925   1.03293   1.04741   1.05299   1.06813
 Alpha virt. eigenvalues --    1.07230   1.08163   1.09094   1.11295   1.11465
 Alpha virt. eigenvalues --    1.12132   1.12697   1.13447   1.14344   1.14715
 Alpha virt. eigenvalues --    1.14888   1.15262   1.16886   1.17212   1.18013
 Alpha virt. eigenvalues --    1.18586   1.19082   1.19499   1.19776   1.21410
 Alpha virt. eigenvalues --    1.21581   1.22233   1.23059   1.23371   1.24076
 Alpha virt. eigenvalues --    1.24636   1.25779   1.26372   1.26786   1.27297
 Alpha virt. eigenvalues --    1.28458   1.29338   1.29889   1.30715   1.31265
 Alpha virt. eigenvalues --    1.31823   1.31993   1.33328   1.34109   1.34591
 Alpha virt. eigenvalues --    1.35073   1.35323   1.35481   1.35783   1.37359
 Alpha virt. eigenvalues --    1.37751   1.38544   1.39736   1.41042   1.41707
 Alpha virt. eigenvalues --    1.42866   1.44859   1.45991   1.46621   1.46686
 Alpha virt. eigenvalues --    1.48105   1.49748   1.49849   1.52444   1.53073
 Alpha virt. eigenvalues --    1.53911   1.56895   1.60196   1.61192   1.61888
 Alpha virt. eigenvalues --    1.61937   1.62881   1.64784   1.65312   1.66387
 Alpha virt. eigenvalues --    1.69757   1.70239   1.71748   1.72764   1.73508
 Alpha virt. eigenvalues --    1.73785   1.75589   1.76930   1.78276   1.78682
 Alpha virt. eigenvalues --    1.79496   1.81619   1.82066   1.83073   1.83107
 Alpha virt. eigenvalues --    1.84255   1.85043   1.86681   1.87435   1.88787
 Alpha virt. eigenvalues --    1.89590   1.90500   1.90780   1.92277   1.93143
 Alpha virt. eigenvalues --    1.93586   1.93760   1.94722   1.97810   1.98054
 Alpha virt. eigenvalues --    1.98876   1.99425   2.00685   2.01351   2.01785
 Alpha virt. eigenvalues --    2.03616   2.04069   2.04967   2.06382   2.08204
 Alpha virt. eigenvalues --    2.08533   2.08842   2.09435   2.11552   2.12366
 Alpha virt. eigenvalues --    2.13589   2.15174   2.16644   2.17338   2.18731
 Alpha virt. eigenvalues --    2.19513   2.20586   2.21814   2.23376   2.25371
 Alpha virt. eigenvalues --    2.25687   2.26300   2.27290   2.28010   2.29640
 Alpha virt. eigenvalues --    2.30273   2.30976   2.33087   2.33743   2.34481
 Alpha virt. eigenvalues --    2.36336   2.37101   2.37932   2.39637   2.41148
 Alpha virt. eigenvalues --    2.41977   2.42632   2.42858   2.44259   2.45003
 Alpha virt. eigenvalues --    2.46868   2.47789   2.51330   2.52443   2.53661
 Alpha virt. eigenvalues --    2.54078   2.54185   2.55907   2.57014   2.57581
 Alpha virt. eigenvalues --    2.58384   2.59820   2.61358   2.61743   2.62250
 Alpha virt. eigenvalues --    2.63254   2.64271   2.64652   2.66811   2.68482
 Alpha virt. eigenvalues --    2.68990   2.69804   2.71016   2.71729   2.74288
 Alpha virt. eigenvalues --    2.75101   2.75833   2.76533   2.76820   2.78604
 Alpha virt. eigenvalues --    2.79683   2.80540   2.81094   2.81477   2.81944
 Alpha virt. eigenvalues --    2.82664   2.83821   2.85169   2.86599   2.90202
 Alpha virt. eigenvalues --    2.91966   2.92911   2.94860   2.97174   2.98553
 Alpha virt. eigenvalues --    3.02401   3.03743   3.06886   3.08735   3.13343
 Alpha virt. eigenvalues --    3.13886   3.16624   3.19149   3.21974   3.28450
 Alpha virt. eigenvalues --    3.32721   3.33916   3.36569   3.40249   3.46285
 Alpha virt. eigenvalues --    3.48824   3.53560   3.59865   3.62623   3.68729
 Alpha virt. eigenvalues --    3.70385   3.75201   3.78269   3.82759   3.97038
 Alpha virt. eigenvalues --    4.20623   4.24095   4.26356   4.31767   4.32995
 Alpha virt. eigenvalues --    4.35123   4.37904   4.39099   4.40221   4.40981
 Alpha virt. eigenvalues --    4.41338   4.44109   4.45145   4.47332   4.48566
 Alpha virt. eigenvalues --    4.52276   4.53764   4.55964   4.58705   4.62942
 Alpha virt. eigenvalues --    4.63876   4.65696   4.77171   4.88356   5.00676
 Alpha virt. eigenvalues --    5.15287   8.33750  79.09765
          Condensed to atoms (all electrons):
              1          2          3          4          5          6
     1  C    8.575710  -2.212931  -0.009432   0.323117  -0.939346  -0.371690
     2  C   -2.212931  19.614232  -4.651963  -5.388362   3.361223   0.073655
     3  C   -0.009432  -4.651963  16.581694   1.568225   0.321855   0.171967
     4  C    0.323117  -5.388362   1.568225  10.893169  -2.229618  -0.093787
     5  C   -0.939346   3.361223   0.321855  -2.229618   9.731373   0.630987
     6  N   -0.371690   0.073655   0.171967  -0.093787   0.630987   7.304139
     7  H    0.046037  -0.017598   0.045184   0.091467  -0.152109   0.266899
     8  C   -0.228067  -1.251742  -3.059744   0.619353  -0.925566  -0.025024
     9  C   -0.188263  -2.790905  -0.246605   1.661092  -1.061568  -0.047939
    10  C   -0.049537  -1.834126  -0.790241   0.195694  -0.933343  -0.016396
    11  C    0.045156   0.262990   0.309800  -0.099035  -0.091220   0.000634
    12  O   -0.000237  -0.001433  -0.017576   0.010245   0.003489   0.000033
    13  C    0.004170  -0.035137   0.155873  -0.157499   0.008963  -0.000118
    14  C   -0.004559  -0.011280  -0.016042  -0.005130  -0.033508   0.000661
    15  C   -0.085110  -0.213093  -1.274412   0.044483  -0.229467  -0.004899
    16  N    0.001646   0.005971  -0.004341   0.021979   0.002357  -0.000124
    17  C    0.204787   0.198774   0.823962  -0.909584  -0.219751  -0.005910
    18  C    0.165849   2.053349  -2.666871  -1.264410  -0.588807  -0.150860
    19  C    0.726584  -2.248749  -0.504350   1.009863  -1.609353  -0.287871
    20  Se   0.092239   0.383820  -0.067364  -0.145921   0.066173  -0.058637
    21  C   -0.000305  -0.007611  -0.055789  -0.034135  -0.006922  -0.000010
    22  C   -0.000166   0.003563   0.007935   0.027029   0.000817  -0.000043
    23  N   -0.000000   0.000013   0.000147   0.000340   0.000073   0.000000
    24  C    0.000001  -0.000063  -0.000487  -0.000820  -0.000036   0.000000
    25  C    0.000027  -0.000301   0.000124  -0.001165   0.000340   0.000001
    26  N   -0.000000   0.000001   0.000027  -0.000026  -0.000003   0.000000
    27  S    0.000000   0.000017   0.000197   0.000129   0.000024  -0.000000
    28  N   -0.000002   0.000015   0.000091  -0.000353  -0.000081   0.000000
    29  C    0.000413  -0.001990   0.023974  -0.006568   0.004089   0.000020
    30  H    0.644842  -0.967867   0.319684   0.324408  -0.226752   0.002544
    31  H   -0.234091   0.486454   0.017164   0.009723   0.082851   0.032086
    32  H   -0.061921   0.081423  -0.034599  -0.271817   0.626183  -0.052900
    33  H   -0.000254   0.001653  -0.118954   0.116824  -0.001751  -0.007152
    34  H    0.000080   0.001056   0.004704  -0.000057  -0.000781   0.000018
    35  H    0.004440  -0.006543  -0.043725  -0.039888  -0.008182  -0.000290
    36  H    0.000016   0.000430   0.004750  -0.001846  -0.000581   0.000053
    37  H    0.000000  -0.000002  -0.000017  -0.000020  -0.000003   0.000000
              7          8          9         10         11         12
     1  C    0.046037  -0.228067  -0.188263  -0.049537   0.045156  -0.000237
     2  C   -0.017598  -1.251742  -2.790905  -1.834126   0.262990  -0.001433
     3  C    0.045184  -3.059744  -0.246605  -0.790241   0.309800  -0.017576
     4  C    0.091467   0.619353   1.661092   0.195694  -0.099035   0.010245
     5  C   -0.152109  -0.925566  -1.061568  -0.933343  -0.091220   0.003489
     6  N    0.266899  -0.025024  -0.047939  -0.016396   0.000634   0.000033
     7  H    0.400264  -0.026031   0.000724  -0.002207  -0.002493   0.000077
     8  C   -0.026031  12.918863  -1.228162  -0.010244   0.408990   0.050941
     9  C    0.000724  -1.228162  11.586894   1.369257  -1.206553  -0.110971
    10  C   -0.002207  -0.010244   1.369257   8.375914   0.784843  -0.311907
    11  C   -0.002493   0.408990  -1.206553   0.784843  11.692117  -0.294187
    12  O    0.000077   0.050941  -0.110971  -0.311907  -0.294187   8.822418
    13  C    0.000224  -0.430299   0.618014   0.774476  -0.156156  -0.451431
    14  C   -0.000174   0.063333  -0.568796  -0.783153  -3.456860   0.272451
    15  C   -0.000883   1.112815  -0.033815  -0.973836  -2.300055   0.404255
    16  N   -0.000012  -0.000288   0.009669   0.125141   0.378089   0.024121
    17  C   -0.000364  -0.873065  -2.181052  -0.568105   0.670591  -0.014684
    18  C    0.009849  -1.424116   0.498667   0.373875  -0.212611   0.026137
    19  C    0.036051   0.391292   0.206630   0.392087  -0.887459   0.018558
    20  Se  -0.005996   0.005990  -0.006737  -0.015095   0.002315  -0.000059
    21  C    0.000010   0.207395  -0.159982  -0.038882   0.696696  -0.410943
    22  C   -0.000022  -0.042758   0.012816  -0.183139  -0.640755   0.046683
    23  N   -0.000001   0.000334  -0.001696   0.001873  -0.011654   0.004124
    24  C   -0.000000  -0.000766  -0.004300   0.004976   0.159088  -0.001961
    25  C    0.000001  -0.021957   0.013037   0.009382   0.278498   0.065294
    26  N    0.000000  -0.000192   0.000175   0.000842  -0.026066   0.000326
    27  S    0.000000  -0.001367   0.002160  -0.001345  -0.032730   0.002709
    28  N   -0.000000   0.001251  -0.003004  -0.006071  -0.053800  -0.003396
    29  C    0.000008  -0.169116   0.104431   0.128396  -0.082870   0.171724
    30  H    0.001410   0.011620   0.099319   0.059785  -0.000588  -0.000012
    31  H   -0.004801   0.002860  -0.001646  -0.008927  -0.001291   0.000027
    32  H   -0.032928   0.142927  -0.047991  -0.006247   0.023277  -0.000544
    33  H    0.003918   0.746109  -0.302718  -0.284184   0.023243   0.007392
    34  H   -0.000001  -0.002797  -0.027643  -0.025704  -0.157812   0.043559
    35  H   -0.000005   0.004954  -0.020449  -0.019242  -0.007185   0.000824
    36  H   -0.000105  -0.015854  -0.028587   0.016397  -0.042010   0.032138
    37  H    0.000000   0.000032  -0.000157  -0.000286   0.003508  -0.000287
             13         14         15         16         17         18
     1  C    0.004170  -0.004559  -0.085110   0.001646   0.204787   0.165849
     2  C   -0.035137  -0.011280  -0.213093   0.005971   0.198774   2.053349
     3  C    0.155873  -0.016042  -1.274412  -0.004341   0.823962  -2.666871
     4  C   -0.157499  -0.005130   0.044483   0.021979  -0.909584  -1.264410
     5  C    0.008963  -0.033508  -0.229467   0.002357  -0.219751  -0.588807
     6  N   -0.000118   0.000661  -0.004899  -0.000124  -0.005910  -0.150860
     7  H    0.000224  -0.000174  -0.000883  -0.000012  -0.000364   0.009849
     8  C   -0.430299   0.063333   1.112815  -0.000288  -0.873065  -1.424116
     9  C    0.618014  -0.568796  -0.033815   0.009669  -2.181052   0.498667
    10  C    0.774476  -0.783153  -0.973836   0.125141  -0.568105   0.373875
    11  C   -0.156156  -3.456860  -2.300055   0.378089   0.670591  -0.212611
    12  O   -0.451431   0.272451   0.404255   0.024121  -0.014684   0.026137
    13  C   14.636401  -0.633618  -3.354153   0.096790  -0.331209   0.103565
    14  C   -0.633618   9.713431   2.273200  -0.533700   0.212407  -0.164143
    15  C   -3.354153   2.273200  11.062435  -0.095867  -1.263761  -0.226356
    16  N    0.096790  -0.533700  -0.095867   7.300345  -0.141679   0.250650
    17  C   -0.331209   0.212407  -1.263761  -0.141679  12.104034  -2.432537
    18  C    0.103565  -0.164143  -0.226356   0.250650  -2.432537  13.045320
    19  C    0.064532   0.411160   0.643445  -0.037600  -0.553904  -0.850254
    20  Se  -0.001516   0.000210   0.003743  -0.000008  -0.000380   0.056767
    21  C    3.308969  -0.886154  -0.541244  -0.011103  -0.031341   0.015952
    22  C   -1.553595  -0.071610   0.301627  -0.005938  -0.011043  -0.041309
    23  N    0.008602   0.034329   0.011931  -0.000013   0.000752  -0.000184
    24  C   -0.303559  -0.004969  -0.023487   0.001124   0.002444   0.005267
    25  C   -5.025781   0.171431   0.433443   0.002098   0.039218   0.000915
    26  N    0.195345  -0.036926  -0.006872  -0.000303  -0.000577   0.000206
    27  S   -0.319220   0.017752   0.025464  -0.002376   0.000293  -0.002007
    28  N   -0.362115   0.345964   0.002261  -0.002318  -0.000930   0.001726
    29  C   -0.896350  -0.547999   0.333353   0.008746   0.158867   0.012930
    30  H    0.006424  -0.000983  -0.016109   0.000394   0.008818  -0.095825
    31  H    0.000014   0.000912   0.006269  -0.000462  -0.023114  -0.053839
    32  H   -0.004449   0.002226   0.001286   0.000393   0.001085  -0.050521
    33  H   -0.019010  -0.017992   0.075834  -0.003046  -0.089963  -0.032502
    34  H   -0.210761   0.542732   0.129774  -0.028124   0.035075  -0.005124
    35  H   -0.012942   0.017050   0.044664  -0.146720   0.721105  -0.303506
    36  H   -0.384651  -0.036707   0.047366   0.000748   0.020127  -0.001836
    37  H    0.004492  -0.009846  -0.001128  -0.000004  -0.000011   0.000128
             19         20         21         22         23         24
     1  C    0.726584   0.092239  -0.000305  -0.000166  -0.000000   0.000001
     2  C   -2.248749   0.383820  -0.007611   0.003563   0.000013  -0.000063
     3  C   -0.504350  -0.067364  -0.055789   0.007935   0.000147  -0.000487
     4  C    1.009863  -0.145921  -0.034135   0.027029   0.000340  -0.000820
     5  C   -1.609353   0.066173  -0.006922   0.000817   0.000073  -0.000036
     6  N   -0.287871  -0.058637  -0.000010  -0.000043   0.000000   0.000000
     7  H    0.036051  -0.005996   0.000010  -0.000022  -0.000001  -0.000000
     8  C    0.391292   0.005990   0.207395  -0.042758   0.000334  -0.000766
     9  C    0.206630  -0.006737  -0.159982   0.012816  -0.001696  -0.004300
    10  C    0.392087  -0.015095  -0.038882  -0.183139   0.001873   0.004976
    11  C   -0.887459   0.002315   0.696696  -0.640755  -0.011654   0.159088
    12  O    0.018558  -0.000059  -0.410943   0.046683   0.004124  -0.001961
    13  C    0.064532  -0.001516   3.308969  -1.553595   0.008602  -0.303559
    14  C    0.411160   0.000210  -0.886154  -0.071610   0.034329  -0.004969
    15  C    0.643445   0.003743  -0.541244   0.301627   0.011931  -0.023487
    16  N   -0.037600  -0.000008  -0.011103  -0.005938  -0.000013   0.001124
    17  C   -0.553904  -0.000380  -0.031341  -0.011043   0.000752   0.002444
    18  C   -0.850254   0.056767   0.015952  -0.041309  -0.000184   0.005267
    19  C    9.470038  -0.024423   0.026044  -0.000887   0.000040   0.000503
    20  Se  -0.024423  33.928924  -0.000041   0.000045   0.000000  -0.000000
    21  C    0.026044  -0.000041  14.759388  -4.668637   0.307176   0.448517
    22  C   -0.000887   0.000045  -4.668637  11.166898   0.062243  -2.095634
    23  N    0.000040   0.000000   0.307176   0.062243   6.752040   0.063250
    24  C    0.000503  -0.000000   0.448517  -2.095634   0.063250  12.799746
    25  C    0.001319  -0.000002  -7.165396   1.760593   0.122414  -1.190825
    26  N   -0.000017  -0.000000   0.665662   0.002573   0.003937  -0.677637
    27  S   -0.000366   0.000000  -0.385770   0.373072   0.007471  -0.419023
    28  N    0.000309  -0.000000  -1.117549   0.102493  -0.005220   0.522775
    29  C    0.001606  -0.000036   1.838044   0.788686   0.045394  -3.592232
    30  H    0.146885  -0.147041   0.000223  -0.000279  -0.000001   0.000004
    31  H   -0.044618  -0.077742  -0.000021   0.000055   0.000000  -0.000000
    32  H   -0.098625   0.001278  -0.000484   0.000326   0.000095   0.000044
    33  H    0.012022  -0.001523   0.053693   0.010440  -0.004932  -0.006792
    34  H    0.001023   0.000011  -0.097141  -0.015354  -0.000305  -0.009470
    35  H   -0.026304  -0.000046  -0.000616   0.000358   0.000003  -0.000054
    36  H    0.003315   0.000040  -0.672015   0.825131  -0.147561   0.070344
    37  H    0.000012  -0.000000   0.049615  -0.069303  -0.132294   0.792024
             25         26         27         28         29         30
     1  C    0.000027  -0.000000   0.000000  -0.000002   0.000413   0.644842
     2  C   -0.000301   0.000001   0.000017   0.000015  -0.001990  -0.967867
     3  C    0.000124   0.000027   0.000197   0.000091   0.023974   0.319684
     4  C   -0.001165  -0.000026   0.000129  -0.000353  -0.006568   0.324408
     5  C    0.000340  -0.000003   0.000024  -0.000081   0.004089  -0.226752
     6  N    0.000001   0.000000  -0.000000   0.000000   0.000020   0.002544
     7  H    0.000001   0.000000   0.000000  -0.000000   0.000008   0.001410
     8  C   -0.021957  -0.000192  -0.001367   0.001251  -0.169116   0.011620
     9  C    0.013037   0.000175   0.002160  -0.003004   0.104431   0.099319
    10  C    0.009382   0.000842  -0.001345  -0.006071   0.128396   0.059785
    11  C    0.278498  -0.026066  -0.032730  -0.053800  -0.082870  -0.000588
    12  O    0.065294   0.000326   0.002709  -0.003396   0.171724  -0.000012
    13  C   -5.025781   0.195345  -0.319220  -0.362115  -0.896350   0.006424
    14  C    0.171431  -0.036926   0.017752   0.345964  -0.547999  -0.000983
    15  C    0.433443  -0.006872   0.025464   0.002261   0.333353  -0.016109
    16  N    0.002098  -0.000303  -0.002376  -0.002318   0.008746   0.000394
    17  C    0.039218  -0.000577   0.000293  -0.000930   0.158867   0.008818
    18  C    0.000915   0.000206  -0.002007   0.001726   0.012930  -0.095825
    19  C    0.001319  -0.000017  -0.000366   0.000309   0.001606   0.146885
    20  Se  -0.000002  -0.000000   0.000000  -0.000000  -0.000036  -0.147041
    21  C   -7.165396   0.665662  -0.385770  -1.117549   1.838044   0.000223
    22  C    1.760593   0.002573   0.373072   0.102493   0.788686  -0.000279
    23  N    0.122414   0.003937   0.007471  -0.005220   0.045394  -0.000001
    24  C   -1.190825  -0.677637  -0.419023   0.522775  -3.592232   0.000004
    25  C   22.047140  -1.317024   0.278788   2.265688  -6.902017   0.000038
    26  N   -1.317024   7.861670  -0.155127  -0.704440   1.487075   0.000000
    27  S    0.278788  -0.155127  16.442875  -0.268393  -0.469823  -0.000000
    28  N    2.265688  -0.704440  -0.268393   8.772107  -2.061155  -0.000001
    29  C   -6.902017   1.487075  -0.469823  -2.061155  15.930556   0.000375
    30  H    0.000038   0.000000  -0.000000  -0.000001   0.000375   0.691396
    31  H   -0.000006   0.000000   0.000000   0.000000  -0.000060   0.004235
    32  H    0.000024  -0.000001  -0.000002  -0.000001   0.000071  -0.005763
    33  H   -0.018251   0.000013  -0.000156   0.000469  -0.051115  -0.001345
    34  H   -0.073200   0.015780  -0.047683   0.004568   0.050082  -0.000048
    35  H    0.000413   0.000005   0.000136   0.000027   0.001499   0.000105
    36  H    0.198815  -0.003801   0.000642   0.003559   0.057938   0.000034
    37  H   -0.391756  -0.003601  -0.023986   0.000724  -0.051799   0.000000
             31         32         33         34         35         36
     1  C   -0.234091  -0.061921  -0.000254   0.000080   0.004440   0.000016
     2  C    0.486454   0.081423   0.001653   0.001056  -0.006543   0.000430
     3  C    0.017164  -0.034599  -0.118954   0.004704  -0.043725   0.004750
     4  C    0.009723  -0.271817   0.116824  -0.000057  -0.039888  -0.001846
     5  C    0.082851   0.626183  -0.001751  -0.000781  -0.008182  -0.000581
     6  N    0.032086  -0.052900  -0.007152   0.000018  -0.000290   0.000053
     7  H   -0.004801  -0.032928   0.003918  -0.000001  -0.000005  -0.000105
     8  C    0.002860   0.142927   0.746109  -0.002797   0.004954  -0.015854
     9  C   -0.001646  -0.047991  -0.302718  -0.027643  -0.020449  -0.028587
    10  C   -0.008927  -0.006247  -0.284184  -0.025704  -0.019242   0.016397
    11  C   -0.001291   0.023277   0.023243  -0.157812  -0.007185  -0.042010
    12  O    0.000027  -0.000544   0.007392   0.043559   0.000824   0.032138
    13  C    0.000014  -0.004449  -0.019010  -0.210761  -0.012942  -0.384651
    14  C    0.000912   0.002226  -0.017992   0.542732   0.017050  -0.036707
    15  C    0.006269   0.001286   0.075834   0.129774   0.044664   0.047366
    16  N   -0.000462   0.000393  -0.003046  -0.028124  -0.146720   0.000748
    17  C   -0.023114   0.001085  -0.089963   0.035075   0.721105   0.020127
    18  C   -0.053839  -0.050521  -0.032502  -0.005124  -0.303506  -0.001836
    19  C   -0.044618  -0.098625   0.012022   0.001023  -0.026304   0.003315
    20  Se  -0.077742   0.001278  -0.001523   0.000011  -0.000046   0.000040
    21  C   -0.000021  -0.000484   0.053693  -0.097141  -0.000616  -0.672015
    22  C    0.000055   0.000326   0.010440  -0.015354   0.000358   0.825131
    23  N    0.000000   0.000095  -0.004932  -0.000305   0.000003  -0.147561
    24  C   -0.000000   0.000044  -0.006792  -0.009470  -0.000054   0.070344
    25  C   -0.000006   0.000024  -0.018251  -0.073200   0.000413   0.198815
    26  N    0.000000  -0.000001   0.000013   0.015780   0.000005  -0.003801
    27  S    0.000000  -0.000002  -0.000156  -0.047683   0.000136   0.000642
    28  N    0.000000  -0.000001   0.000469   0.004568   0.000027   0.003559
    29  C   -0.000060   0.000071  -0.051115   0.050082   0.001499   0.057938
    30  H    0.004235  -0.005763  -0.001345  -0.000048   0.000105   0.000034
    31  H    0.580462   0.003523  -0.000452  -0.000002  -0.000579   0.000015
    32  H    0.003523   0.619380  -0.047413   0.000029  -0.000106   0.003525
    33  H   -0.000452  -0.047413   0.906648  -0.000468  -0.000253  -0.095919
    34  H   -0.000002   0.000029  -0.000468   0.636754   0.003072   0.002692
    35  H   -0.000579  -0.000106  -0.000253   0.003072   0.650618   0.000176
    36  H    0.000015   0.003525  -0.095919   0.002692   0.000176   0.871909
    37  H   -0.000000   0.000001   0.000047  -0.000133  -0.000001   0.002547
             37
     1  C    0.000000
     2  C   -0.000002
     3  C   -0.000017
     4  C   -0.000020
     5  C   -0.000003
     6  N    0.000000
     7  H    0.000000
     8  C    0.000032
     9  C   -0.000157
    10  C   -0.000286
    11  C    0.003508
    12  O   -0.000287
    13  C    0.004492
    14  C   -0.009846
    15  C   -0.001128
    16  N   -0.000004
    17  C   -0.000011
    18  C    0.000128
    19  C    0.000012
    20  Se  -0.000000
    21  C    0.049615
    22  C   -0.069303
    23  N   -0.132294
    24  C    0.792024
    25  C   -0.391756
    26  N   -0.003601
    27  S   -0.023986
    28  N    0.000724
    29  C   -0.051799
    30  H    0.000000
    31  H   -0.000000
    32  H    0.000001
    33  H    0.000047
    34  H   -0.000133
    35  H   -0.000001
    36  H    0.002547
    37  H    0.662135
 Mulliken atomic charges:
              1
     1  C   -0.449204
     2  C    1.113057
     3  C   -0.794844
     4  C   -0.267098
     5  C    0.417952
     6  N   -0.360045
     7  H    0.343610
     8  C   -0.951904
     9  C    0.086653
    10  C    0.249279
    11  C    0.023555
    12  O   -0.387896
    13  C    0.656712
    14  C   -0.255101
    15  C   -0.313099
    16  N   -0.216235
    17  C    0.450627
    18  C   -0.053532
    19  C   -0.388540
    20  Se   0.011011
    21  C   -0.085293
    22  C   -0.092911
    23  N   -0.122721
    24  C   -0.537993
    25  C    0.418642
    26  N   -0.301026
    27  S    0.977642
    28  N   -0.435198
    29  C   -0.315148
    30  H    0.140071
    31  H    0.225000
    32  H    0.209217
    33  H    0.147842
    34  H    0.231598
    35  H    0.187188
    36  H    0.268764
    37  H    0.169369
 Sum of Mulliken atomic charges =  -0.00000
 Mulliken charges with hydrogens summed into heavy atoms:
              1
     1  C   -0.309132
     2  C    1.338057
     3  C   -0.794844
     4  C   -0.267098
     5  C    0.627170
     6  N   -0.016436
     8  C   -0.804063
     9  C    0.086653
    10  C    0.249279
    11  C    0.023555
    12  O   -0.387896
    13  C    0.656712
    14  C   -0.023503
    15  C   -0.313099
    16  N   -0.216235
    17  C    0.637815
    18  C   -0.053532
    19  C   -0.388540
    20  Se   0.011011
    21  C   -0.085293
    22  C    0.175853
    23  N   -0.122721
    24  C   -0.368624
    25  C    0.418642
    26  N   -0.301026
    27  S    0.977642
    28  N   -0.435198
    29  C   -0.315148
 Sum of Mulliken charges with hydrogens summed into heavy atoms =  -0.00000
 Electronic spatial extent (au):  <R**2>=          21409.9084
 Charge=             -0.0000 electrons
 Dipole moment (field-independent basis, Debye):
    X=              3.4646    Y=              3.5892    Z=             -0.9145  Tot=              5.0717
 Quadrupole moment (field-independent basis, Debye-Ang):
   XX=           -190.1340   YY=           -188.2825   ZZ=           -176.6356
   XY=            -21.1502   XZ=              9.2539   YZ=             -3.1522
 Traceless Quadrupole moment (field-independent basis, Debye-Ang):
   XX=             -5.1166   YY=             -3.2651   ZZ=              8.3817
   XY=            -21.1502   XZ=              9.2539   YZ=             -3.1522
 Octapole moment (field-independent basis, Debye-Ang**2):
  XXX=            121.7181  YYY=             17.0025  ZZZ=             21.5421  XYY=           -101.6370
[...]
 0177270,0.00310496,0.00577149,0.00610512,0.00139571,-0.00185591,-0.003
 49073,-0.00011093,-0.00042030,0.00219357,0.00026696,0.00076265,-0.0004
 1210,-0.00003915,-0.16029931,0.01963926,0.15142921,-0.00410922,-0.0073
 5140,0.00618534,-0.00363594,-0.00151379,0.00035929,0.00064313,0.001461
 08,-0.00124014,0.00084648,-0.00036050,0.00013988,-0.00000926,0.0001970
 1,0.00071756,-0.00026197,-0.00008857,-0.00058144,-0.00011182,-0.001635
 98,0.00086295,-0.00029210,0.00101783,0.00060165,0.00025159,0.00071925,
 -0.00016915,0.00106377,0.00119148,-0.00093326,0.00138334,-0.00012365,-
 0.00241579,-0.00004317,-0.00014018,0.00001987,0.00005085,-0.00021544,-
 0.00020980,0.00009151,0.00012857,-0.00019593,-0.00010396,0.00001592,0.
 00007993,0.00000924,0.00004900,0.00000421,0.00000980,0.00001147,0.0000
 2061,0.00000529,0.00003630,-0.00000713,-0.00001512,-0.00006145,0.00003
 516,0.00000165,0.00001195,-0.00001943,-0.00002746,-0.00003242,0.000022
 10,-0.00001724,-0.00002445,0.00007097,0.00018846,-0.00027686,-0.000344
 98,0.00080117,0.00147010,0.00019356,0.16165996,-0.00001986,-0.00026412
 ,-0.00001965,0.00021003,-0.00012870,-0.00042333,0.00025853,-0.00071006
 ,-0.00209543,-0.00101318,-0.00629305,0.00473382,-0.00015145,0.00161276
 ,-0.00124740,0.00123066,-0.00027293,0.00229869,-0.00080299,0.00034538,
 -0.00027734,-0.00932154,-0.01760506,0.00705055,0.02775859,-0.01907327,
 -0.03001332,-0.00003703,0.00383462,-0.00354875,-0.00046746,-0.00148833
 ,0.00146067,0.00005514,-0.00131010,0.00189387,-0.00019010,-0.00007302,
 0.00038875,0.00020373,0.00013555,-0.00005892,0.00017039,0.00102843,-0.
 00017304,0.00016426,-0.00048434,-0.00085741,0.00008357,-0.00045310,0.0
 0066520,-0.00002284,-0.00028275,-0.00126557,-0.00035362,0.00033552,0.0
 0125443,-0.00000235,0.00011554,0.00004730,-0.00016777,0.00038985,0.000
 46391,0.00019242,-0.00007194,-0.00051671,-0.00003481,0.00001673,0.0003
 4440,0.00004113,-0.00003960,-0.00015195,-0.00002780,-0.00002731,0.0000
 4097,0.00000674,-0.00003612,-0.00002487,-0.00002516,0.00001810,0.00007
 629,0.00000662,-0.00006136,-0.00001947,0.00002008,-0.00008368,-0.00017
 024,0.00002886,0.00000782,-0.00002099,-0.00003838,-0.00003294,0.000144
 25,-0.00015571,0.00029745,-0.00110861,-0.01733413,0.04049527,-0.000039
 68,0.00080782,-0.00000020,-0.00165257,-0.00007037,-0.00018509,-0.00141
 278,-0.00272025,0.00174946,0.00611868,0.00183847,0.00083498,-0.0012771
 6,-0.00340685,0.00071430,-0.00083239,0.00171722,-0.00076639,0.00097313
 ,-0.00042868,0.00011866,0.15094746,-0.03446151,-0.16878260,0.00710420,
 0.00950231,-0.00575254,-0.00497396,-0.00106166,0.00144374,0.00076634,-
 0.00021575,-0.00033785,0.00036474,0.00371710,-0.00644305,-0.00036055,0
 .00056024,0.00090756,-0.00004296,0.00060405,-0.00039235,0.00021714,-0.
 00150802,0.00029748,-0.00038523,0.00102195,0.00094445,0.00037142,0.000
 99815,-0.00040342,0.00039925,0.00129535,-0.00042975,0.00182105,0.00022
 185,-0.00265706,0.00002092,-0.00025244,-0.00007042,0.00008509,-0.00016
 310,-0.00027908,-0.00004715,0.00013993,0.00003649,0.00000823,-0.000016
 77,-0.00006967,-0.00001994,0.00005310,0.00009540,0.00002329,0.00004659
 ,-0.00002359,-0.00000337,0.00000963,-0.00001208,0.00000105,-0.00004519
 ,0.00000825,0.00000242,0.00003158,-0.00001779,-0.00003281,-0.00001587,
 0.00008444,-0.00000990,-0.00001509,0.00005097,0.00019295,-0.00047882,-
 0.00029639,0.00047602,0.00075713,0.00079379,-0.15909073,0.02139832,0.1
 7876926,0.00002368,-0.00000700,0.00003678,-0.00001105,0.00001358,0.000
 00636,0.00007541,0.00002362,-0.00003247,-0.00002186,-0.00006692,0.0000
 0612,-0.00005581,0.00003603,-0.00002334,-0.00001208,-0.00000472,0.0000
 1313,0.00001137,-0.00000253,0.00000164,0.00000845,0.00000078,-0.000007
 23,-0.00008827,0.00003358,0.00004956,0.00047343,-0.00036265,0.00019065
 ,0.00308487,0.00017241,0.00210354,0.00775566,-0.00002163,0.00152589,-0
 .00121919,0.00025893,-0.00018691,-0.06061569,-0.05521432,0.07857620,-0
 .00037293,-0.00395120,0.00245119,-0.00154379,0.00009570,-0.00111620,-0
 .00021457,0.00003446,0.00008473,0.00008474,0.00004278,-0.00008425,-0.0
 0008720,0.00000061,-0.00000175,-0.00001170,0.00000145,-0.00000947,-0.0
 0224979,0.00009837,-0.00076879,-0.00024023,-0.00000333,-0.00006494,0.0
 0028002,-0.00005919,0.00017897,0.00002664,0.00008739,-0.00001899,0.000
 27355,-0.00008353,0.00008030,0.00001245,-0.00007021,-0.00000609,-0.000
 07621,0.00006242,0.00034802,-0.00090285,0.00036529,0.00061593,0.000356
 15,0.00005751,-0.00023600,-0.00000109,-0.00000054,-0.00001416,-0.00000
 071,0.00000038,-0.00000185,0.00000278,-0.00000389,-0.00000133,0.000015
 06,0.00003303,0.00003136,0.05528008,-0.00001399,-0.00000597,0.00000313
 ,-0.00000386,0.00001861,-0.00000888,0.00001219,0.00004698,-0.00000821,
 0.00001778,0.00004176,-0.00006057,0.00001343,-0.00001021,-0.00001017,0
 .00000879,0.00000181,-0.00000383,-0.00000428,0.00000517,-0.00000251,0.
 00001228,-0.00005991,-0.00009565,0.00007034,-0.00003888,-0.00020717,0.
 00000851,0.00107804,0.00008914,0.00083722,-0.00288492,-0.00433933,-0.0
 0192222,-0.00451696,0.00214772,-0.00737786,-0.00515598,0.02224211,-0.0
 5394451,-0.15551404,0.13302496,0.00421378,0.01285842,-0.00970707,-0.00
 045339,0.00024977,0.00187671,0.00002523,0.00000388,-0.00000015,0.00000
 055,-0.00007178,0.00003549,-0.00004295,-0.00005444,0.00008365,0.000006
 60,-0.00000723,0.00001228,0.00032761,0.00069163,-0.00016139,-0.0000093
 7,-0.00014772,0.00005083,0.00001729,0.00011790,-0.00010214,-0.00002333
 ,-0.00012924,0.00001471,-0.00006693,-0.00007777,0.00014924,-0.00008347
 ,0.00076036,0.00050666,0.00029918,0.00044047,-0.00081030,-0.00023945,-
 0.00037850,0.00080047,-0.00013521,-0.00128292,-0.00015213,0.00000221,0
 .00000164,-0.00000175,-0.00000044,-0.00000200,-0.00000181,-0.00000399,
 0.00000035,-0.00000310,-0.00001711,0.00002388,0.00007711,0.05845206,0.
 15388563,0.00001354,-0.00001565,-0.00000527,-0.00000648,0.00001090,-0.
 00000167,-0.00000159,-0.00009703,0.00002512,-0.00001126,0.00014634,0.0
 0002446,-0.00001307,0.00000348,-0.00002619,0.00000291,-0.00000541,0.00
 000945,0.00000116,0.00000086,-0.00000520,0.00003486,-0.00004678,-0.000
 06502,0.00004221,-0.00007882,-0.00026001,0.00025543,0.00111011,0.00010
 348,0.00226292,-0.00195321,-0.00383840,0.00109161,-0.00377048,0.003594
 36,-0.00249348,-0.00247461,0.00585811,0.07910347,0.13750432,-0.2375024
 4,0.00472179,0.01543701,-0.00959707,-0.00129971,0.00011601,0.00198459,
 0.00008655,-0.00005363,-0.00046165,-0.00012423,-0.00015669,0.00038162,
 0.00002041,-0.00002120,-0.00006999,-0.00000598,0.00000643,0.00000169,-
 0.00071413,0.00067387,-0.00015144,-0.00006712,-0.00000004,-0.00006222,
 0.00018087,0.00010834,-0.00018168,-0.00004048,-0.00025538,0.00006214,0
 .00007336,0.00014761,0.00010025,-0.00000353,0.00042744,0.00017484,0.00
 039651,-0.00011795,-0.00125081,0.00046974,-0.00071299,-0.00238660,-0.0
 0025596,-0.00059491,0.00094105,-0.00000109,0.00000296,-0.00000293,-0.0
 0000024,-0.00000249,-0.00000421,-0.00000115,-0.00000114,-0.00000075,0.
 00000064,0.00002047,0.00003498,-0.08372938,-0.14545409,0.24260301,0.00
 000879,-0.00019613,0.00026878,0.00023010,-0.00005224,0.00016469,-0.000
 44555,-0.00034523,-0.00018078,-0.00007447,0.00028741,0.00038071,0.0001
 9445,0.00021031,0.00006991,0.00000234,-0.00012433,0.00004634,-0.000046
 97,0.00002053,-0.00000502,-0.00036720,0.00098502,-0.00037461,0.0005242
 9,-0.00138477,0.00005958,0.00345282,-0.00157255,0.00117859,-0.00019816
 ,-0.00016131,0.00106983,-0.00116534,0.00015586,-0.00017470,-0.00025076
 ,0.00028568,-0.00005248,0.00074305,0.00010568,-0.00010576,0.00996113,0
 .00051239,0.00498399,-0.00635944,0.01065399,0.00447917,-0.04144144,0.0
 1341166,0.01082596,0.00523105,-0.00712844,-0.00130787,-0.00167407,0.00
 058975,-0.00160144,-0.00005784,0.00008746,0.00001826,-0.00010031,0.000
 01876,-0.00011113,-0.00001896,0.00003224,0.00002251,0.00003098,-0.0000
 0806,0.00000262,-0.00000071,0.00000955,0.00001360,0.00000794,0.0000110
 4,0.00001027,-0.00000116,0.00001362,0.00000864,0.00000077,-0.00001155,
 -0.00000142,-0.00000620,-0.00000712,0.00000924,-0.00000024,0.00000614,
 -0.00001535,-0.00001207,0.00000309,-0.00009678,0.00000450,0.00004828,-
 0.00009354,-0.00002356,-0.00003922,-0.00003016,0.00027487,-0.00021094,
 0.00024138,0.00009097,-0.00000596,0.00003198,0.03150917,0.00013478,0.0
 0012412,-0.00021403,-0.00005872,-0.00017009,0.00052955,-0.00015570,0.0
 0033522,0.00007955,0.00004555,-0.00024027,-0.00006578,0.00009901,0.000
 13841,-0.00002762,-0.00002014,-0.00004307,0.00010694,-0.00002193,0.000
 01259,-0.00000308,-0.00036961,-0.00033496,0.00003274,0.00057570,-0.000
 17852,-0.00079419,-0.00170300,-0.00138692,0.00332801,-0.00026143,0.000
 20414,0.00062871,-0.00000579,0.00007370,0.00020187,0.00012010,0.000176
 70,-0.00022110,-0.00003254,-0.00009191,-0.00006451,-0.00081027,0.00294
 228,0.00106150,0.00281229,0.00434703,-0.00653861,0.01362754,-0.2991337
 3,-0.09222367,0.00203799,-0.01813909,-0.01064668,0.00015105,0.00074067
 ,-0.00021615,-0.00002486,0.00002288,0.00009693,0.00002528,0.00000753,0
 .00003162,-0.00000631,0.00000954,0.00000504,0.00000241,-0.00000550,-0.
 00001946,-0.00000263,-0.00000971,0.00000186,0.00000432,-0.00000444,-0.
 00000441,0.00000089,-0.00001590,-0.00000672,-0.00000041,0.00001416,0.0
 0000568,0.00000192,-0.00000327,-0.00000692,-0.00001756,-0.00000787,-0.
 00000526,-0.00005589,-0.00009407,0.00007618,-0.00004021,-0.00003463,0.
 00014684,0.00000021,-0.00000172,-0.00001699,0.00015136,0.00002256,0.00
 014798,-0.00000723,-0.00000267,-0.00000114,-0.01619862,0.31072391,0.00
 005400,-0.00019114,0.00012348,0.00015329,0.00018818,-0.00034109,-0.000
 14260,-0.00064503,-0.00007789,-0.00011904,0.00027953,0.00029921,0.0000
 3281,-0.00004771,0.00003318,0.00000753,-0.00002331,-0.00001951,-0.0000
 0537,-0.00000264,-0.00000699,0.00016640,0.00052921,-0.00016296,-0.0003
 1688,0.00031041,0.00068716,0.00247589,0.00213247,-0.00249533,0.0002735
 1,-0.00008188,-0.00042845,-0.00048389,-0.00048045,0.00010444,-0.000005
 17,0.00010421,-0.00042429,-0.00000153,-0.00106876,0.00029630,0.0048318
 0,-0.00098106,-0.00291292,0.00345732,-0.03114653,-0.02240204,0.0107825
 5,-0.09075797,-0.08692756,-0.00040442,0.01777402,0.00995262,-0.0009757
 4,-0.00049031,0.00058030,-0.00002350,0.00010212,0.00002544,-0.00008447
 ,-0.00007235,0.00012107,0.00000884,-0.00001322,-0.00004125,0.00001340,
 -0.00002505,-0.00001735,-0.00000280,-0.00001504,0.00000222,0.00000418,
 0.,-0.00001048,0.00000276,-0.00003467,-0.00001919,-0.00000290,0.000008
 59,0.00001413,0.00001120,0.00001069,-0.00002882,0.00000706,0.00000449,
 0.00001689,0.00001521,0.00005383,-0.00007868,0.00001689,0.00002346,-0.
 00006996,-0.00001527,-0.00000670,0.00001948,-0.00002943,-0.00005949,-0
 .00002566,0.00003398,0.00001397,0.00001169,-0.01973137,0.10459554,0.10
 421100,0.00001396,0.00000507,-0.00000347,-0.00000218,-0.00000131,0.000
 00587,-0.00001072,-0.00001705,0.00000100,-0.00002610,0.00002365,0.0000
 4881,0.00000736,0.00003331,-0.00001564,0.00000092,-0.00001809,0.000015
 99,-0.00000284,0.00000248,0.00000037,-0.00006085,0.00009038,-0.0001829
 0,-0.00003082,-0.00007959,0.00002835,0.00020374,-0.00003231,0.00004690
 ,-0.00026632,0.00001933,-0.00030414,0.00008730,0.00086916,0.00022261,-
 0.00285637,0.00019226,-0.00030856,-0.00002840,0.00001403,-0.00003211,0
 .00001402,0.00008052,0.00001848,-0.00000287,0.00001654,-0.00002908,0.0
 0003293,-0.00001196,0.00001811,0.00000607,0.00001288,0.00002276,-0.000
 00814,0.00000971,-0.00001992,-0.00000054,-0.00000308,-0.00000272,0.005
 07758,-0.00159936,0.00505898,-0.07332641,-0.03118399,0.08627034,-0.001
 30346,0.00155382,0.00399915,0.00574702,-0.00005213,0.00145793,-0.00058
 153,0.00007802,-0.00030817,-0.00027128,0.00004239,-0.00007337,-0.00114
 762,0.00003617,-0.00037818,0.00081314,-0.00011371,0.00043497,0.0069055
 9,-0.00122593,0.00186553,0.00000140,-0.00000407,-0.00000101,-0.0000017
 2,-0.00000112,0.00000146,0.00000317,-0.00000156,-0.00000717,0.00013300
 ,-0.00007613,0.00001454,-0.00002729,0.00001141,0.00000149,-0.00001572,
 0.00000120,-0.00000366,0.06046769,0.00006004,-0.00005213,-0.00002730,-
 0.00001170,0.00001574,0.00001151,-0.00000713,0.00001162,-0.00002459,0.
 00001982,-0.00002441,-0.00002119,0.00002168,0.00007660,-0.00003252,-0.
 00001082,-0.00003566,0.00007088,-0.00000697,-0.00000036,-0.00000380,0.
 00006574,-0.00007277,-0.00019480,-0.00000916,0.00002973,0.00006630,-0.
 00006552,0.00006492,0.00008716,0.00036339,-0.00095360,-0.00127951,0.00
 012630,-0.00003236,-0.00038881,-0.00044230,-0.00026345,0.00227966,0.00
 007643,0.00042061,-0.00008878,0.00007286,0.00029818,-0.00012822,-0.000
 00227,0.00013365,0.00002597,0.00003445,0.00006150,-0.00006741,-0.00002
 169,-0.00006298,0.00005832,-0.00003527,-0.00004239,-0.00001872,-0.0000
 1685,0.00003679,0.00003207,-0.00985466,-0.00465721,0.02702414,-0.03134
 897,-0.08430581,0.08386254,0.01012899,0.00524924,-0.02962519,0.0007067
 2,-0.00209045,-0.00485070,0.00007967,-0.00082599,-0.00032360,0.0000863
 8,0.00046562,-0.00003214,-0.00003298,-0.00035971,0.00039645,-0.0005877
 2,-0.00011121,0.00149214,-0.00094579,-0.00514096,-0.00109349,0.0000031
 5,0.00000288,-0.00000375,-0.00000652,0.00001448,0.00001227,-0.00000545
 ,0.00000318,-0.00000460,-0.00004366,0.00010179,-0.00007487,-0.00000951
 ,0.00009784,0.00005668,-0.00000091,0.00000246,0.00001134,0.03142539,0.
 09169116,0.00001716,-0.00000559,-0.00000110,0.00000235,0.00001902,0.00
 001300,0.00003449,0.00016478,-0.00004656,0.00006586,-0.00008673,-0.000
 07645,-0.00000438,0.00002235,-0.00002876,0.00000935,-0.00000644,0.0000
 3375,-0.00000777,0.00000426,-0.00000324,0.00019262,-0.00004334,-0.0002
 8327,-0.00014169,0.00017452,0.00013892,-0.00002870,-0.00000247,0.00019
 543,-0.00018024,-0.00023690,0.00004460,0.00003484,-0.00238970,-0.00075
 443,-0.00055869,0.00000690,-0.00121814,-0.00002832,0.00018360,0.000086
 85,0.00004019,-0.00010753,-0.00010957,-0.00001649,0.00002020,0.0000450
 8,0.00001922,0.00000877,-0.00003675,0.00001305,-0.00007878,-0.00004055
 ,-0.00006711,-0.00004478,0.00010017,0.00000011,0.00000267,0.00000291,0
 .00242489,0.00158182,-0.00029903,0.08613347,0.08305749,-0.28311694,0.0
 0667847,-0.00303885,-0.02214688,0.00169411,-0.00254924,0.00018098,-0.0
 0026875,-0.00022265,0.00014707,-0.00007095,0.00008642,-0.00003801,-0.0
 0041004,0.00019884,0.00003768,0.00028774,-0.00000735,0.00005722,0.0020
 1039,-0.00022435,0.00140549,-0.00000018,-0.00000221,-0.00000180,-0.000
 00588,0.00000081,0.00000895,0.00000128,0.00000154,-0.00001425,-0.00009
 933,-0.00024100,0.00006055,-0.00000321,0.00000536,-0.00001383,-0.00000
 259,0.00000071,-0.00000474,-0.09810648,-0.07647973,0.30612074,0.000002
 81,-0.00000637,-0.00000376,0.00000259,0.00000163,0.00000131,-0.0000143
 5,-0.00000465,0.00000021,-0.00000725,0.00000420,0.00000143,0.00000453,
 0.00000577,-0.00000437,-0.00000105,-0.00000248,0.00000734,0.00000004,-
 0.00000026,-0.00000031,-0.00000078,0.00000498,-0.00000411,-0.00000590,
 -0.00000678,-0.00000233,0.00001596,-0.00000272,-0.00001346,-0.00000628
 ,-0.00002291,-0.00001004,0.00004261,0.00005321,0.00000380,-0.00184633,
 0.00022122,-0.00063116,0.00002228,0.00002226,0.00004764,0.00025483,0.0
 0000329,0.00006831,0.00003036,-0.00000227,0.00001220,-0.00003768,0.000
 00562,-0.00000875,-0.00001616,0.00000994,0.00000498,0.00002779,-0.0000
 0153,-0.00000118,-0.00000056,0.00000059,0.00000032,-0.00079269,0.00010
 927,0.00001967,0.01081547,-0.00120276,0.00461865,-0.00763643,0.0082827
 0,0.00805702,-0.04421538,0.02359675,0.02394716,0.00776462,-0.00511879,
 -0.00267127,-0.00113257,0.00070056,-0.00080454,-0.00058716,0.00010370,
 -0.00032027,0.00011441,-0.00055801,-0.00010349,0.00364045,-0.00116383,
 0.00205534,0.00000101,0.00000153,-0.00000105,-0.00000078,0.00000125,0.
 00000105,0.00000100,-0.00000003,-0.00000115,0.00000446,-0.00001052,0.0
 0000054,-0.00010296,0.00001184,-0.00002258,-0.00000707,0.00000126,-0.0
 0000057,0.00045631,0.00019482,0.00034117,0.03320986,0.00000892,-0.0000
 0946,-0.00000299,0.00000148,-0.00000308,0.00000160,-0.00001261,-0.0000
 1303,0.00000311,-0.00000975,0.00001590,0.00000484,0.00000373,0.0000070
 3,-0.00000728,-0.00000173,-0.00000388,0.00001074,-0.00000048,-0.000000
 59,-0.00000067,0.00000799,0.00001197,0.00002322,-0.00000352,-0.0000453
 6,-0.00000284,0.00003336,-0.00001388,-0.00008329,-0.00002171,0.0000920
 9,0.00009430,0.00004414,-0.00004019,-0.00015363,0.00019958,0.00023418,
 0.00007348,0.00000434,-0.00008386,-0.00002875,-0.00003829,0.00002118,0
 .00003179,0.00000443,-0.00002480,-0.00003518,-0.00001243,-0.00002457,0
 .00005756,0.00000264,0.00006538,0.00000902,0.00000565,-0.00000550,-0.0
 0001633,-0.00000424,0.00000576,0.00000397,-0.00014901,-0.00048264,0.00
 059607,-0.00191287,0.00230590,0.00276959,0.00069300,0.01392379,0.00406
 589,0.02402080,-0.23117440,-0.13554292,0.00379987,-0.01701216,-0.01950
 961,0.00046883,0.00226870,-0.00030140,0.00005163,-0.00100666,-0.000264
 41,-0.00012829,-0.00164698,-0.00016564,-0.00171649,-0.00174974,0.00336
 736,0.00000113,0.00000127,-0.00000177,-0.00000038,0.00000444,0.0000009
 9,-0.00000028,0.00000100,-0.00000035,-0.00000760,0.00001053,-0.0000106
 3,-0.00000196,0.00001700,0.00004078,-0.00000109,0.00000044,0.00000125,
 -0.00009631,0.00025346,0.00022754,-0.02523249,0.23410078,-0.00001480,0
 .00001333,0.00000612,0.00000183,-0.00000206,-0.00000410,0.00000498,-0.
 00000486,0.00000490,-0.00000304,0.00000330,0.00000417,-0.00000403,-0.0
 0001098,0.00001321,0.00000134,0.00000515,-0.00001940,0.00000162,0.0000
 0037,0.00000216,-0.00001670,-0.00000268,0.00000605,0.00000439,0.000001
 14,-0.00001317,-0.00000077,0.00000058,0.00002461,-0.00000586,0.0000767
 5,0.00005130,0.00000793,-0.00009943,-0.00002632,-0.00064834,-0.0000621
 8,-0.00006534,0.00003147,-0.00007973,-0.00009581,0.00005459,-0.0000576
 7,0.00007493,0.00001576,-0.00001754,-0.00001177,-0.00000984,0.00000003
 ,-0.00000873,0.00000061,-0.00002070,-0.00001785,0.00000568,0.00001024,
 0.00001030,0.00000521,-0.00000909,-0.00000730,-0.00006526,-0.00018625,
 -0.00067719,0.00441714,0.00062168,-0.00112422,0.00563235,-0.01973685,-
 0.02970575,0.02409546,-0.13422314,-0.15633929,0.00011696,0.00834990,0.
 00966775,-0.00087162,-0.00102408,0.00094118,-0.00033437,-0.00041034,0.
 00021276,0.00003036,0.00117801,0.00041838,0.00190520,0.00166517,-0.000
 97504,-0.00000104,-0.00000128,0.00000156,0.00000143,-0.00000402,-0.000
 00277,0.00000052,-0.00000100,0.00000262,0.00001072,0.00001161,0.000000
 21,-0.00002801,-0.00000332,-0.00002347,-0.00000106,-0.00000092,-0.0000
 0343,0.00024294,-0.00072372,-0.00044509,-0.03458375,0.14474458,0.17812
 383\\0.00000639,-0.00000405,-0.00000406,-0.00001280,-0.00000377,0.0000
 0384,0.00001509,-0.00002464,-0.00003853,-0.00001322,0.00003748,0.00003
 424,0.00000174,0.00000146,0.00000631,-0.00000039,-0.00000110,-0.000003
 77,0.00000610,-0.00000067,0.00000187,-0.00000734,-0.00000305,-0.000018
 11,0.00001483,0.00000449,0.00000820,0.00000687,-0.00002401,-0.00000492
 ,-0.00000243,0.00000813,0.00000383,0.00000385,0.00000058,-0.00001185,-
 0.00000336,-0.00000681,0.00001285,-0.00000821,0.00000719,0.00000275,0.
 00000471,-0.00001363,-0.00000902,-0.00000644,0.00001111,0.00001256,0.0
 0000681,-0.00000351,-0.00001922,-0.00000790,0.00000714,0.00001469,-0.0
 0000557,0.00000557,0.00000244,-0.00000209,0.00000531,0.00000344,-0.000
 00006,0.00000357,-0.00000041,-0.00000001,-0.00000123,-0.00000103,0.000
 00055,-0.00000071,-0.00000030,0.00000077,0.00000039,0.00000348,-0.0000
 0332,0.00000043,0.00000565,0.00000427,0.00001243,-0.00000055,-0.000004
 74,-0.00000912,0.00000087,0.00000392,0.00000042,-0.00000493,-0.0000004
 4,-0.00000566,-0.00000260,-0.00000263,-0.00000196,-0.00000103,0.000000
 75,0.00000147,0.00000047,-0.00000011,-0.00000291,-0.00000226,0.0000040
 4,0.00000016,0.00000451,0.00000084,-0.00000003,-0.00000192,-0.00000249
 ,0.00000264,0.00000089,0.00000019,-0.00000114,0.00000220,0.00000182,-0
 .00000195,-0.00000058\\\@


 THE CAUTIOUS SELDOM ERR...CONFUCIUS                   
 Job cpu time:  0 days 16 hours 47 minutes  8.7 seconds.
 File lengths (MBytes):  RWF=   1487 Int=      0 D2E=      0 Chk=     27 Scr=      1
 Normal termination of Gaussian 09 at Mon Dec 30 10:12:23 2013.
