 Entering Gaussian System, Link 0=g09
 Initial command:
 /opt/gaussian/g09/l1.exe /scratch/shuo/g09_M42/599131.mgmt1/Gau-4906.inp -scrdir=/scratch/shuo/g09_M42/599131.mgmt1/
 Default is to use a total of  12 processors:
                               12 via shared-memory
                                1 via Linda
 Entering Link 1 = /opt/gaussian/g09/l1.exe PID=      4907.
  
 Copyright (c) 1988,1990,1992,1993,1995,1998,2003,2009,2011,
            Gaussian, Inc.  All Rights Reserved.
  
 This is part of the Gaussian(R) 09 program.  It is based on
 the Gaussian(R) 03 system (copyright 2003, Gaussian, Inc.),
 the Gaussian(R) 98 system (copyright 1998, Gaussian, Inc.),
 the Gaussian(R) 94 system (copyright 1995, Gaussian, Inc.),
 the Gaussian 92(TM) system (copyright 1992, Gaussian, Inc.),
 the Gaussian 90(TM) system (copyright 1990, Gaussian, Inc.),
 the Gaussian 88(TM) system (copyright 1988, Gaussian, Inc.),
 the Gaussian 86(TM) system (copyright 1986, Carnegie Mellon
 University), and the Gaussian 82(TM) system (copyright 1983,
 Carnegie Mellon University). Gaussian is a federally registered
 trademark of Gaussian, Inc.
  
 This software contains proprietary and confidential information,
 including trade secrets, belonging to Gaussian, Inc.
  
 This software is provided under written license and may be
 used, copied, transmitted, or stored only in accord with that
 written license.
  
 The following legend is applicable only to US Government
 contracts under FAR:
  
                    RESTRICTED RIGHTS LEGEND
  
 Use, reproduction and disclosure by the US Government is
 subject to restrictions as set forth in subparagraphs (a)
 and (c) of the Commercial Computer Software - Restricted
 Rights clause in FAR 52.227-19.
  
 Gaussian, Inc.
 340 Quinnipiac St., Bldg. 40, Wallingford CT 06492
  
  
 ---------------------------------------------------------------
 Warning -- This program may not be used in any manner that
 competes with the business of Gaussian, Inc. or will provide
 assistance to any competitor of Gaussian, Inc.  The licensee
 of this program is prohibited from giving any competitor of
 Gaussian, Inc. access to this program.  By using this program,
 the user acknowledges that Gaussian, Inc. is engaged in the
 business of creating and licensing software in the field of
 computational chemistry and represents and warrants to the
 licensee that it is not a competitor of Gaussian, Inc. and that
 it will not use this program in any manner prohibited above.
 ---------------------------------------------------------------
  

 Cite this work as:
 Gaussian 09, Revision C.01,
 M. J. Frisch, G. W. Trucks, H. B. Schlegel, G. E. Scuseria, 
 M. A. Robb, J. R. Cheeseman, G. Scalmani, V. Barone, B. Mennucci, 
 G. A. Petersson, H. Nakatsuji, M. Caricato, X. Li, H. P. Hratchian, 
 A. F. Izmaylov, J. Bloino, G. Zheng, J. L. Sonnenberg, M. Hada, 
 M. Ehara, K. Toyota, R. Fukuda, J. Hasegawa, M. Ishida, T. Nakajima, 
 Y. Honda, O. Kitao, H. Nakai, T. Vreven, J. A. Montgomery, Jr., 
 J. E. Peralta, F. Ogliaro, M. Bearpark, J. J. Heyd, E. Brothers, 
 K. N. Kudin, V. N. Staroverov, T. Keith, R. Kobayashi, J. Normand, 
 K. Raghavachari, A. Rendell, J. C. Burant, S. S. Iyengar, J. Tomasi, 
 M. Cossi, N. Rega, J. M. Millam, M. Klene, J. E. Knox, J. B. Cross, 
 V. Bakken, C. Adamo, J. Jaramillo, R. Gomperts, R. E. Stratmann, 
 O. Yazyev, A. J. Austin, R. Cammi, C. Pomelli, J. W. Ochterski, 
 R. L. Martin, K. Morokuma, V. G. Zakrzewski, G. A. Voth, 
 P. Salvador, J. J. Dannenberg, S. Dapprich, A. D. Daniels, 
 O. Farkas, J. B. Foresman, J. V. Ortiz, J. Cioslowski, 
 and D. J. Fox, Gaussian, Inc., Wallingford CT, 2010.
 
 ******************************************
 Gaussian 09:  EM64L-G09RevC.01 23-Sep-2011
                12-Jul-2016 
 ******************************************
 %chk=/panfs/panfs.cluster/scratch/shuo/M7_hseh1pbe/pphr/pphr_frag_HSEh1PBE.chk
 %NProcshared=12
 Will use up to   12 processors via shared memory.
 %Mem=8000MB
 Default route:  MaxDisk=100GB
 ----------------------------------------------------------------------
 #p HSEh1PBE/6-311+G(d,p) geom=allcheck td(singlets,root=1,nstate=50) s
 cf=(maxcycle=512,novaracc) test
 ----------------------------------------------------------------------
 1/29=7,38=1/1;
 2/12=2,40=1/2;
 3/5=4,6=6,7=111,11=2,14=-4,16=1,25=1,30=1,74=-51/1,2,8,3;
 4//1;
 5/5=2,7=512,38=1/2;
 8/6=1,10=2,107=1,108=50/1;
 9/8=1,41=50,42=1,48=1/14;
 6/7=2,8=2,9=2,10=2/1;
 99/5=1,9=1/99;
 Leave Link    1 at Tue Jul 12 21:21:30 2016, MaxMem= 1048576000 cpu:       2.7
 (Enter /opt/gaussian/g09/l101.exe)
 Structure from the checkpoint file:  /panfs/panfs.cluster/scratch/shuo/M7_hseh1pbe/pphr/pphr_frag_HSEh1PBE.chk
 -----------------------------------------------------
 pphr_frag with HSEh1PBE, Tue Jul 12 11:18:14 CDT 2016
 -----------------------------------------------------
 Charge =  0 Multiplicity = 1
 Redundant internal coordinates found in file.
 C,0,-4.0577082562,6.7891265123,2.3526088337
 C,0,-3.5210663021,5.5515069236,2.0274199264
 C,0,-4.6164461799,4.692478628,1.810418474
 C,0,-5.4563916802,6.6508037598,2.2709357298
 N,0,-5.7942235417,5.3728375528,1.9380897156
 C,0,-6.4329311922,7.7180472291,2.599720488
 C,0,-7.7869495105,7.6814658574,2.0077553724
 N,0,-8.446985202,6.520050855,1.7585803745
 C,0,-9.6248422527,6.8680800604,1.1777196898
 C,0,-8.5646827826,8.789243845,1.6220544714
 C,0,-9.7283386732,8.2684451718,1.0671471827
 C,0,-10.6443715266,5.898953848,0.6898486427
 C,0,-10.6754384959,4.5268370249,1.263491315
 N,0,-9.5721388795,3.8572578072,1.685695579
 C,0,-11.3867685324,2.4943909272,1.8717339005
 C,0,-11.8192315232,3.7057534546,1.3502446699
 C,0,-7.6410803138,1.5971638073,2.2045235641
 N,0,-6.9311942829,2.7340069767,1.9602089545
 C,0,-5.6421721662,2.3368178945,1.7671014805
 C,0,-5.5330165085,0.9311566226,1.8583781699
 C,0,-6.7990269241,0.4654008984,2.1702364417
 C,0,-4.5272037577,3.259662571,1.4109827912
 C,0,-9.0808480883,1.5642147601,2.5389997724
 C,0,-9.9912615764,2.6149171226,2.0388488836
 H,0,-4.6236943503,0.3608624238,1.7312991057
 H,0,-7.1070147757,-0.5565506642,2.349647625
 Zn,0,-7.7008036411,4.6329796364,1.7151738699
 H,0,-2.4785290757,5.2720782516,1.968788827
 H,0,-3.5270660845,7.6954221484,2.614358922
 H,0,-5.9748702266,8.692382213,2.3949664677
 H,0,-6.5510368974,7.7024391495,3.7029658223
 H,0,-11.9779626181,1.6148708263,2.0915932258
 H,0,-12.8191428785,3.9907218243,1.0522024505
 H,0,-9.4828293594,0.5806421807,2.2661513616
 H,0,-9.1485756964,1.5750199941,3.646860682
 H,0,-8.2853857012,9.8293712853,1.7290590251
 H,0,-10.5609092756,8.8082470397,0.6353031152
 C,0,-3.1772019885,2.6652546247,1.7572937631
 C,0,-2.2603861453,2.3151376185,0.7595387946
 O,0,-2.6661062085,2.5391570318,-0.5200378326
 C,0,-1.0132288637,1.7706383126,1.0840850676
 H,0,-0.3038706729,1.4990146386,0.3123563247
 C,0,-0.6901185313,1.580981691,2.4210197497
 H,0,0.2770259995,1.1591887481,2.6782356167
 C,0,-1.5759636725,1.9189210656,3.4370415772
 H,0,-1.2997115159,1.762036247,4.4724122145
 C,0,-2.8186671642,2.4608880868,3.0985895232
 O,0,-3.7542468926,2.8243821813,4.0025890423
 H,0,-4.5479303338,3.2804790761,0.3005245316
 C,0,-1.7852125779,2.204383805,-1.5672577659
 C,0,-3.4689280207,2.6508722424,5.3707679237
 H,0,-0.8504757627,2.7758384749,-1.508185198
 H,0,-2.3032795779,2.461481124,-2.4919529953
 H,0,-1.5513762804,1.1324080978,-1.5725741812
 H,0,-2.5978839957,3.2422637595,5.6797298812
 H,0,-4.3497819139,3.0029633798,5.9078853476
 H,0,-3.2943032831,1.5957355561,5.6161327101
 C,0,-10.6153164928,5.7640099761,-0.8442196974
 C,0,-11.7947847731,5.972707355,-1.5761751092
 O,0,-12.8980537186,6.286114112,-0.8407078959
 C,0,-11.8153209691,5.867466531,-2.9686153341
 H,0,-12.7273949711,6.0392357308,-3.5266772949
 C,0,-10.6464765588,5.5298453421,-3.6366232361
 H,0,-10.6556496774,5.4403655173,-4.7185993493
 C,0,-9.4674144779,5.297136264,-2.9424830171
 H,0,-8.5705238556,5.0196576769,-3.4819378059
 C,0,-9.4557986699,5.4093104196,-1.550131206
 O,0,-8.3260594152,5.1894830399,-0.8158045463
 H,0,-11.6212515559,6.3458596992,0.9059361256
 C,0,-7.08803954,5.159447081,-1.5046406531
 C,0,-14.0992223106,6.5584084415,-1.5242903796
 H,0,-14.8345104682,6.802414621,-0.7565560818
 H,0,-14.4483369875,5.6869935508,-2.0922279604
 H,0,-13.9930723103,7.4116853343,-2.2058654355
 H,0,-6.979623993,6.0320832258,-2.1577447861
 H,0,-6.9791831328,4.2419718761,-2.0948551007
 H,0,-6.314789991,5.1919320252,-0.7346902538
 Recover connectivity data from disk.
 NAtoms=     77 NQM=        0 NQMF=       0 NMMI=     77 NMMIF=      0
                NMic=       0 NMicF=      0.
                    Isotopes and Nuclear Properties:
 (Nuclear quadrupole moments (NQMom) in fm**2, nuclear magnetic moments (NMagM)
  in nuclear magnetons)

  Atom         1           2           3           4           5           6           7           8           9          10
 IAtWgt=          12          12          12          12          14          12          12          14          12          12
 AtmWgt=  12.0000000  12.0000000  12.0000000  12.0000000  14.0030740  12.0000000  12.0000000  14.0030740  12.0000000  12.0000000
 NucSpn=           0           0           0           0           2           0           0           2           0           0
 AtZEff=  -3.6000000  -3.6000000  -3.6000000  -3.6000000  -4.5500000  -3.6000000  -3.6000000  -4.5500000  -3.6000000  -3.6000000
 NQMom=    0.0000000   0.0000000   0.0000000   0.0000000   2.0440000   0.0000000   0.0000000   2.0440000   0.0000000   0.0000000
 NMagM=    0.0000000   0.0000000   0.0000000   0.0000000   0.4037610   0.0000000   0.0000000   0.4037610   0.0000000   0.0000000

  Atom        11          12          13          14          15          16          17          18          19          20
 IAtWgt=          12          12          12          14          12          12          12          14          12          12
 AtmWgt=  12.0000000  12.0000000  12.0000000  14.0030740  12.0000000  12.0000000  12.0000000  14.0030740  12.0000000  12.0000000
 NucSpn=           0           0           0           2           0           0           0           2           0           0
 AtZEff=  -3.6000000  -3.6000000  -3.6000000  -4.5500000  -3.6000000  -3.6000000  -3.6000000  -4.5500000  -3.6000000  -3.6000000
 NQMom=    0.0000000   0.0000000   0.0000000   2.0440000   0.0000000   0.0000000   0.0000000   2.0440000   0.0000000   0.0000000
 NMagM=    0.0000000   0.0000000   0.0000000   0.4037610   0.0000000   0.0000000   0.0000000   0.4037610   0.0000000   0.0000000

  Atom        21          22          23          24          25          26          27          28          29          30
 IAtWgt=          12          12          12          12           1           1          64           1           1           1
 AtmWgt=  12.0000000  12.0000000  12.0000000  12.0000000   1.0078250   1.0078250  63.9291454   1.0078250   1.0078250   1.0078250
 NucSpn=           0           0           0           0           1           1           0           1           1           1
 AtZEff=  -3.6000000  -3.6000000  -3.6000000  -3.6000000  -1.0000000  -1.0000000 -25.5000000  -1.0000000  -1.0000000  -1.0000000
 NQMom=    0.0000000   0.0000000   0.0000000   0.0000000   0.0000000   0.0000000   0.0000000   0.0000000   0.0000000   0.0000000
 NMagM=    0.0000000   0.0000000   0.0000000   0.0000000   2.7928460   2.7928460   0.0000000   2.7928460   2.7928460   2.7928460

  Atom        31          32          33          34          35          36          37          38          39          40
 IAtWgt=           1           1           1           1           1           1           1          12          12          16
 AtmWgt=   1.0078250   1.0078250   1.0078250   1.0078250   1.0078250   1.0078250   1.0078250  12.0000000  12.0000000  15.9949146
 NucSpn=           1           1           1           1           1           1           1           0           0           0
 AtZEff=  -1.0000000  -1.0000000  -1.0000000  -1.0000000  -1.0000000  -1.0000000  -1.0000000  -3.6000000  -3.6000000  -5.6000000
 NQMom=    0.0000000   0.0000000   0.0000000   0.0000000   0.0000000   0.0000000   0.0000000   0.0000000   0.0000000   0.0000000
 NMagM=    2.7928460   2.7928460   2.7928460   2.7928460   2.7928460   2.7928460   2.7928460   0.0000000   0.0000000   0.0000000

  Atom        41          42          43          44          45          46          47          48          49          50
 IAtWgt=          12           1          12           1          12           1          12          16           1          12
 AtmWgt=  12.0000000   1.0078250  12.0000000   1.0078250  12.0000000   1.0078250  12.0000000  15.9949146   1.0078250  12.0000000
 NucSpn=           0           1           0           1           0           1           0           0           1           0
 AtZEff=  -3.6000000  -1.0000000  -3.6000000  -1.0000000  -3.6000000  -1.0000000  -3.6000000  -5.6000000  -1.0000000  -3.6000000
 NQMom=    0.0000000   0.0000000   0.0000000   0.0000000   0.0000000   0.0000000   0.0000000   0.0000000   0.0000000   0.0000000
 NMagM=    0.0000000   2.7928460   0.0000000   2.7928460   0.0000000   2.7928460   0.0000000   0.0000000   2.7928460   0.0000000

  Atom        51          52          53          54          55          56          57          58          59          60
 IAtWgt=          12           1           1           1           1           1           1          12          12          16
 AtmWgt=  12.0000000   1.0078250   1.0078250   1.0078250   1.0078250   1.0078250   1.0078250  12.0000000  12.0000000  15.9949146
 NucSpn=           0           1           1           1           1           1           1           0           0           0
 AtZEff=  -3.6000000  -1.0000000  -1.0000000  -1.0000000  -1.0000000  -1.0000000  -1.0000000  -3.6000000  -3.6000000  -5.6000000
 NQMom=    0.0000000   0.0000000   0.0000000   0.0000000   0.0000000   0.0000000   0.0000000   0.0000000   0.0000000   0.0000000
 NMagM=    0.0000000   2.7928460   2.7928460   2.7928460   2.7928460   2.7928460   2.7928460   0.0000000   0.0000000   0.0000000

  Atom        61          62          63          64          65          66          67          68          69          70
 IAtWgt=          12           1          12           1          12           1          12          16           1          12
 AtmWgt=  12.0000000   1.0078250  12.0000000   1.0078250  12.0000000   1.0078250  12.0000000  15.9949146   1.0078250  12.0000000
 NucSpn=           0           1           0           1           0           1           0           0           1           0
 AtZEff=  -3.6000000  -1.0000000  -3.6000000  -1.0000000  -3.6000000  -1.0000000  -3.6000000  -5.6000000  -1.0000000  -3.6000000
 NQMom=    0.0000000   0.0000000   0.0000000   0.0000000   0.0000000   0.0000000   0.0000000   0.0000000   0.0000000   0.0000000
 NMagM=    0.0000000   2.7928460   0.0000000   2.7928460   0.0000000   2.7928460   0.0000000   0.0000000   2.7928460   0.0000000

  Atom        71          72          73          74          75          76          77
 IAtWgt=          12           1           1           1           1           1           1
 AtmWgt=  12.0000000   1.0078250   1.0078250   1.0078250   1.0078250   1.0078250   1.0078250
 NucSpn=           0           1           1           1           1           1           1
 AtZEff=  -3.6000000  -1.0000000  -1.0000000  -1.0000000  -1.0000000  -1.0000000  -1.0000000
 NQMom=    0.0000000   0.0000000   0.0000000   0.0000000   0.0000000   0.0000000   0.0000000
 NMagM=    0.0000000   2.7928460   2.7928460   2.7928460   2.7928460   2.7928460   2.7928460
 Leave Link  101 at Tue Jul 12 21:21:30 2016, MaxMem= 1048576000 cpu:       2.7
 (Enter /opt/gaussian/g09/l202.exe)
 Stoichiometry    C36H32N4O4Zn
 Framework group  C1[X(C36H32N4O4Zn)]
 Deg. of freedom   225
 Full point group                 C1      NOp   1
 RotChk:  IX=0 Diff= 2.26D-15
 Largest Abelian subgroup         C1      NOp   1
 Largest concise Abelian subgroup C1      NOp   1
                         Standard orientation:                         
 ---------------------------------------------------------------------
 Center     Atomic      Atomic             Coordinates (Angstroms)
 Number     Number       Type             X           Y           Z
 ---------------------------------------------------------------------
      1          6           0        2.280094   -3.325342   -0.980424
      2          6           0        3.099540   -2.429455   -0.308615
      3          6           0        2.362971   -1.234199   -0.191537
      4          6           0        1.058992   -2.660194   -1.200892
      5          7           0        1.111264   -1.386861   -0.717152
      6          6           0       -0.091506   -3.228007   -1.945662
      7          6           0       -1.455305   -2.718978   -1.688628
      8          7           0       -1.707000   -1.419305   -1.381835
      9          6           0       -3.045775   -1.330485   -1.168149
     10          6           0       -2.648378   -3.465139   -1.713650
     11          6           0       -3.661786   -2.583314   -1.354988
     12          6           0       -3.753977   -0.088049   -0.754062
     13          6           0       -3.134617    1.232635   -1.045474
     14          7           0       -1.794925    1.453452   -1.063586
     15          6           0       -2.879417    3.426943   -1.401385
     16          6           0       -3.840300    2.439060   -1.236570
     17          6           0        0.868884    2.817567   -0.676921
     18          7           0        1.031712    1.477009   -0.496834
     19          6           0        2.264231    1.320933    0.062777
     20          6           0        2.881597    2.574690    0.270345
     21          6           0        2.006914    3.523206   -0.231863
     22          6           0        2.831017    0.008502    0.484555
     23          6           0       -0.306171    3.439242   -1.323959
     24          6           0       -1.630321    2.786954   -1.259723
     25          1           0        3.855613    2.731266    0.711963
     26          1           0        2.143143    4.595902   -0.278724
     27         30           0       -0.391646    0.015122   -0.805665
     28          1           0        4.109743   -2.585314    0.042954
     29          1           0        2.509749   -4.339613   -1.280391
     30          1           0       -0.084579   -4.317869   -1.830658
     31          1           0        0.126014   -3.069358   -3.022165
     32          1           0       -3.033931    4.483196   -1.579876
     33          1           0       -4.917041    2.541443   -1.239174
     34          1           0       -0.397232    4.473150   -0.968724
     35          1           0       -0.051717    3.554442   -2.398223
     36          1           0       -2.734190   -4.517787   -1.950062
     37          1           0       -4.717438   -2.791674   -1.239947
     38          6           0        4.342283    0.057425    0.581713
     39          6           0        4.995234   -0.068256    1.813178
     40          8           0        4.187060   -0.229253    2.896250
     41          6           0        6.391073   -0.026889    1.897645
     42          1           0        6.896604   -0.123438    2.850352
     43          6           0        7.130065    0.139953    0.734108
     44          1           0        8.213941    0.172109    0.794243
     45          6           0        6.514239    0.266339   -0.505251
     46          1           0        7.113244    0.394567   -1.398375
     47          6           0        5.119260    0.224316   -0.574938
     48          8           0        4.417928    0.336707   -1.723918
     49          1           0        2.485895   -0.101401    1.534694
     50          6           0        4.788390   -0.359387    4.163603
     51          6           0        5.126560    0.506277   -2.929120
     52          1           0        5.437446   -1.242494    4.214903
     53          1           0        3.970549   -0.475258    4.875828
     54          1           0        5.371830    0.531321    4.428322
     55          1           0        5.783724   -0.347994   -3.134728
     56          1           0        4.372488    0.575089   -3.713344
     57          1           0        5.723417    1.426982   -2.920429
     58          6           0       -4.121840   -0.112360    0.741433
     59          6           0       -5.456550    0.091320    1.125519
     60          8           0       -6.338159    0.300021    0.107901
     61          6           0       -5.838305    0.071751    2.468749
     62          1           0       -6.871788    0.220446    2.756186
     63          6           0       -4.870361   -0.134333    3.441906
     64          1           0       -5.158248   -0.145126    4.488695
     65          6           0       -3.538452   -0.319217    3.098386
     66          1           0       -2.796977   -0.462872    3.874271
     67          6           0       -3.167106   -0.302529    1.751840
     68          8           0       -1.872111   -0.476398    1.356076
     69          1           0       -4.719239   -0.097263   -1.272614
     70          6           0       -0.956588   -0.993208    2.306242
     71          6           0       -7.700637    0.458193    0.428636
     72          1           0       -8.220718    0.589811   -0.520994
     73          1           0       -7.868861    1.342406    1.056064
     74          1           0       -8.101851   -0.425910    0.939796
     75          1           0       -1.354397   -1.893400    2.787070
     76          1           0       -0.706988   -0.247432    3.070102
     77          1           0       -0.057625   -1.256059    1.745379
 ---------------------------------------------------------------------
 Rotational constants (GHZ):      0.1411748      0.0473384      0.0463233
 Leave Link  202 at Tue Jul 12 21:21:31 2016, MaxMem= 1048576000 cpu:       2.6
 (Enter /opt/gaussian/g09/l301.exe)
 Standard basis: 6-311+G(d,p) (5D, 7F)
 Ernie: Thresh=  0.10000D-02 Tol=  0.10000D-05 Strict=F.
 There are  1218 symmetry adapted basis functions of A   symmetry.
 Integral buffers will be    131072 words long.
 Raffenetti 2 integral format.
 Two-electron integral symmetry is turned on.
  1218 basis functions,  1934 primitive gaussians,  1269 cartesian basis functions
   169 alpha electrons      169 beta electrons
       nuclear repulsion energy      6558.9206398321 Hartrees.
 IExCor= 3909 DFT=T Ex+Corr=HSEH1PBE ExCW=0 ScaHFX=  0.250000
 ScaDFX=  0.750000  1.000000  1.000000  1.000000 ScalE2=  1.000000  1.000000
 IRadAn=      0 IRanWt=     -1 IRanGd=            0 ICorTp=0
  HFx wShort=  0.110000 wLong=  0.000000 cFull=  0.000000 cShort=  1.000000 cLong=  0.000000
  DFx wShort=  0.110000 wLong=  0.000000 cFull=  0.000000 cShort=  1.000000 cLong=  0.000000
 NAtoms=   77 NActive=   77 NUniq=   77 SFac= 1.00D+00 NAtFMM=   60 NAOKFM=T Big=T
 Leave Link  301 at Tue Jul 12 21:21:31 2016, MaxMem= 1048576000 cpu:       1.1
 (Enter /opt/gaussian/g09/l302.exe)
 NPDir=0 NMtPBC=     1 NCelOv=     1 NCel=       1 NClECP=     1 NCelD=      1
         NCelK=      1 NCelE2=     1 NClLst=     1 CellRange=     0.0.
 One-electron integrals computed using PRISM.
 NBasis=  1218 RedAO= T  NBF=  1218
 NBsUse=  1203 1.00D-06 NBFU=  1203
 Precomputing XC quadrature grid using
 IXCGrd= 2 IRadAn=           0 IRanWt=          -1 IRanGd=           0 AccXCQ= 0.00D+00.
 NRdTot=    5067 NPtTot=      650832 NUsed=      687315 NTot=      687347
 NSgBfM=  1186  1186  1186  1186  1186 NAtAll=    77    77.
 Leave Link  302 at Tue Jul 12 21:21:35 2016, MaxMem= 1048576000 cpu:      32.2
 (Enter /opt/gaussian/g09/l308.exe)
 Leave Link  308 at Tue Jul 12 21:21:38 2016, MaxMem= 1048576000 cpu:       8.9
 (Enter /opt/gaussian/g09/l303.exe)
 DipDrv:  MaxL=1.
 Leave Link  303 at Tue Jul 12 21:21:38 2016, MaxMem= 1048576000 cpu:       5.4
 (Enter /opt/gaussian/g09/l401.exe)
 Harris functional with IExCor= 1009 diagonalized for initial guess.
 ExpMin= 1.53D-02 ExpMax= 3.16D+05 ExpMxC= 1.12D+04 IAcc=3 IRadAn=         5 AccDes= 0.00D+00
 HarFok:  IExCor= 1009 AccDes= 0.00D+00 IRadAn=         5 IDoV= 1
 ScaDFX=  1.000000  1.000000  1.000000  1.000000
 FoFCou: FMM=F IPFlag=           0 FMFlag=      100000 FMFlg1=        2001
         NFxFlg=           0 DoJE=T BraDBF=F KetDBF=T FulRan=T
         Omega=  0.000000  0.000000  1.000000  0.000000  0.000000 ICntrl=     500 IOpCl=  0
         NMat0=    1 NMatS0=    1 NMatT0=    0 NMatD0=    1 NMtDS0=    0 NMtDT0=    0
         I1Cent=           4 NGrid=           0.
 Petite list used in FoFCou.
 Harris En= -3688.42454693228    
 Initial guess orbital symmetries:
       Occupied  (A) (A) (A) (A) (A) (A) (A) (A) (A) (A) (A) (A)
                 (A) (A) (A) (A) (A) (A) (A) (A) (A) (A) (A) (A)
                 (A) (A) (A) (A) (A) (A) (A) (A) (A) (A) (A) (A)
                 (A) (A) (A) (A) (A) (A) (A) (A) (A) (A) (A) (A)
                 (A) (A) (A) (A) (A) (A) (A) (A) (A) (A) (A) (A)
                 (A) (A) (A) (A) (A) (A) (A) (A) (A) (A) (A) (A)
                 (A) (A) (A) (A) (A) (A) (A) (A) (A) (A) (A) (A)
                 (A) (A) (A) (A) (A) (A) (A) (A) (A) (A) (A) (A)
                 (A) (A) (A) (A) (A) (A) (A) (A) (A) (A) (A) (A)
                 (A) (A) (A) (A) (A) (A) (A) (A) (A) (A) (A) (A)
                 (A) (A) (A) (A) (A) (A) (A) (A) (A) (A) (A) (A)
                 (A) (A) (A) (A) (A) (A) (A) (A) (A) (A) (A) (A)
                 (A) (A) (A) (A) (A) (A) (A) (A) (A) (A) (A) (A)
                 (A) (A) (A) (A) (A) (A) (A) (A) (A) (A) (A) (A)
                 (A)
       Virtual   (A) (A) (A) (A) (A) (A) (A) (A) (A) (A) (A) (A)
                 (A) (A) (A) (A) (A) (A) (A) (A) (A) (A) (A) (A)
                 (A) (A) (A) (A) (A) (A) (A) (A) (A) (A) (A) (A)
                 (A) (A) (A) (A) (A) (A) (A) (A) (A) (A) (A) (A)
                 (A) (A) (A) (A) (A) (A) (A) (A) (A) (A) (A) (A)
                 (A) (A) (A) (A) (A) (A) (A) (A) (A) (A) (A) (A)
                 (A) (A) (A) (A) (A) (A) (A) (A) (A) (A) (A) (A)
                 (A) (A) (A) (A) (A) (A) (A) (A) (A) (A) (A) (A)
                 (A) (A) (A) (A) (A) (A) (A) (A) (A) (A) (A) (A)
                 (A) (A) (A) (A) (A) (A) (A) (A) (A) (A) (A) (A)
                 (A) (A) (A) (A) (A) (A) (A) (A) (A) (A) (A) (A)
                 (A) (A) (A) (A) (A) (A) (A) (A) (A) (A) (A) (A)
                 (A) (A) (A) (A) (A) (A) (A) (A) (A) (A) (A) (A)
                 (A) (A) (A) (A) (A) (A) (A) (A) (A) (A) (A) (A)
                 (A) (A) (A) (A) (A) (A) (A) (A) (A) (A) (A) (A)
                 (A) (A) (A) (A) (A) (A) (A) (A) (A) (A) (A) (A)
                 (A) (A) (A) (A) (A) (A) (A) (A) (A) (A) (A) (A)
                 (A) (A) (A) (A) (A) (A) (A) (A) (A) (A) (A) (A)
                 (A) (A) (A) (A) (A) (A) (A) (A) (A) (A) (A) (A)
                 (A) (A) (A) (A) (A) (A) (A) (A) (A) (A) (A) (A)
                 (A) (A) (A) (A) (A) (A) (A) (A) (A) (A) (A) (A)
                 (A) (A) (A) (A) (A) (A) (A) (A) (A) (A) (A) (A)
                 (A) (A) (A) (A) (A) (A) (A) (A) (A) (A) (A) (A)
                 (A) (A) (A) (A) (A) (A) (A) (A) (A) (A) (A) (A)
                 (A) (A) (A) (A) (A) (A) (A) (A) (A) (A) (A) (A)
                 (A) (A) (A) (A) (A) (A) (A) (A) (A) (A) (A) (A)
                 (A) (A) (A) (A) (A) (A) (A) (A) (A) (A) (A) (A)
                 (A) (A) (A) (A) (A) (A) (A) (A) (A) (A) (A) (A)
                 (A) (A) (A) (A) (A) (A) (A) (A) (A) (A) (A) (A)
                 (A) (A) (A) (A) (A) (A) (A) (A) (A) (A) (A) (A)
                 (A) (A) (A) (A) (A) (A) (A) (A) (A) (A) (A) (A)
                 (A) (A) (A) (A) (A) (A) (A) (A) (A) (A) (A) (A)
                 (A) (A) (A) (A) (A) (A) (A) (A) (A) (A) (A) (A)
                 (A) (A) (A) (A) (A) (A) (A) (A) (A) (A) (A) (A)
                 (A) (A) (A) (A) (A) (A) (A) (A) (A) (A) (A) (A)
                 (A) (A) (A) (A) (A) (A) (A) (A) (A) (A) (A) (A)
                 (A) (A) (A) (A) (A) (A) (A) (A) (A) (A) (A) (A)
                 (A) (A) (A) (A) (A) (A) (A) (A) (A) (A) (A) (A)
                 (A) (A) (A) (A) (A) (A) (A) (A) (A) (A) (A) (A)
                 (A) (A) (A) (A) (A) (A) (A) (A) (A) (A) (A) (A)
                 (A) (A) (A) (A) (A) (A) (A) (A) (A) (A) (A) (A)
                 (A) (A) (A) (A) (A) (A) (A) (A) (A) (A) (A) (A)
                 (A) (A) (A) (A) (A) (A) (A) (A) (A) (A) (A) (A)
                 (A) (A) (A) (A) (A) (A) (A) (A) (A) (A) (A) (A)
                 (A) (A) (A) (A) (A) (A) (A) (A) (A) (A) (A) (A)
                 (A) (A) (A) (A) (A) (A) (A) (A) (A) (A) (A) (A)
                 (A) (A) (A) (A) (A) (A) (A) (A) (A) (A) (A) (A)
                 (A) (A) (A) (A) (A) (A) (A) (A) (A) (A) (A) (A)
                 (A) (A) (A) (A) (A) (A) (A) (A) (A) (A) (A) (A)
                 (A) (A) (A) (A) (A) (A) (A) (A) (A) (A) (A) (A)
                 (A) (A) (A) (A) (A) (A) (A) (A) (A) (A) (A) (A)
                 (A) (A) (A) (A) (A) (A) (A) (A) (A) (A) (A) (A)
                 (A) (A) (A) (A) (A) (A) (A) (A) (A) (A) (A) (A)
                 (A) (A) (A) (A) (A) (A) (A) (A) (A) (A) (A) (A)
                 (A) (A) (A) (A) (A) (A) (A) (A) (A) (A) (A) (A)
                 (A) (A) (A) (A) (A) (A) (A) (A) (A) (A) (A) (A)
                 (A) (A) (A) (A) (A) (A) (A) (A) (A) (A) (A) (A)
                 (A) (A) (A) (A) (A) (A) (A) (A) (A) (A) (A) (A)
                 (A) (A) (A) (A) (A) (A) (A) (A) (A) (A) (A) (A)
                 (A) (A) (A) (A) (A) (A) (A) (A) (A) (A) (A) (A)
                 (A) (A) (A) (A) (A) (A) (A) (A) (A) (A) (A) (A)
                 (A) (A) (A) (A) (A) (A) (A) (A) (A) (A) (A) (A)
                 (A) (A) (A) (A) (A) (A) (A) (A) (A) (A) (A) (A)
                 (A) (A) (A) (A) (A) (A) (A) (A) (A) (A) (A) (A)
                 (A) (A) (A) (A) (A) (A) (A) (A) (A) (A) (A) (A)
                 (A) (A) (A) (A) (A) (A) (A) (A) (A) (A) (A) (A)
                 (A) (A) (A) (A) (A) (A) (A) (A) (A) (A) (A) (A)
                 (A) (A) (A) (A) (A) (A) (A) (A) (A) (A) (A) (A)
                 (A) (A) (A) (A) (A) (A) (A) (A) (A) (A) (A) (A)
                 (A) (A) (A) (A) (A) (A) (A) (A) (A) (A) (A) (A)
                 (A) (A) (A) (A) (A) (A) (A) (A) (A) (A) (A) (A)
                 (A) (A) (A) (A) (A) (A) (A) (A) (A) (A) (A) (A)
                 (A) (A) (A) (A) (A) (A) (A) (A) (A) (A) (A) (A)
                 (A) (A) (A) (A) (A) (A) (A) (A) (A) (A) (A) (A)
                 (A) (A) (A) (A) (A) (A) (A) (A) (A) (A) (A) (A)
                 (A) (A) (A) (A) (A) (A) (A) (A) (A) (A) (A) (A)
                 (A) (A) (A) (A) (A) (A) (A) (A) (A) (A) (A) (A)
                 (A) (A) (A) (A) (A) (A) (A) (A) (A) (A) (A) (A)
                 (A) (A) (A) (A) (A) (A) (A) (A) (A) (A) (A) (A)
                 (A) (A) (A) (A) (A) (A) (A) (A) (A) (A) (A) (A)
                 (A) (A) (A) (A) (A) (A) (A) (A) (A) (A) (A) (A)
                 (A) (A) (A) (A) (A) (A) (A) (A) (A) (A) (A) (A)
                 (A) (A) (A) (A) (A) (A) (A) (A) (A) (A) (A) (A)
                 (A) (A) (A) (A) (A) (A) (A) (A) (A) (A) (A) (A)
                 (A) (A) (A) (A) (A) (A) (A) (A) (A) (A) (A) (A)
                 (A) (A) (A) (A) (A) (A) (A) (A) (A) (A) (A) (A)
                 (A) (A)
 The electronic state of the initial guess is 1-A.
 Leave Link  401 at Tue Jul 12 21:21:54 2016, MaxMem= 1048576000 cpu:     178.4
 (Enter /opt/gaussian/g09/l502.exe)
 Closed shell SCF:
 Requested convergence on RMS density matrix=1.00D-08 within 512 cycles.
 Requested convergence on MAX density matrix=1.00D-06.
 Requested convergence on             energy=1.00D-06.
 No special actions if energy rises.
 Using DIIS extrapolation, IDIIS=  1040.
 Integral symmetry usage will be decided dynamically.
       686609 words used for storage of precomputed grid.
 IEnd=     5808146 IEndB=     5808146 NGot=  1048576000 MDV=  1044642653
 LenX=  1044642653 LenY=  1043031023
 Fock matrices will be formed incrementally for  20 cycles.

 Cycle   1  Pass 1  IDiag  1:
 FoFJK:  IHMeth= 1 ICntrl=     0 DoSepK=T KAlg= 1 I1Cent= 0 FoldK=F
 FoFCou: FMM=T IPFlag=           0 FMFlag=      100000 FMFlg1=        2001
         NFxFlg=           0 DoJE=T BraDBF=F KetDBF=F FulRan=T
         Omega=  0.000000  0.000000  1.000000  0.000000  0.000000 ICntrl=     500 IOpCl=  0
         NMat0=    1 NMatS0=    1 NMatT0=    0 NMatD0=    1 NMtDS0=    0 NMtDT0=    0
         I1Cent=           0 NGrid=           0.
 Symmetry not used in FoFCou.
 FMM levels:  10  Number of levels for PrismC:   9
 E= -3687.44622063349    
 DIIS: error= 2.62D-02 at cycle   1 NSaved=   1.
 NSaved= 1 IEnMin= 1 EnMin= -3687.44622063349     IErMin= 1 ErrMin= 2.62D-02
 ErrMax= 2.62D-02 EMaxC= 1.00D-01 BMatC= 2.25D+00 BMatP= 2.25D+00
 IDIUse=3 WtCom= 7.38D-01 WtEn= 2.62D-01
 Coeff-Com:  0.100D+01
 Coeff-En:   0.100D+01
 Coeff:      0.100D+01
 Gap=    -0.021 Goal=   None    Shift=    0.000
 GapD=   -0.021 DampG=0.250 DampE=0.250 DampFc=0.1250 IDamp=-1.
 Damping current iteration by 1.25D-01
 RMSDP=3.16D-02 MaxDP=3.30D+00              OVMax= 5.51D-01

 Cycle   2  Pass 1  IDiag  1:
 RMSU=  2.79D-03    CP:  1.00D+00
 FoFJK:  IHMeth= 1 ICntrl=     0 DoSepK=T KAlg= 1 I1Cent= 0 FoldK=F
 E= -3687.66676587262     Delta-E=       -0.220545239132 Rises=F Damp=T
 DIIS: error= 2.26D-02 at cycle   2 NSaved=   2.
 NSaved= 2 IEnMin= 2 EnMin= -3687.66676587262     IErMin= 2 ErrMin= 2.26D-02
 ErrMax= 2.26D-02 EMaxC= 1.00D-01 BMatC= 1.32D+00 BMatP= 2.25D+00
 IDIUse=3 WtCom= 7.74D-01 WtEn= 2.26D-01
 Coeff-Com: -0.253D+01 0.353D+01
 Coeff-En:   0.000D+00 0.100D+01
 Coeff:     -0.196D+01 0.296D+01
 Gap=     0.043 Goal=   None    Shift=    0.000
 RMSDP=1.48D-02 MaxDP=1.78D+00 DE=-2.21D-01 OVMax= 8.46D-01

 Cycle   3  Pass 1  IDiag  1:
 RMSU=  7.21D-03    CP:  8.09D-01  1.81D+00
 FoFJK:  IHMeth= 1 ICntrl=     0 DoSepK=T KAlg= 1 I1Cent= 0 FoldK=F
 E= -3687.92859993858     Delta-E=       -0.261834065961 Rises=F Damp=F
 DIIS: error= 1.76D-02 at cycle   3 NSaved=   3.
 NSaved= 3 IEnMin= 3 EnMin= -3687.92859993858     IErMin= 3 ErrMin= 1.76D-02
 ErrMax= 1.76D-02 EMaxC= 1.00D-01 BMatC= 3.26D-01 BMatP= 1.32D+00
 IDIUse=3 WtCom= 8.24D-01 WtEn= 1.76D-01
 Coeff-Com: -0.133D+01 0.182D+01 0.514D+00
 Coeff-En:   0.000D+00 0.301D+00 0.699D+00
 Coeff:     -0.110D+01 0.155D+01 0.546D+00
 Gap=    -0.111 Goal=   None    Shift=    0.000
 RMSDP=1.36D-02 MaxDP=1.13D+00 DE=-2.62D-01 OVMax= 7.26D-01

 Cycle   4  Pass 1  IDiag  1:
 RMSU=  7.32D-03    CP:  8.26D-01  2.86D+00  2.41D-01
 FoFJK:  IHMeth= 1 ICntrl=     0 DoSepK=T KAlg= 1 I1Cent= 0 FoldK=F
 E= -3687.61479631944     Delta-E=        0.313803619145 Rises=F Damp=F
 DIIS: error= 1.71D-02 at cycle   4 NSaved=   4.
 NSaved= 4 IEnMin= 3 EnMin= -3687.92859993858     IErMin= 4 ErrMin= 1.71D-02
 ErrMax= 1.71D-02 EMaxC= 1.00D-01 BMatC= 5.22D-01 BMatP= 3.26D-01
 IDIUse=2 WtCom= 0.00D+00 WtEn= 1.00D+00
 Coeff-En:   0.000D+00 0.000D+00 0.577D+00 0.423D+00
 Coeff:      0.000D+00 0.000D+00 0.577D+00 0.423D+00
 Gap=    -0.025 Goal=   None    Shift=    0.000
 RMSDP=1.32D-02 MaxDP=1.33D+00 DE= 3.14D-01 OVMax= 9.49D-01

 Cycle   5  Pass 1  IDiag  1:
 RMSU=  5.55D-03    CP:  7.40D-01  1.60D+00  5.50D-01  2.73D-01
 FoFJK:  IHMeth= 1 ICntrl=     0 DoSepK=T KAlg= 1 I1Cent= 0 FoldK=F
 E= -3688.24489956390     Delta-E=       -0.630103244459 Rises=F Damp=F
 DIIS: error= 1.31D-02 at cycle   5 NSaved=   5.
 NSaved= 5 IEnMin= 5 EnMin= -3688.24489956390     IErMin= 5 ErrMin= 1.31D-02
 ErrMax= 1.31D-02 EMaxC= 1.00D-01 BMatC= 1.28D-01 BMatP= 3.26D-01
 IDIUse=3 WtCom= 8.69D-01 WtEn= 1.31D-01
 EnCoef did     3 forward-backward iterations
 Coeff-Com: -0.265D+00 0.368D+00 0.421D+00 0.291D+00 0.185D+00
 Coeff-En:   0.000D+00 0.000D+00 0.365D+00 0.258D+00 0.377D+00
 Coeff:     -0.230D+00 0.320D+00 0.413D+00 0.287D+00 0.210D+00
 Gap=     0.006 Goal=   None    Shift=    0.000
 RMSDP=6.36D-03 MaxDP=7.74D-01 DE=-6.30D-01 OVMax= 5.65D-01

 Cycle   6  Pass 1  IDiag  1:
 RMSU=  2.41D-03    CP:  7.65D-01  1.73D+00  5.17D-01  1.81D-01  3.50D-01
 FoFJK:  IHMeth= 1 ICntrl=     0 DoSepK=T KAlg= 1 I1Cent= 0 FoldK=F
 E= -3688.38424450484     Delta-E=       -0.139344940939 Rises=F Damp=F
 DIIS: error= 7.43D-03 at cycle   6 NSaved=   6.
 NSaved= 6 IEnMin= 6 EnMin= -3688.38424450484     IErMin= 6 ErrMin= 7.43D-03
 ErrMax= 7.43D-03 EMaxC= 1.00D-01 BMatC= 1.19D-02 BMatP= 1.28D-01
 IDIUse=3 WtCom= 9.26D-01 WtEn= 7.43D-02
 EnCoef did     2 forward-backward iterations
 Coeff-Com: -0.107D+00 0.135D+00 0.126D+00 0.144D+00 0.891D-01 0.613D+00
 Coeff-En:   0.000D+00 0.000D+00 0.000D+00 0.413D-01 0.824D-01 0.876D+00
 Coeff:     -0.989D-01 0.125D+00 0.117D+00 0.136D+00 0.886D-01 0.633D+00
 Gap=     0.006 Goal=   None    Shift=    0.000
 RMSDP=5.31D-03 MaxDP=4.27D-01 DE=-1.39D-01 OVMax= 5.62D-01

 Cycle   7  Pass 1  IDiag  1:
 RMSU=  3.21D-03    CP:  7.60D-01  1.97D+00  5.62D-01  2.93D-01  5.65D-01
                    CP:  5.68D-01
 FoFJK:  IHMeth= 1 ICntrl=     0 DoSepK=T KAlg= 1 I1Cent= 0 FoldK=F
 E= -3688.15795590376     Delta-E=        0.226288601076 Rises=F Damp=F
 DIIS: error= 1.50D-02 at cycle   7 NSaved=   7.
 NSaved= 7 IEnMin= 6 EnMin= -3688.38424450484     IErMin= 6 ErrMin= 7.43D-03
 ErrMax= 1.50D-02 EMaxC= 1.00D-01 BMatC= 1.31D-01 BMatP= 1.19D-02
 IDIUse=2 WtCom= 0.00D+00 WtEn= 1.00D+00
 EnCoef did     4 forward-backward iterations
 Coeff-En:   0.000D+00 0.000D+00 0.000D+00 0.223D-01 0.000D+00 0.841D+00
 Coeff-En:   0.137D+00
 Coeff:      0.000D+00 0.000D+00 0.000D+00 0.223D-01 0.000D+00 0.841D+00
 Coeff:      0.137D+00
 Gap=    -0.023 Goal=   None    Shift=    0.000
 RMSDP=5.64D-03 MaxDP=6.17D-01 DE= 2.26D-01 OVMax= 9.04D-01

 Cycle   8  Pass 1  IDiag  1:
 RMSU=  2.23D-03    CP:  7.81D-01  2.32D+00  4.73D-01  4.38D-01  1.83D-01
                    CP:  6.98D-01  4.37D-01
 FoFJK:  IHMeth= 1 ICntrl=     0 DoSepK=T KAlg= 1 I1Cent= 0 FoldK=F
 E= -3688.07902511853     Delta-E=        0.078930785226 Rises=F Damp=F
 DIIS: error= 1.18D-02 at cycle   8 NSaved=   8.
 NSaved= 8 IEnMin= 6 EnMin= -3688.38424450484     IErMin= 6 ErrMin= 7.43D-03
 ErrMax= 1.18D-02 EMaxC= 1.00D-01 BMatC= 1.67D-01 BMatP= 1.19D-02
 IDIUse=2 WtCom= 0.00D+00 WtEn= 1.00D+00
 EnCoef did     1 forward-backward iterations
 Coeff-En:   0.000D+00 0.000D+00 0.000D+00 0.000D+00 0.000D+00 0.767D+00
 Coeff-En:   0.123D+00 0.110D+00
 Coeff:      0.000D+00 0.000D+00 0.000D+00 0.000D+00 0.000D+00 0.767D+00
 Coeff:      0.123D+00 0.110D+00
 Gap=     0.003 Goal=   None    Shift=    0.000
 RMSDP=5.30D-03 MaxDP=6.49D-01 DE= 7.89D-02 OVMax= 6.50D-01

 Cycle   9  Pass 1  IDiag  1:
 RMSU=  1.12D-03    CP:  7.61D-01  1.96D+00  4.86D-01  2.06D-01  5.48D-01
                    CP:  1.02D+00  4.32D-02  3.53D-01
 FoFJK:  IHMeth= 1 ICntrl=     0 DoSepK=T KAlg= 1 I1Cent= 0 FoldK=F
 E= -3688.33260650827     Delta-E=       -0.253581389736 Rises=F Damp=F
 DIIS: error= 1.01D-02 at cycle   9 NSaved=   9.
 NSaved= 9 IEnMin= 6 EnMin= -3688.38424450484     IErMin= 6 ErrMin= 7.43D-03
 ErrMax= 1.01D-02 EMaxC= 1.00D-01 BMatC= 4.01D-02 BMatP= 1.19D-02
 IDIUse=2 WtCom= 0.00D+00 WtEn= 1.00D+00
 EnCoef did     7 forward-backward iterations
 Coeff-En:   0.000D+00 0.000D+00 0.000D+00 0.000D+00 0.000D+00 0.670D+00
 Coeff-En:   0.123D+00 0.603D-01 0.146D+00
 Coeff:      0.000D+00 0.000D+00 0.000D+00 0.000D+00 0.000D+00 0.670D+00
 Coeff:      0.123D+00 0.603D-01 0.146D+00
 Gap=     0.007 Goal=   None    Shift=    0.000
 RMSDP=3.27D-03 MaxDP=3.36D-01 DE=-2.54D-01 OVMax= 3.35D-01

 Cycle  10  Pass 1  IDiag  1:
 RMSU=  8.47D-04    CP:  7.72D-01  2.05D+00  5.15D-01  2.54D-01  3.87D-01
                    CP:  9.94D-01  5.35D-01  5.76D-01  2.70D-01
 FoFJK:  IHMeth= 1 ICntrl=     0 DoSepK=T KAlg= 1 I1Cent= 0 FoldK=F
 E= -3688.34446890053     Delta-E=       -0.011862392264 Rises=F Damp=F
 DIIS: error= 1.12D-02 at cycle  10 NSaved=  10.
 NSaved=10 IEnMin= 6 EnMin= -3688.38424450484     IErMin= 6 ErrMin= 7.43D-03
 ErrMax= 1.12D-02 EMaxC= 1.00D-01 BMatC= 3.28D-02 BMatP= 1.19D-02
 IDIUse=2 WtCom= 0.00D+00 WtEn= 1.00D+00
 EnCoef did     6 forward-backward iterations
 Coeff-En:   0.000D+00 0.000D+00 0.000D+00 0.000D+00 0.000D+00 0.612D+00
 Coeff-En:   0.483D-01 0.000D+00 0.977D-01 0.242D+00
 Coeff:      0.000D+00 0.000D+00 0.000D+00 0.000D+00 0.000D+00 0.612D+00
 Coeff:      0.483D-01 0.000D+00 0.977D-01 0.242D+00
 Gap=     0.009 Goal=   None    Shift=    0.000
 RMSDP=2.87D-03 MaxDP=3.94D-01 DE=-1.19D-02 OVMax= 3.62D-01

 Cycle  11  Pass 1  IDiag  1:
 RMSU=  6.96D-04    CP:  7.63D-01  1.89D+00  5.25D-01  1.86D-01  5.78D-01
                    CP:  8.29D-01  3.03D-01  1.25D-01  8.26D-02  5.30D-01
 FoFJK:  IHMeth= 1 ICntrl=     0 DoSepK=T KAlg= 1 I1Cent= 0 FoldK=F
 E= -3688.36976679404     Delta-E=       -0.025297893502 Rises=F Damp=F
 DIIS: error= 8.49D-03 at cycle  11 NSaved=  11.
 NSaved=11 IEnMin= 6 EnMin= -3688.38424450484     IErMin= 6 ErrMin= 7.43D-03
 ErrMax= 8.49D-03 EMaxC= 1.00D-01 BMatC= 2.11D-02 BMatP= 1.19D-02
 IDIUse=3 WtCom= 9.26D-01 WtEn= 7.43D-02
 EnCoef did     5 forward-backward iterations
 Coeff-Com: -0.164D-01 0.192D-01-0.631D-02-0.118D-01-0.451D-01 0.441D+00
 Coeff-Com: -0.349D-01-0.341D-02 0.148D+00 0.201D+00 0.309D+00
 Coeff-En:   0.000D+00 0.000D+00 0.000D+00 0.000D+00 0.000D+00 0.512D+00
 Coeff-En:   0.000D+00 0.000D+00 0.902D-01 0.208D+00 0.189D+00
 Coeff:     -0.152D-01 0.178D-01-0.585D-02-0.109D-01-0.417D-01 0.446D+00
 Coeff:     -0.323D-01-0.316D-02 0.144D+00 0.201D+00 0.300D+00
 Gap=     0.011 Goal=   None    Shift=    0.000
 RMSDP=1.57D-03 MaxDP=2.03D-01 DE=-2.53D-02 OVMax= 1.81D-01

 Cycle  12  Pass 1  IDiag  1:
 RMSU=  1.77D-04    CP:  7.66D-01  1.87D+00  5.09D-01  1.76D-01  4.47D-01
                    CP:  1.06D+00  1.87D-01  2.28D-01  2.32D-01  5.58D-01
                    CP:  5.44D-01
 FoFJK:  IHMeth= 1 ICntrl=     0 DoSepK=T KAlg= 1 I1Cent= 0 FoldK=F
 E= -3688.40338119076     Delta-E=       -0.033614396725 Rises=F Damp=F
 DIIS: error= 1.10D-03 at cycle  12 NSaved=  12.
 NSaved=12 IEnMin=12 EnMin= -3688.40338119076     IErMin=12 ErrMin= 1.10D-03
 ErrMax= 1.10D-03 EMaxC= 1.00D-01 BMatC= 3.56D-04 BMatP= 1.19D-02
 IDIUse=3 WtCom= 9.89D-01 WtEn= 1.10D-02
 EnCoef did     2 forward-backward iterations
 Coeff-Com: -0.126D-01 0.149D-01-0.121D-02 0.103D-02-0.231D-01 0.118D+00
 Coeff-Com: -0.108D-01-0.113D-01 0.687D-01 0.380D-01 0.381D-02 0.815D+00
 Coeff-En:   0.000D+00 0.000D+00 0.000D+00 0.000D+00 0.000D+00 0.244D-01
 Coeff-En:   0.000D+00 0.000D+00 0.103D-01 0.000D+00 0.000D+00 0.965D+00
 Coeff:     -0.124D-01 0.147D-01-0.119D-02 0.102D-02-0.228D-01 0.117D+00
 Coeff:     -0.106D-01-0.112D-01 0.680D-01 0.376D-01 0.377D-02 0.816D+00
 Gap=     0.012 Goal=   None    Shift=    0.000
 RMSDP=1.60D-04 MaxDP=1.51D-02 DE=-3.36D-02 OVMax= 2.58D-02

 Cycle  13  Pass 1  IDiag  1:
 RMSU=  7.62D-05    CP:  7.66D-01  1.87D+00  5.04D-01  1.76D-01  4.47D-01
                    CP:  1.07D+00  1.77D-01  2.36D-01  2.67D-01  5.18D-01
                    CP:  5.17D-01  9.07D-01
 FoFJK:  IHMeth= 1 ICntrl=     0 DoSepK=T KAlg= 1 I1Cent= 0 FoldK=F
 E= -3688.40374831429     Delta-E=       -0.000367123528 Rises=F Damp=F
 DIIS: error= 8.96D-04 at cycle  13 NSaved=  13.
 NSaved=13 IEnMin=13 EnMin= -3688.40374831429     IErMin=13 ErrMin= 8.96D-04
 ErrMax= 8.96D-04 EMaxC= 1.00D-01 BMatC= 1.46D-04 BMatP= 3.56D-04
 IDIUse=3 WtCom= 9.91D-01 WtEn= 8.96D-03
 EnCoef did   100 forward-backward iterations
 Coeff-Com: -0.647D-02 0.768D-02 0.237D-02-0.409D-04-0.109D-01 0.338D-01
 Coeff-Com: -0.187D-02 0.797D-03 0.199D-01-0.164D-01-0.511D-01 0.498D+00
 Coeff-Com:  0.524D+00
 Coeff-En:   0.000D+00 0.000D+00 0.000D+00 0.000D+00 0.000D+00 0.271D-01
 Coeff-En:   0.000D+00 0.000D+00 0.000D+00 0.000D+00 0.000D+00 0.435D-02
 Coeff-En:   0.969D+00
 Coeff:     -0.641D-02 0.761D-02 0.235D-02-0.406D-04-0.108D-01 0.338D-01
 Coeff:     -0.185D-02 0.790D-03 0.198D-01-0.162D-01-0.506D-01 0.494D+00
 Coeff:      0.528D+00
 Gap=     0.012 Goal=   None    Shift=    0.000
 RMSDP=1.41D-04 MaxDP=1.10D-02 DE=-3.67D-04 OVMax= 1.70D-02

 Cycle  14  Pass 1  IDiag  1:
 RMSU=  3.11D-05    CP:  7.66D-01  1.87D+00  5.04D-01  1.70D-01  4.42D-01
                    CP:  1.08D+00  1.57D-01  2.22D-01  2.62D-01  4.94D-01
                    CP:  5.34D-01  1.01D+00  7.64D-01
 FoFJK:  IHMeth= 1 ICntrl=     0 DoSepK=T KAlg= 1 I1Cent= 0 FoldK=F
 E= -3688.40393271417     Delta-E=       -0.000184399883 Rises=F Damp=F
 DIIS: error= 2.99D-04 at cycle  14 NSaved=  14.
 NSaved=14 IEnMin=14 EnMin= -3688.40393271417     IErMin=14 ErrMin= 2.99D-04
 ErrMax= 2.99D-04 EMaxC= 1.00D-01 BMatC= 3.19D-05 BMatP= 1.46D-04
 IDIUse=3 WtCom= 9.97D-01 WtEn= 2.99D-03
 Coeff-Com: -0.242D-02 0.286D-02 0.136D-02-0.171D-02-0.540D-02 0.108D-01
 Coeff-Com:  0.805D-03 0.467D-02 0.389D-02-0.833D-02-0.452D-01 0.211D+00
 Coeff-Com:  0.323D+00 0.505D+00
 Coeff-En:   0.000D+00 0.000D+00 0.000D+00 0.000D+00 0.000D+00 0.000D+00
 Coeff-En:   0.000D+00 0.000D+00 0.000D+00 0.000D+00 0.000D+00 0.000D+00
 Coeff-En:   0.236D-01 0.976D+00
 Coeff:     -0.241D-02 0.285D-02 0.136D-02-0.170D-02-0.539D-02 0.108D-01
 Coeff:      0.803D-03 0.466D-02 0.388D-02-0.831D-02-0.451D-01 0.210D+00
 Coeff:      0.322D+00 0.507D+00
 Gap=     0.012 Goal=   None    Shift=    0.000
 RMSDP=5.15D-05 MaxDP=6.13D-03 DE=-1.84D-04 OVMax= 3.80D-03

 Cycle  15  Pass 1  IDiag  1:
 RMSU=  1.39D-05    CP:  7.66D-01  1.87D+00  5.05D-01  1.70D-01  4.38D-01
                    CP:  1.09D+00  1.56D-01  2.23D-01  2.61D-01  4.87D-01
                    CP:  5.17D-01  1.05D+00  8.04D-01  8.46D-01
 FoFJK:  IHMeth= 1 ICntrl=     0 DoSepK=T KAlg= 1 I1Cent= 0 FoldK=F
 E= -3688.40396173660     Delta-E=       -0.000029022431 Rises=F Damp=F
 DIIS: error= 2.05D-04 at cycle  15 NSaved=  15.
 NSaved=15 IEnMin=15 EnMin= -3688.40396173660     IErMin=15 ErrMin= 2.05D-04
 ErrMax= 2.05D-04 EMaxC= 1.00D-01 BMatC= 1.16D-05 BMatP= 3.19D-05
 IDIUse=3 WtCom= 9.98D-01 WtEn= 2.05D-03
 Coeff-Com: -0.205D-03 0.217D-03-0.162D-03-0.170D-02-0.242D-02 0.238D-02
 Coeff-Com:  0.515D-03 0.327D-02 0.184D-03 0.524D-02-0.254D-01 0.599D-01
 Coeff-Com:  0.121D+00 0.303D+00 0.534D+00
 Coeff-En:   0.000D+00 0.000D+00 0.000D+00 0.000D+00 0.000D+00 0.000D+00
 Coeff-En:   0.000D+00 0.000D+00 0.000D+00 0.000D+00 0.000D+00 0.000D+00
 Coeff-En:   0.787D-01 0.000D+00 0.921D+00
 Coeff:     -0.204D-03 0.217D-03-0.162D-03-0.169D-02-0.241D-02 0.237D-02
 Coeff:      0.514D-03 0.326D-02 0.183D-03 0.523D-02-0.254D-01 0.598D-01
 Coeff:      0.121D+00 0.302D+00 0.535D+00
 Gap=     0.012 Goal=   None    Shift=    0.000
 RMSDP=3.42D-05 MaxDP=4.28D-03 DE=-2.90D-05 OVMax= 3.67D-03

 Cycle  16  Pass 1  IDiag  1:
 RMSU=  6.13D-06    CP:  7.66D-01  1.87D+00  5.04D-01  1.70D-01  4.35D-01
                    CP:  1.09D+00  1.58D-01  2.28D-01  2.65D-01  4.91D-01
                    CP:  5.11D-01  1.08D+00  8.40D-01  8.30D-01  7.28D-01
 FoFJK:  IHMeth= 1 ICntrl=     0 DoSepK=T KAlg= 1 I1Cent= 0 FoldK=F
 E= -3688.40397783009     Delta-E=       -0.000016093491 Rises=F Damp=F
 DIIS: error= 9.97D-05 at cycle  16 NSaved=  16.
 NSaved=16 IEnMin=16 EnMin= -3688.40397783009     IErMin=16 ErrMin= 9.97D-05
 ErrMax= 9.97D-05 EMaxC= 1.00D-01 BMatC= 2.21D-06 BMatP= 1.16D-05
 IDIUse=1 WtCom= 1.00D+00 WtEn= 0.00D+00
 Coeff-Com:  0.378D-03-0.456D-03-0.668D-03-0.726D-03-0.517D-03-0.101D-02
 Coeff-Com: -0.469D-03 0.860D-03-0.126D-03 0.735D-02-0.523D-02 0.642D-02
 Coeff-Com:  0.287D-01 0.248D-01 0.241D+00 0.700D+00
 Coeff:      0.378D-03-0.456D-03-0.668D-03-0.726D-03-0.517D-03-0.101D-02
 Coeff:     -0.469D-03 0.860D-03-0.126D-03 0.735D-02-0.523D-02 0.642D-02
 Coeff:      0.287D-01 0.248D-01 0.241D+00 0.700D+00
 Gap=     0.012 Goal=   None    Shift=    0.000
 RMSDP=1.92D-05 MaxDP=1.73D-03 DE=-1.61D-05 OVMax= 1.64D-03

 Cycle  17  Pass 1  IDiag  1:
 RMSU=  3.34D-06    CP:  7.66D-01  1.87D+00  5.04D-01  1.71D-01  4.35D-01
                    CP:  1.09D+00  1.60D-01  2.31D-01  2.65D-01  4.95D-01
                    CP:  5.06D-01  1.09D+00  8.38D-01  7.41D-01  7.33D-01
                    CP:  9.63D-01
 FoFJK:  IHMeth= 1 ICntrl=     0 DoSepK=T KAlg= 1 I1Cent= 0 FoldK=F
 E= -3688.40398146044     Delta-E=       -0.000003630343 Rises=F Damp=F
 DIIS: error= 2.59D-05 at cycle  17 NSaved=  17.
 NSaved=17 IEnMin=17 EnMin= -3688.40398146044     IErMin=17 ErrMin= 2.59D-05
 ErrMax= 2.59D-05 EMaxC= 1.00D-01 BMatC= 1.70D-07 BMatP= 2.21D-06
 IDIUse=1 WtCom= 1.00D+00 WtEn= 0.00D+00
 Coeff-Com:  0.799D-04-0.947D-04-0.263D-03-0.153D-03-0.718D-04-0.682D-03
 Coeff-Com: -0.179D-03 0.445D-04 0.234D-03 0.250D-02 0.224D-03 0.408D-02
 Coeff-Com:  0.196D-01-0.368D-01-0.792D-02 0.434D+00 0.585D+00
 Coeff:      0.799D-04-0.947D-04-0.263D-03-0.153D-03-0.718D-04-0.682D-03
 Coeff:     -0.179D-03 0.445D-04 0.234D-03 0.250D-02 0.224D-03 0.408D-02
 Coeff:      0.196D-01-0.368D-01-0.792D-02 0.434D+00 0.585D+00
 Gap=     0.012 Goal=   None    Shift=    0.000
 RMSDP=4.47D-06 MaxDP=4.40D-04 DE=-3.63D-06 OVMax= 2.76D-04

 Cycle  18  Pass 1  IDiag  1:
 RMSU=  1.53D-06    CP:  7.66D-01  1.87D+00  5.04D-01  1.71D-01  4.35D-01
                    CP:  1.09D+00  1.61D-01  2.32D-01  2.65D-01  4.96D-01
                    CP:  5.07D-01  1.09D+00  8.37D-01  7.44D-01  6.80D-01
                    CP:  1.04D+00  8.27D-01
 FoFJK:  IHMeth= 1 ICntrl=     0 DoSepK=T KAlg= 1 I1Cent= 0 FoldK=F
 E= -3688.40398166081     Delta-E=       -0.000000200369 Rises=F Damp=F
 DIIS: error= 1.14D-05 at cycle  18 NSaved=  18.
 NSaved=18 IEnMin=18 EnMin= -3688.40398166081     IErMin=18 ErrMin= 1.14D-05
 ErrMax= 1.14D-05 EMaxC= 1.00D-01 BMatC= 2.60D-08 BMatP= 1.70D-07
 IDIUse=1 WtCom= 1.00D+00 WtEn= 0.00D+00
 Coeff-Com: -0.171D-04 0.222D-04-0.524D-04-0.208D-04-0.146D-04-0.270D-03
 Coeff-Com: -0.378D-04-0.118D-04 0.114D-03 0.518D-03 0.368D-03 0.354D-02
 Coeff-Com:  0.138D-01-0.201D-01-0.388D-01 0.153D+00 0.358D+00 0.530D+00
 Coeff:     -0.171D-04 0.222D-04-0.524D-04-0.208D-04-0.146D-04-0.270D-03
 Coeff:     -0.378D-04-0.118D-04 0.114D-03 0.518D-03 0.368D-03 0.354D-02
 Coeff:      0.138D-01-0.201D-01-0.388D-01 0.153D+00 0.358D+00 0.530D+00
 Gap=     0.012 Goal=   None    Shift=    0.000
 RMSDP=1.57D-06 MaxDP=1.18D-04 DE=-2.00D-07 OVMax= 1.26D-04

 Cycle  19  Pass 1  IDiag  1:
 RMSU=  4.48D-07    CP:  7.66D-01  1.87D+00  5.04D-01  1.71D-01  4.35D-01
                    CP:  1.09D+00  1.61D-01  2.32D-01  2.65D-01  4.96D-01
                    CP:  5.07D-01  1.09D+00  8.39D-01  7.35D-01  6.92D-01
                    CP:  1.04D+00  8.48D-01  7.18D-01
 FoFJK:  IHMeth= 1 ICntrl=     0 DoSepK=T KAlg= 1 I1Cent= 0 FoldK=F
 E= -3688.40398169162     Delta-E=       -0.000000030814 Rises=F Damp=F
 DIIS: error= 4.53D-06 at cycle  19 NSaved=  19.
 NSaved=19 IEnMin=19 EnMin= -3688.40398169162     IErMin=19 ErrMin= 4.53D-06
 ErrMax= 4.53D-06 EMaxC= 1.00D-01 BMatC= 5.36D-09 BMatP= 2.60D-08
 IDIUse=1 WtCom= 1.00D+00 WtEn= 0.00D+00
 Coeff-Com: -0.142D-04 0.176D-04-0.446D-05-0.916D-06-0.654D-05-0.110D-03
 Coeff-Com: -0.326D-05-0.574D-05 0.263D-04 0.943D-04 0.881D-04 0.215D-02
 Coeff-Com:  0.721D-02-0.783D-02-0.254D-01 0.398D-01 0.152D+00 0.313D+00
 Coeff-Com:  0.519D+00
 Coeff:     -0.142D-04 0.176D-04-0.446D-05-0.916D-06-0.654D-05-0.110D-03
 Coeff:     -0.326D-05-0.574D-05 0.263D-04 0.943D-04 0.881D-04 0.215D-02
 Coeff:      0.721D-02-0.783D-02-0.254D-01 0.398D-01 0.152D+00 0.313D+00
 Coeff:      0.519D+00
 Gap=     0.012 Goal=   None    Shift=    0.000
 RMSDP=8.56D-07 MaxDP=6.59D-05 DE=-3.08D-08 OVMax= 7.75D-05

 Cycle  20  Pass 1  IDiag  1:
 Restarting incremental Fock formation.
 FoFJK:  IHMeth= 1 ICntrl=     0 DoSepK=T KAlg= 1 I1Cent= 0 FoldK=F
 E= -3688.40398169781     Delta-E=       -0.000000006195 Rises=F Damp=F
 DIIS: error= 1.43D-06 at cycle  20 NSaved=  20.
 NSaved=20 IEnMin=20 EnMin= -3688.40398169781     IErMin=20 ErrMin= 1.43D-06
 ErrMax= 1.43D-06 EMaxC= 1.00D-01 BMatC= 6.04D-10 BMatP= 5.36D-09
 IDIUse=1 WtCom= 1.00D+00 WtEn= 0.00D+00
 Coeff-Com: -0.526D-05 0.649D-05 0.206D-05 0.256D-05-0.230D-05-0.585D-04
 Coeff-Com: -0.214D-05-0.201D-05-0.114D-04 0.127D-04 0.161D-04 0.106D-02
 Coeff-Com:  0.327D-02-0.305D-02-0.136D-01 0.720D-02 0.607D-01 0.150D+00
 Coeff-Com:  0.351D+00 0.444D+00
 Coeff:     -0.526D-05 0.649D-05 0.206D-05 0.256D-05-0.230D-05-0.585D-04
 Coeff:     -0.214D-05-0.201D-05-0.114D-04 0.127D-04 0.161D-04 0.106D-02
 Coeff:      0.327D-02-0.305D-02-0.136D-01 0.720D-02 0.607D-01 0.150D+00
 Coeff:      0.351D+00 0.444D+00
 Gap=     0.012 Goal=   None    Shift=    0.000
 RMSDP=9.38D-07 MaxDP=9.40D-05 DE=-6.20D-09 OVMax= 2.46D-05

 Cycle  21  Pass 1  IDiag  1:
 RMSU=  6.51D-07    CP:  1.00D+00
 FoFJK:  IHMeth= 1 ICntrl=     0 DoSepK=T KAlg= 1 I1Cent= 0 FoldK=F
 E= -3688.40398169872     Delta-E=       -0.000000000909 Rises=F Damp=F
 DIIS: error= 2.33D-07 at cycle  21 NSaved=  20.
 NSaved=20 IEnMin=20 EnMin= -3688.40398169872     IErMin=20 ErrMin= 2.33D-07
 ErrMax= 2.33D-07 EMaxC= 1.00D-01 BMatC= 3.85D-11 BMatP= 6.04D-10
 IDIUse=1 WtCom= 1.00D+00 WtEn= 0.00D+00
 Coeff-Com: -0.248D-07 0.113D-05 0.172D-05-0.176D-06-0.259D-04-0.119D-05
 Coeff-Com: -0.108D-05-0.136D-04 0.448D-05 0.846D-05 0.407D-03 0.116D-02
 Coeff-Com: -0.124D-02-0.599D-02 0.172D-04 0.216D-01 0.601D-01 0.160D+00
 Coeff-Com:  0.268D+00 0.496D+00
 Coeff:     -0.248D-07 0.113D-05 0.172D-05-0.176D-06-0.259D-04-0.119D-05
 Coeff:     -0.108D-05-0.136D-04 0.448D-05 0.846D-05 0.407D-03 0.116D-02
 Coeff:     -0.124D-02-0.599D-02 0.172D-04 0.216D-01 0.601D-01 0.160D+00
 Coeff:      0.268D+00 0.496D+00
 Gap=     0.012 Goal=   None    Shift=    0.000
 RMSDP=6.09D-07 MaxDP=5.84D-05 DE=-9.09D-10 OVMax= 6.29D-06

 Cycle  22  Pass 1  IDiag  1:
 RMSU=  1.26D-07    CP:  1.00D+00  1.63D+00
 FoFJK:  IHMeth= 1 ICntrl=     0 DoSepK=T KAlg= 1 I1Cent= 0 FoldK=F
 E= -3688.40398169863     Delta-E=        0.000000000091 Rises=F Damp=F
 DIIS: error= 6.49D-08 at cycle  22 NSaved=  20.
 NSaved=20 IEnMin=19 EnMin= -3688.40398169872     IErMin=20 ErrMin= 6.49D-08
 ErrMax= 6.49D-08 EMaxC= 1.00D-01 BMatC= 2.27D-12 BMatP= 3.85D-11
 IDIUse=1 WtCom= 1.00D+00 WtEn= 0.00D+00
 Coeff-Com:  0.263D-07 0.429D-06-0.140D-05 0.124D-05 0.310D-06 0.738D-06
 Coeff-Com: -0.429D-05-0.332D-06-0.225D-05 0.869D-04 0.905D-04-0.113D-03
 Coeff-Com: -0.834D-03-0.920D-03 0.169D-02 0.717D-02 0.228D-01 0.522D-01
 Coeff-Com:  0.228D+00 0.690D+00
 Coeff:      0.263D-07 0.429D-06-0.140D-05 0.124D-05 0.310D-06 0.738D-06
 Coeff:     -0.429D-05-0.332D-06-0.225D-05 0.869D-04 0.905D-04-0.113D-03
 Coeff:     -0.834D-03-0.920D-03 0.169D-02 0.717D-02 0.228D-01 0.522D-01
 Coeff:      0.228D+00 0.690D+00
 Gap=     0.012 Goal=   None    Shift=    0.000
 RMSDP=3.87D-07 MaxDP=3.36D-05 DE= 9.09D-11 OVMax= 9.51D-07

 Cycle  23  Pass 1  IDiag  1:
 RMSU=  6.45D-08    CP:  1.00D+00  2.01D+00  1.67D+00
 FoFJK:  IHMeth= 1 ICntrl=     0 DoSepK=T KAlg= 1 I1Cent= 0 FoldK=F
 E= -3688.40398169875     Delta-E=       -0.000000000113 Rises=F Damp=F
 DIIS: error= 3.61D-08 at cycle  23 NSaved=  20.
 NSaved=20 IEnMin=20 EnMin= -3688.40398169875     IErMin=20 ErrMin= 3.61D-08
 ErrMax= 3.61D-08 EMaxC= 1.00D-01 BMatC= 5.42D-13 BMatP= 2.27D-12
 IDIUse=1 WtCom= 1.00D+00 WtEn= 0.00D+00
 Coeff-Com: -0.274D-07-0.447D-06 0.316D-05 0.153D-06 0.764D-07-0.197D-05
 Coeff-Com:  0.319D-06-0.140D-06-0.207D-04-0.125D-03 0.878D-04 0.428D-03
 Coeff-Com: -0.287D-03-0.195D-02-0.427D-02-0.108D-01-0.151D-01 0.352D-01
 Coeff-Com:  0.361D+00 0.636D+00
 Coeff:     -0.274D-07-0.447D-06 0.316D-05 0.153D-06 0.764D-07-0.197D-05
 Coeff:      0.319D-06-0.140D-06-0.207D-04-0.125D-03 0.878D-04 0.428D-03
 Coeff:     -0.287D-03-0.195D-02-0.427D-02-0.108D-01-0.151D-01 0.352D-01
 Coeff:      0.361D+00 0.636D+00
 Gap=     0.012 Goal=   None    Shift=    0.000
 RMSDP=1.32D-07 MaxDP=1.03D-05 DE=-1.13D-10 OVMax= 4.37D-07

 Cycle  24  Pass 1  IDiag  1:
 RMSU=  5.26D-08    CP:  1.00D+00  2.10D+00  1.89D+00  1.47D+00
 FoFJK:  IHMeth= 1 ICntrl=     0 DoSepK=T KAlg= 1 I1Cent= 0 FoldK=F
 E= -3688.40398169896     Delta-E=       -0.000000000213 Rises=F Damp=F
 DIIS: error= 4.98D-08 at cycle  24 NSaved=  20.
 NSaved=20 IEnMin=20 EnMin= -3688.40398169896     IErMin=19 ErrMin= 3.61D-08
 ErrMax= 4.98D-08 EMaxC= 1.00D-01 BMatC= 4.32D-13 BMatP= 5.42D-13
 IDIUse=1 WtCom= 1.00D+00 WtEn= 0.00D+00
 Coeff-Com: -0.156D-06 0.154D-05 0.693D-07 0.133D-06-0.158D-05 0.218D-06
 Coeff-Com:  0.304D-06-0.189D-04-0.731D-04 0.665D-04 0.354D-03 0.266D-05
 Coeff-Com: -0.117D-02-0.291D-02-0.791D-02-0.141D-01-0.691D-02 0.125D+00
 Coeff-Com:  0.406D+00 0.502D+00
 Coeff:     -0.156D-06 0.154D-05 0.693D-07 0.133D-06-0.158D-05 0.218D-06
 Coeff:      0.304D-06-0.189D-04-0.731D-04 0.665D-04 0.354D-03 0.266D-05
 Coeff:     -0.117D-02-0.291D-02-0.791D-02-0.141D-01-0.691D-02 0.125D+00
 Coeff:      0.406D+00 0.502D+00
 Gap=     0.012 Goal=   None    Shift=    0.000
 RMSDP=7.52D-08 MaxDP=5.62D-06 DE=-2.13D-10 OVMax= 9.12D-07

 Cycle  25  Pass 1  IDiag  1:
 RMSU=  3.24D-08    CP:  1.00D+00  2.11D+00  1.91D+00  1.75D+00  1.68D+00
 FoFJK:  IHMeth= 1 ICntrl=     0 DoSepK=T KAlg= 1 I1Cent= 0 FoldK=F
 E= -3688.40398169898     Delta-E=       -0.000000000016 Rises=F Damp=F
 DIIS: error= 1.17D-08 at cycle  25 NSaved=  20.
 NSaved=20 IEnMin=20 EnMin= -3688.40398169898     IErMin=20 ErrMin= 1.17D-08
 ErrMax= 1.17D-08 EMaxC= 1.00D-01 BMatC= 4.45D-14 BMatP= 4.32D-13
 IDIUse=1 WtCom= 1.00D+00 WtEn= 0.00D+00
 Coeff-Com: -0.174D-06 0.109D-05 0.363D-07-0.755D-06 0.315D-06 0.346D-06
 Coeff-Com: -0.466D-05-0.328D-04 0.263D-04 0.171D-03 0.370D-04-0.506D-03
 Coeff-Com: -0.132D-02-0.373D-02-0.709D-02-0.446D-02 0.600D-01 0.208D+00
 Coeff-Com:  0.295D+00 0.454D+00
 Coeff:     -0.174D-06 0.109D-05 0.363D-07-0.755D-06 0.315D-06 0.346D-06
 Coeff:     -0.466D-05-0.328D-04 0.263D-04 0.171D-03 0.370D-04-0.506D-03
 Coeff:     -0.132D-02-0.373D-02-0.709D-02-0.446D-02 0.600D-01 0.208D+00
 Coeff:      0.295D+00 0.454D+00
 Gap=     0.012 Goal=   None    Shift=    0.000
 RMSDP=5.92D-08 MaxDP=4.59D-06 DE=-1.64D-11 OVMax= 1.57D-07

 Cycle  26  Pass 1  IDiag  1:
 RMSU=  2.50D-08    CP:  1.00D+00  2.11D+00  1.92D+00  1.78D+00  2.07D+00
                    CP:  1.80D+00
 FoFJK:  IHMeth= 1 ICntrl=     0 DoSepK=T KAlg= 1 I1Cent= 0 FoldK=F
 E= -3688.40398169897     Delta-E=        0.000000000007 Rises=F Damp=F
 DIIS: error= 8.55D-09 at cycle  26 NSaved=  20.
 NSaved=20 IEnMin=19 EnMin= -3688.40398169898     IErMin=20 ErrMin= 8.55D-09
 ErrMax= 8.55D-09 EMaxC= 1.00D-01 BMatC= 2.75D-14 BMatP= 4.45D-14
 IDIUse=1 WtCom= 1.00D+00 WtEn= 0.00D+00
 Coeff-Com: -0.174D-06 0.106D-05-0.717D-06 0.340D-06 0.363D-06-0.401D-05
 Coeff-Com: -0.306D-04 0.243D-04 0.159D-03 0.348D-04-0.472D-03-0.123D-02
 Coeff-Com: -0.346D-02-0.655D-02-0.364D-02 0.582D-01 0.196D+00 0.272D+00
 Coeff-Com:  0.388D+00 0.101D+00
 Coeff:     -0.174D-06 0.106D-05-0.717D-06 0.340D-06 0.363D-06-0.401D-05
 Coeff:     -0.306D-04 0.243D-04 0.159D-03 0.348D-04-0.472D-03-0.123D-02
 Coeff:     -0.346D-02-0.655D-02-0.364D-02 0.582D-01 0.196D+00 0.272D+00
 Coeff:      0.388D+00 0.101D+00
 Gap=     0.012 Goal=   None    Shift=    0.000
 RMSDP=1.42D-08 MaxDP=1.15D-06 DE= 7.28D-12 OVMax= 2.30D-08

 Cycle  27  Pass 1  IDiag  1:
 RMSU=  6.13D-09    CP:  1.00D+00  2.11D+00  1.90D+00  1.79D+00  2.14D+00
                    CP:  1.91D+00  1.19D+00
 FoFJK:  IHMeth= 1 ICntrl=     0 DoSepK=T KAlg= 1 I1Cent= 0 FoldK=F
 E= -3688.40398169896     Delta-E=        0.000000000011 Rises=F Damp=F
 DIIS: error= 1.03D-08 at cycle  27 NSaved=  20.
 NSaved=20 IEnMin=18 EnMin= -3688.40398169898     IErMin=19 ErrMin= 8.55D-09
 ErrMax= 1.03D-08 EMaxC= 1.00D-01 BMatC= 2.93D-14 BMatP= 2.75D-14
 IDIUse=1 WtCom= 1.00D+00 WtEn= 0.00D+00
 Large coefficients: NSaved= 20 BigCof=    0.00 CofMax=   10.00 Det=-1.77D-15
 Inversion failed.  Reducing to 19 matrices.
 Large coefficients: NSaved= 19 BigCof=    0.00 CofMax=   10.00 Det=-1.79D-15
 Inversion failed.  Reducing to 18 matrices.
 Large coefficients: NSaved= 18 BigCof=    0.00 CofMax=   10.00 Det=-1.79D-15
 Inversion failed.  Reducing to 17 matrices.
 Large coefficients: NSaved= 17 BigCof=    0.00 CofMax=   10.00 Det=-1.79D-15
 Inversion failed.  Reducing to 16 matrices.
 Large coefficients: NSaved= 16 BigCof=    0.00 CofMax=   10.00 Det=-1.82D-15
 Inversion failed.  Reducing to 15 matrices.
 Coeff-Com: -0.168D-04 0.332D-05 0.133D-03 0.198D-03-0.199D-03-0.107D-02
 Coeff-Com: -0.395D-02-0.847D-02-0.176D-01-0.402D-02 0.798D-01 0.157D+00
 Coeff-Com:  0.467D+00 0.538D+00-0.207D+00
 Coeff:     -0.168D-04 0.332D-05 0.133D-03 0.198D-03-0.199D-03-0.107D-02
 Coeff:     -0.395D-02-0.847D-02-0.176D-01-0.402D-02 0.798D-01 0.157D+00
 Coeff:      0.467D+00 0.538D+00-0.207D+00
 Gap=     0.012 Goal=   None    Shift=    0.000
 RMSDP=6.24D-08 MaxDP=4.77D-06 DE= 1.09D-11 OVMax= 7.71D-07

 Cycle  28  Pass 1  IDiag  1:
 RMSU=  6.60D-09    CP:  1.00D+00  2.11D+00  1.91D+00  1.91D+00  2.59D+00
                    CP:  2.67D+00  2.03D+00  3.00D+00
 FoFJK:  IHMeth= 1 ICntrl=     0 DoSepK=T KAlg= 1 I1Cent= 0 FoldK=F
 E= -3688.40398169888     Delta-E=        0.000000000080 Rises=F Damp=F
 DIIS: error= 2.73D-08 at cycle  28 NSaved=  16.
 NSaved=16 IEnMin=13 EnMin= -3688.40398169898     IErMin=14 ErrMin= 8.55D-09
 ErrMax= 2.73D-08 EMaxC= 1.00D-01 BMatC= 1.69D-13 BMatP= 2.75D-14
 IDIUse=1 WtCom= 1.00D+00 WtEn= 0.00D+00
 Large coefficients: NSaved= 16 BigCof=    0.00 CofMax=   10.00 Det=-3.95D-16
 Inversion failed.  Reducing to 15 matrices.
 Coeff-Com: -0.585D-06 0.518D-04 0.118D-03 0.290D-04-0.227D-03-0.168D-02
 Coeff-Com: -0.536D-02-0.130D-01 0.125D-01 0.146D+00 0.239D+00 0.552D+00
 Coeff-Com:  0.217D+01-0.270D+01 0.602D+00
 Coeff:     -0.585D-06 0.518D-04 0.118D-03 0.290D-04-0.227D-03-0.168D-02
 Coeff:     -0.536D-02-0.130D-01 0.125D-01 0.146D+00 0.239D+00 0.552D+00
 Coeff:      0.217D+01-0.270D+01 0.602D+00
 Gap=     0.012 Goal=   None    Shift=    0.000
 RMSDP=3.61D-08 MaxDP=2.49D-06 DE= 8.00D-11 OVMax= 3.69D-07

 Cycle  29  Pass 1  IDiag  1:
 RMSU=  1.32D-08    CP:  1.00D+00  2.10D+00  1.92D+00  1.87D+00  2.49D+00
                    CP:  2.24D+00  1.59D+00  1.69D+00  1.65D+00
 FoFJK:  IHMeth= 1 ICntrl=     0 DoSepK=T KAlg= 1 I1Cent= 0 FoldK=F
 E= -3688.40398169875     Delta-E=        0.000000000129 Rises=F Damp=F
 DIIS: error= 1.50D-08 at cycle  29 NSaved=  16.
 NSaved=16 IEnMin=12 EnMin= -3688.40398169898     IErMin=13 ErrMin= 8.55D-09
 ErrMax= 1.50D-08 EMaxC= 1.00D-01 BMatC= 7.30D-14 BMatP= 2.75D-14
 IDIUse=1 WtCom= 1.00D+00 WtEn= 0.00D+00
 Large coefficients: NSaved= 16 BigCof=    0.00 CofMax=   10.00 Det=-3.04D-16
 Inversion failed.  Reducing to 15 matrices.
 Coeff-Com:  0.301D-04 0.747D-04 0.576D-04-0.495D-04-0.117D-02-0.437D-02
 Coeff-Com: -0.726D-02 0.394D-01 0.187D+00 0.284D+00 0.596D+00 0.298D+01
 Coeff-Com: -0.417D+01 0.655D+00 0.438D+00
 Coeff:      0.301D-04 0.747D-04 0.576D-04-0.495D-04-0.117D-02-0.437D-02
 Coeff:     -0.726D-02 0.394D-01 0.187D+00 0.284D+00 0.596D+00 0.298D+01
 Coeff:     -0.417D+01 0.655D+00 0.438D+00
 Gap=     0.012 Goal=   None    Shift=    0.000
 RMSDP=4.57D-08 MaxDP=3.77D-06 DE= 1.29D-10 OVMax= 1.69D-07

 Cycle  30  Pass 1  IDiag  1:
 RMSU=  1.74D-08    CP:  1.00D+00  2.11D+00  1.98D+00  1.78D+00  2.38D+00
                    CP:  1.90D+00  1.48D+00 -4.15D-01  3.00D+00  1.46D+00
 FoFJK:  IHMeth= 1 ICntrl=     0 DoSepK=T KAlg= 1 I1Cent= 0 FoldK=F
 E= -3688.40398169882     Delta-E=       -0.000000000069 Rises=F Damp=F
 DIIS: error= 1.21D-08 at cycle  30 NSaved=  16.
 NSaved=16 IEnMin=11 EnMin= -3688.40398169898     IErMin=12 ErrMin= 8.55D-09
 ErrMax= 1.21D-08 EMaxC= 1.00D-01 BMatC= 3.86D-14 BMatP= 2.75D-14
 IDIUse=1 WtCom= 1.00D+00 WtEn= 0.00D+00
 Large coefficients: NSaved= 16 BigCof=    0.00 CofMax=   10.00 Det=-2.94D-16
 Inversion failed.  Reducing to 15 matrices.
 Coeff-Com:  0.127D-04 0.563D-04 0.116D-03-0.286D-03-0.220D-02-0.104D-02
 Coeff-Com:  0.487D-01 0.182D+00 0.259D+00 0.576D+00 0.339D+01-0.466D+01
 Coeff-Com:  0.755D+00 0.502D+00-0.431D-01
 Coeff:      0.127D-04 0.563D-04 0.116D-03-0.286D-03-0.220D-02-0.104D-02
 Coeff:      0.487D-01 0.182D+00 0.259D+00 0.576D+00 0.339D+01-0.466D+01
 Coeff:      0.755D+00 0.502D+00-0.431D-01
 Gap=     0.012 Goal=   None    Shift=    0.000
 RMSDP=9.00D-09 MaxDP=6.76D-07 DE=-6.91D-11 OVMax= 7.18D-08

 SCF Done:  E(RHSEH1PBE) =  -3688.40398170     A.U. after   30 cycles
             Convg  =    0.9002D-08             -V/T =  2.0023
 KE= 3.679910852292D+03 PE=-2.183118278758D+04 EE= 7.903947313754D+03
 Leave Link  502 at Tue Jul 12 23:27:39 2016, MaxMem= 1048576000 cpu:   89403.2
 (Enter /opt/gaussian/g09/l801.exe)
 ExpMin= 1.53D-02 ExpMax= 3.16D+05 ExpMxC= 1.12D+04 IAcc=3 IRadAn=         5 AccDes= 0.00D+00
 HarFok:  IExCor=  205 AccDes= 0.00D+00 IRadAn=         5 IDoV=-2
 ScaDFX=  1.000000  1.000000  1.000000  1.000000
 DSYEVD returned Info=         117 IAlg= 4 N=    58 NDim=    58 NE2=    18012370 trying DSYEV.
 Largest valence mixing into a core orbital is  2.65D-04
 Largest core mixing into a valence orbital is  3.24D-05
 Range of M.O.s used for correlation:    54  1203
 NBasis=  1218 NAE=   169 NBE=   169 NFC=    53 NFV=     0
 NROrb=   1150 NOA=   116 NOB=   116 NVA=  1034 NVB=  1034

 **** Warning!!: The largest alpha MO coefficient is  0.10533237D+03


 **** Warning!!: The smallest alpha delta epsilon is  0.11782065D-01

 Leave Link  801 at Tue Jul 12 23:27:41 2016, MaxMem= 1048576000 cpu:       8.4
 (Enter /opt/gaussian/g09/l914.exe)
 RHF ground state
 MDV=  1048576000 DFT=T DoStab=F Mixed=T DoRPA=T DoScal=F NonHer=T
 Would need an additional************ words for in-memory AO integral storage.
 Making orbital integer symmetry assigments:
 Orbital symmetries:
       Occupied  (A) (A) (A) (A) (A) (A) (A) (A) (A) (A) (A) (A)
                 (A) (A) (A) (A) (A) (A) (A) (A) (A) (A) (A) (A)
                 (A) (A) (A) (A) (A) (A) (A) (A) (A) (A) (A) (A)
                 (A) (A) (A) (A) (A) (A) (A) (A) (A) (A) (A) (A)
                 (A) (A) (A) (A) (A) (A) (A) (A) (A) (A) (A) (A)
                 (A) (A) (A) (A) (A) (A) (A) (A) (A) (A) (A) (A)
                 (A) (A) (A) (A) (A) (A) (A) (A) (A) (A) (A) (A)
                 (A) (A) (A) (A) (A) (A) (A) (A) (A) (A) (A) (A)
                 (A) (A) (A) (A) (A) (A) (A) (A) (A) (A) (A) (A)
                 (A) (A) (A) (A) (A) (A) (A) (A) (A) (A) (A) (A)
                 (A) (A) (A) (A) (A) (A) (A) (A) (A) (A) (A) (A)
                 (A) (A) (A) (A) (A) (A) (A) (A) (A) (A) (A) (A)
                 (A) (A) (A) (A) (A) (A) (A) (A) (A) (A) (A) (A)
                 (A) (A) (A) (A) (A) (A) (A) (A) (A) (A) (A) (A)
                 (A)
       Virtual   (A) (A) (A) (A) (A) (A) (A) (A) (A) (A) (A) (A)
                 (A) (A) (A) (A) (A) (A) (A) (A) (A) (A) (A) (A)
                 (A) (A) (A) (A) (A) (A) (A) (A) (A) (A) (A) (A)
                 (A) (A) (A) (A) (A) (A) (A) (A) (A) (A) (A) (A)
                 (A) (A) (A) (A) (A) (A) (A) (A) (A) (A) (A) (A)
                 (A) (A) (A) (A) (A) (A) (A) (A) (A) (A) (A) (A)
                 (A) (A) (A) (A) (A) (A) (A) (A) (A) (A) (A) (A)
                 (A) (A) (A) (A) (A) (A) (A) (A) (A) (A) (A) (A)
                 (A) (A) (A) (A) (A) (A) (A) (A) (A) (A) (A) (A)
                 (A) (A) (A) (A) (A) (A) (A) (A) (A) (A) (A) (A)
                 (A) (A) (A) (A) (A) (A) (A) (A) (A) (A) (A) (A)
                 (A) (A) (A) (A) (A) (A) (A) (A) (A) (A) (A) (A)
                 (A) (A) (A) (A) (A) (A) (A) (A) (A) (A) (A) (A)
                 (A) (A) (A) (A) (A) (A) (A) (A) (A) (A) (A) (A)
                 (A) (A) (A) (A) (A) (A) (A) (A) (A) (A) (A) (A)
                 (A) (A) (A) (A) (A) (A) (A) (A) (A) (A) (A) (A)
                 (A) (A) (A) (A) (A) (A) (A) (A) (A) (A) (A) (A)
                 (A) (A) (A) (A) (A) (A) (A) (A) (A) (A) (A) (A)
                 (A) (A) (A) (A) (A) (A) (A) (A) (A) (A) (A) (A)
                 (A) (A) (A) (A) (A) (A) (A) (A) (A) (A) (A) (A)
                 (A) (A) (A) (A) (A) (A) (A) (A) (A) (A) (A) (A)
                 (A) (A) (A) (A) (A) (A) (A) (A) (A) (A) (A) (A)
                 (A) (A) (A) (A) (A) (A) (A) (A) (A) (A) (A) (A)
                 (A) (A) (A) (A) (A) (A) (A) (A) (A) (A) (A) (A)
                 (A) (A) (A) (A) (A) (A) (A) (A) (A) (A) (A) (A)
                 (A) (A) (A) (A) (A) (A) (A) (A) (A) (A) (A) (A)
                 (A) (A) (A) (A) (A) (A) (A) (A) (A) (A) (A) (A)
                 (A) (A) (A) (A) (A) (A) (A) (A) (A) (A) (A) (A)
                 (A) (A) (A) (A) (A) (A) (A) (A) (A) (A) (A) (A)
                 (A) (A) (A) (A) (A) (A) (A) (A) (A) (A) (A) (A)
                 (A) (A) (A) (A) (A) (A) (A) (A) (A) (A) (A) (A)
                 (A) (A) (A) (A) (A) (A) (A) (A) (A) (A) (A) (A)
                 (A) (A) (A) (A) (A) (A) (A) (A) (A) (A) (A) (A)
                 (A) (A) (A) (A) (A) (A) (A) (A) (A) (A) (A) (A)
                 (A) (A) (A) (A) (A) (A) (A) (A) (A) (A) (A) (A)
                 (A) (A) (A) (A) (A) (A) (A) (A) (A) (A) (A) (A)
                 (A) (A) (A) (A) (A) (A) (A) (A) (A) (A) (A) (A)
                 (A) (A) (A) (A) (A) (A) (A) (A) (A) (A) (A) (A)
                 (A) (A) (A) (A) (A) (A) (A) (A) (A) (A) (A) (A)
                 (A) (A) (A) (A) (A) (A) (A) (A) (A) (A) (A) (A)
                 (A) (A) (A) (A) (A) (A) (A) (A) (A) (A) (A) (A)
                 (A) (A) (A) (A) (A) (A) (A) (A) (A) (A) (A) (A)
                 (A) (A) (A) (A) (A) (A) (A) (A) (A) (A) (A) (A)
                 (A) (A) (A) (A) (A) (A) (A) (A) (A) (A) (A) (A)
                 (A) (A) (A) (A) (A) (A) (A) (A) (A) (A) (A) (A)
                 (A) (A) (A) (A) (A) (A) (A) (A) (A) (A) (A) (A)
                 (A) (A) (A) (A) (A) (A) (A) (A) (A) (A) (A) (A)
                 (A) (A) (A) (A) (A) (A) (A) (A) (A) (A) (A) (A)
                 (A) (A) (A) (A) (A) (A) (A) (A) (A) (A) (A) (A)
                 (A) (A) (A) (A) (A) (A) (A) (A) (A) (A) (A) (A)
                 (A) (A) (A) (A) (A) (A) (A) (A) (A) (A) (A) (A)
                 (A) (A) (A) (A) (A) (A) (A) (A) (A) (A) (A) (A)
                 (A) (A) (A) (A) (A) (A) (A) (A) (A) (A) (A) (A)
                 (A) (A) (A) (A) (A) (A) (A) (A) (A) (A) (A) (A)
                 (A) (A) (A) (A) (A) (A) (A) (A) (A) (A) (A) (A)
                 (A) (A) (A) (A) (A) (A) (A) (A) (A) (A) (A) (A)
                 (A) (A) (A) (A) (A) (A) (A) (A) (A) (A) (A) (A)
                 (A) (A) (A) (A) (A) (A) (A) (A) (A) (A) (A) (A)
                 (A) (A) (A) (A) (A) (A) (A) (A) (A) (A) (A) (A)
                 (A) (A) (A) (A) (A) (A) (A) (A) (A) (A) (A) (A)
                 (A) (A) (A) (A) (A) (A) (A) (A) (A) (A) (A) (A)
                 (A) (A) (A) (A) (A) (A) (A) (A) (A) (A) (A) (A)
                 (A) (A) (A) (A) (A) (A) (A) (A) (A) (A) (A) (A)
                 (A) (A) (A) (A) (A) (A) (A) (A) (A) (A) (A) (A)
                 (A) (A) (A) (A) (A) (A) (A) (A) (A) (A) (A) (A)
                 (A) (A) (A) (A) (A) (A) (A) (A) (A) (A) (A) (A)
                 (A) (A) (A) (A) (A) (A) (A) (A) (A) (A) (A) (A)
                 (A) (A) (A) (A) (A) (A) (A) (A) (A) (A) (A) (A)
                 (A) (A) (A) (A) (A) (A) (A) (A) (A) (A) (A) (A)
                 (A) (A) (A) (A) (A) (A) (A) (A) (A) (A) (A) (A)
                 (A) (A) (A) (A) (A) (A) (A) (A) (A) (A) (A) (A)
                 (A) (A) (A) (A) (A) (A) (A) (A) (A) (A) (A) (A)
                 (A) (A) (A) (A) (A) (A) (A) (A) (A) (A) (A) (A)
                 (A) (A) (A) (A) (A) (A) (A) (A) (A) (A) (A) (A)
                 (A) (A) (A) (A) (A) (A) (A) (A) (A) (A) (A) (A)
                 (A) (A) (A) (A) (A) (A) (A) (A) (A) (A) (A) (A)
                 (A) (A) (A) (A) (A) (A) (A) (A) (A) (A) (A) (A)
                 (A) (A) (A) (A) (A) (A) (A) (A) (A) (A) (A) (A)
                 (A) (A) (A) (A) (A) (A) (A) (A) (A) (A) (A) (A)
                 (A) (A) (A) (A) (A) (A) (A) (A) (A) (A) (A) (A)
                 (A) (A) (A) (A) (A) (A) (A) (A) (A) (A) (A) (A)
                 (A) (A) (A) (A) (A) (A) (A) (A) (A) (A) (A) (A)
                 (A) (A) (A) (A) (A) (A) (A) (A) (A) (A) (A) (A)
                 (A) (A) (A) (A) (A) (A) (A) (A) (A) (A) (A) (A)
                 (A) (A) (A) (A) (A) (A) (A) (A) (A) (A) (A) (A)
                 (A) (A) (A) (A) (A) (A) (A) (A) (A) (A) (A) (A)
                 (A) (A)
   200 initial guesses have been made.
 Convergence on wavefunction:    0.001000000000000
 Davidson Disk Diagonalization:  ConvIn= 1.00D-03 SkipCon=T Conv= 1.00D-03.
 Max sub-space:   800 roots to seek:   200 dimension of matrix: 239888
 Iteration     1 Dimension   200 NMult   200
 Cannot handle 2e integral symmetry, ISym2E=1.
 CISAX:  IP= 12 NPass=   9 NMax=    23.
 CISAX will form    23 AO SS matrices at one time.
 NMat=    23 NSing=    23.
 FoFJK:  IHMeth= 1 ICntrl=     0 DoSepK=T KAlg= 1 I1Cent= 0 FoldK=F
 FoFCou: FMM=T IPFlag=           0 FMFlag=      100000 FMFlg1=        2001
         NFxFlg=           0 DoJE=F BraDBF=F KetDBF=F FulRan=T
         Omega=  0.000000  0.000000  1.000000  0.000000  0.000000 ICntrl=     500 IOpCl=  0
         NMat0=   23 NMatS0=   23 NMatT0=    0 NMatD0=   23 NMtDS0=    0 NMtDT0=    0
         I1Cent=           0 NGrid=           0.
 Symmetry not used in FoFCou.
 FMM levels:  10  Number of levels for PrismC:   9
 NMat=    23 NSing=    23.
 FoFJK:  IHMeth= 1 ICntrl=     0 DoSepK=T KAlg= 1 I1Cent= 0 FoldK=F
 NMat=    23 NSing=    23.
 FoFJK:  IHMeth= 1 ICntrl=     0 DoSepK=T KAlg= 1 I1Cent= 0 FoldK=F
 NMat=    23 NSing=    23.
 FoFJK:  IHMeth= 1 ICntrl=     0 DoSepK=T KAlg= 1 I1Cent= 0 FoldK=F
 NMat=    23 NSing=    23.
 FoFJK:  IHMeth= 1 ICntrl=     0 DoSepK=T KAlg= 1 I1Cent= 0 FoldK=F
 NMat=    23 NSing=    23.
 FoFJK:  IHMeth= 1 ICntrl=     0 DoSepK=T KAlg= 1 I1Cent= 0 FoldK=F
 NMat=    23 NSing=    23.
 FoFJK:  IHMeth= 1 ICntrl=     0 DoSepK=T KAlg= 1 I1Cent= 0 FoldK=F
 NMat=    23 NSing=    23.
 FoFJK:  IHMeth= 1 ICntrl=     0 DoSepK=T KAlg= 1 I1Cent= 0 FoldK=F
 NMat=    16 NSing=    16.
 FoFJK:  IHMeth= 1 ICntrl=     0 DoSepK=T KAlg= 1 I1Cent= 0 FoldK=F
 Cannot handle 2e integral symmetry, ISym2E=1.
 CISAX:  IP= 12 NPass=   9 NMax=    23.
 CISAX will form    23 AO SS matrices at one time.
 NMat=    23 NSing=    23.
 FoFJK:  IHMeth= 1 ICntrl=     0 DoSepK=T KAlg= 1 I1Cent= 0 FoldK=F
 NMat=    23 NSing=    23.
 FoFJK:  IHMeth= 1 ICntrl=     0 DoSepK=T KAlg= 1 I1Cent= 0 FoldK=F
 NMat=    23 NSing=    23.
 FoFJK:  IHMeth= 1 ICntrl=     0 DoSepK=T KAlg= 1 I1Cent= 0 FoldK=F
 NMat=    23 NSing=    23.
 FoFJK:  IHMeth= 1 ICntrl=     0 DoSepK=T KAlg= 1 I1Cent= 0 FoldK=F
 NMat=    23 NSing=    23.
 FoFJK:  IHMeth= 1 ICntrl=     0 DoSepK=T KAlg= 1 I1Cent= 0 FoldK=F
 NMat=    23 NSing=    23.
 FoFJK:  IHMeth= 1 ICntrl=     0 DoSepK=T KAlg= 1 I1Cent= 0 FoldK=F
 NMat=    23 NSing=    23.
 FoFJK:  IHMeth= 1 ICntrl=     0 DoSepK=T KAlg= 1 I1Cent= 0 FoldK=F
 NMat=    23 NSing=    23.
 FoFJK:  IHMeth= 1 ICntrl=     0 DoSepK=T KAlg= 1 I1Cent= 0 FoldK=F
 NMat=    16 NSing=    16.
 FoFJK:  IHMeth= 1 ICntrl=     0 DoSepK=T KAlg= 1 I1Cent= 0 FoldK=F
 New state      7 was old state      9
 New state      8 was old state      7
 New state      9 was old state      8
 New state     13 was old state     17
 New state     14 was old state     13
 New state     15 was old state     21
 New state     16 was old state     14
 New state     17 was old state     15
 New state     18 was old state     16
 New state     19 was old state     18
 New state     20 was old state     19
 New state     21 was old state     20
 New state     25 was old state     28
 New state     27 was old state     25
 New state     28 was old state     27
 New state     30 was old state     33
 New state     31 was old state     34
 New state     33 was old state     31
 New state     34 was old state     35
 New state     35 was old state     36
 New state     36 was old state     37
 New state     37 was old state     38
 No map to state     38
 New state     39 was old state     40
 New state     40 was old state     39
 New state     42 was old state     43
 New state     43 was old state     42
 New state     45 was old state     47
 New state     47 was old state     50
 New state     48 was old state     45
 No map to state     49
 New state     50 was old state     48
 Excitation Energies [eV] at current iteration:
 Root      1 :     0.902785880975674
 Root      2 :     1.228047892702987
 Root      3 :     1.441556045074816
 Root      4 :     1.497947682117209
 Root      5 :     1.686679684790563
 Root      6 :     1.718552099215492
 Root      7 :     1.725331913144816
 Root      8 :     1.775539287512113
 Root      9 :     1.811715519752133
 Root     10 :     1.943566773847061
 Root     11 :     2.062937669973385
 Root     12 :     2.137235268277935
 Root     13 :     3.780425373104844
 Root     14 :     3.854961797076456
 Root     15 :     3.877502813840509
 Root     16 :     3.915539602027215
 Root     17 :     3.985886033083707
 Root     18 :     4.045181050225666
 Root     19 :     4.060038903168590
 Root     20 :     4.151556104793828
 Root     21 :     4.155334077834507
 Root     22 :     4.249021954833546
 Root     23 :     4.265238988534514
 Root     24 :     4.305399643442165
 Root     25 :     4.400663639971678
 Root     26 :     4.409024265877130
 Root     27 :     4.419578517777713
 Root     28 :     4.429645931362073
 Root     29 :     4.442983482941847
 Root     30 :     4.497105138747718
 Root     31 :     4.505370439085006
 Root     32 :     4.511367569009328
 Root     33 :     4.516178221530383
 Root     34 :     4.524340052663420
 Root     35 :     4.529556957012431
 Root     36 :     4.588671798521271
 Root     37 :     4.621010094790901
 Root     38 :     4.631491123472537
 Root     39 :     4.685713200320365
 Root     40 :     4.701661174372395
 Root     41 :     4.739160578455361
 Root     42 :     4.768583985167125
 Root     43 :     4.799746350468939
 Root     44 :     4.808010776207708
 Root     45 :     4.810004132340106
 Root     46 :     4.852763815431071
 Root     47 :     4.879427801708852
 Root     48 :     4.887278372746659
 Root     49 :     4.894678309910914
 Root     50 :     4.936751237678196
 Iteration     2 Dimension   300 NMult   300
 Cannot handle 2e integral symmetry, ISym2E=1.
 CISAX:  IP= 12 NPass=   5 NMax=    20.
 CISAX will form    20 AO SS matrices at one time.
 NMat=    20 NSing=    20.
 FoFJK:  IHMeth= 1 ICntrl=     0 DoSepK=T KAlg= 1 I1Cent= 0 FoldK=F
 NMat=    20 NSing=    20.
 FoFJK:  IHMeth= 1 ICntrl=     0 DoSepK=T KAlg= 1 I1Cent= 0 FoldK=F
 NMat=    20 NSing=    20.
 FoFJK:  IHMeth= 1 ICntrl=     0 DoSepK=T KAlg= 1 I1Cent= 0 FoldK=F
 NMat=    20 NSing=    20.
 FoFJK:  IHMeth= 1 ICntrl=     0 DoSepK=T KAlg= 1 I1Cent= 0 FoldK=F
 NMat=    20 NSing=    20.
 FoFJK:  IHMeth= 1 ICntrl=     0 DoSepK=T KAlg= 1 I1Cent= 0 FoldK=F
 Cannot handle 2e integral symmetry, ISym2E=1.
 CISAX:  IP= 12 NPass=   5 NMax=    20.
 CISAX will form    20 AO SS matrices at one time.
 NMat=    20 NSing=    20.
 FoFJK:  IHMeth= 1 ICntrl=     0 DoSepK=T KAlg= 1 I1Cent= 0 FoldK=F
 NMat=    20 NSing=    20.
 FoFJK:  IHMeth= 1 ICntrl=     0 DoSepK=T KAlg= 1 I1Cent= 0 FoldK=F
 NMat=    20 NSing=    20.
 FoFJK:  IHMeth= 1 ICntrl=     0 DoSepK=T KAlg= 1 I1Cent= 0 FoldK=F
 NMat=    20 NSing=    20.
 FoFJK:  IHMeth= 1 ICntrl=     0 DoSepK=T KAlg= 1 I1Cent= 0 FoldK=F
 NMat=    20 NSing=    20.
 FoFJK:  IHMeth= 1 ICntrl=     0 DoSepK=T KAlg= 1 I1Cent= 0 FoldK=F
 Root      1 not converged, maximum delta is    0.058678138467273
 Root      2 not converged, maximum delta is    0.061580202012409
 Root      3 not converged, maximum delta is    0.195770651556573
 Root      4 not converged, maximum delta is    0.139434212779203
 New state      5 was old state      6
 Root      5 not converged, maximum delta is    0.337321327886171
 New state      6 was old state      8
 Root      6 not converged, maximum delta is    0.211131763718072
 New state      7 was old state      5
 Root      7 not converged, maximum delta is    0.371040628459349
 New state      8 was old state      7
 Root      8 not converged, maximum delta is    0.301267403359174
 Root      9 not converged, maximum delta is    0.485639679664803
 Root     10 not converged, maximum delta is    0.156609471523756
 Root     11 not converged, maximum delta is    0.126450818326414
 Root     12 not converged, maximum delta is    0.136553483936905
[...]
 Alpha virt. eigenvalues --    0.74084   0.74230   0.74665   0.74989   0.75288
 Alpha virt. eigenvalues --    0.75482   0.75746   0.75911   0.76134   0.76164
 Alpha virt. eigenvalues --    0.76647   0.76733   0.76838   0.76988   0.77496
 Alpha virt. eigenvalues --    0.77579   0.77835   0.78122   0.78319   0.78570
 Alpha virt. eigenvalues --    0.78989   0.79115   0.79391   0.79913   0.80259
 Alpha virt. eigenvalues --    0.80349   0.80643   0.80776   0.81173   0.81385
 Alpha virt. eigenvalues --    0.82008   0.82154   0.82280   0.83043   0.83245
 Alpha virt. eigenvalues --    0.84015   0.84702   0.85019   0.85431   0.86059
 Alpha virt. eigenvalues --    0.86141   0.86488   0.87049   0.87198   0.87628
 Alpha virt. eigenvalues --    0.87966   0.88107   0.88453   0.88917   0.89005
 Alpha virt. eigenvalues --    0.89666   0.89772   0.89858   0.90294   0.90865
 Alpha virt. eigenvalues --    0.91141   0.92023   0.92559   0.92723   0.93137
 Alpha virt. eigenvalues --    0.93695   0.93745   0.94478   0.94648   0.95058
 Alpha virt. eigenvalues --    0.95493   0.95779   0.96033   0.96155   0.96463
 Alpha virt. eigenvalues --    0.96681   0.97208   0.98177   0.98527   0.98853
 Alpha virt. eigenvalues --    0.99053   0.99780   1.00272   1.00510   1.00960
 Alpha virt. eigenvalues --    1.01199   1.01891   1.01971   1.02425   1.02930
 Alpha virt. eigenvalues --    1.03442   1.04022   1.04250   1.04377   1.04995
 Alpha virt. eigenvalues --    1.05573   1.05912   1.06572   1.06996   1.07126
 Alpha virt. eigenvalues --    1.07597   1.07951   1.08276   1.08565   1.08648
 Alpha virt. eigenvalues --    1.09187   1.09778   1.09838   1.10372   1.10535
 Alpha virt. eigenvalues --    1.11108   1.11305   1.11659   1.12045   1.12427
 Alpha virt. eigenvalues --    1.12746   1.13258   1.13702   1.13986   1.14686
 Alpha virt. eigenvalues --    1.14832   1.15362   1.15821   1.15896   1.16185
 Alpha virt. eigenvalues --    1.17293   1.17880   1.18110   1.18862   1.19152
 Alpha virt. eigenvalues --    1.19487   1.20041   1.20340   1.20661   1.21537
 Alpha virt. eigenvalues --    1.22349   1.22693   1.23503   1.24244   1.24722
 Alpha virt. eigenvalues --    1.25470   1.25882   1.26855   1.27013   1.27420
 Alpha virt. eigenvalues --    1.28194   1.28455   1.28817   1.29463   1.30350
 Alpha virt. eigenvalues --    1.31007   1.31316   1.32220   1.32261   1.33324
 Alpha virt. eigenvalues --    1.33739   1.34198   1.34886   1.35322   1.36072
 Alpha virt. eigenvalues --    1.36653   1.37843   1.38945   1.39929   1.40236
 Alpha virt. eigenvalues --    1.40630   1.41074   1.41261   1.42148   1.42539
 Alpha virt. eigenvalues --    1.42654   1.42974   1.43201   1.43834   1.44121
 Alpha virt. eigenvalues --    1.44481   1.44845   1.45322   1.45906   1.46187
 Alpha virt. eigenvalues --    1.46710   1.47473   1.47755   1.48450   1.48943
 Alpha virt. eigenvalues --    1.49531   1.49988   1.50677   1.50924   1.51336
 Alpha virt. eigenvalues --    1.51634   1.52019   1.53192   1.53566   1.54035
 Alpha virt. eigenvalues --    1.54367   1.55165   1.55354   1.55501   1.56120
 Alpha virt. eigenvalues --    1.56380   1.56647   1.57166   1.57426   1.57724
 Alpha virt. eigenvalues --    1.58079   1.58637   1.58851   1.58976   1.59396
 Alpha virt. eigenvalues --    1.59607   1.59859   1.60355   1.60812   1.61693
 Alpha virt. eigenvalues --    1.61842   1.62344   1.62575   1.62770   1.63139
 Alpha virt. eigenvalues --    1.63684   1.64303   1.64414   1.65447   1.65830
 Alpha virt. eigenvalues --    1.66079   1.66567   1.66673   1.66962   1.67310
 Alpha virt. eigenvalues --    1.67698   1.68409   1.68704   1.68758   1.68843
 Alpha virt. eigenvalues --    1.68942   1.69369   1.69667   1.70135   1.70454
 Alpha virt. eigenvalues --    1.70823   1.71156   1.71309   1.71731   1.71814
 Alpha virt. eigenvalues --    1.72710   1.72769   1.73237   1.73583   1.74446
 Alpha virt. eigenvalues --    1.75322   1.75584   1.75813   1.76471   1.76840
 Alpha virt. eigenvalues --    1.77437   1.77693   1.78038   1.78179   1.78905
 Alpha virt. eigenvalues --    1.78992   1.79258   1.79478   1.79646   1.80545
 Alpha virt. eigenvalues --    1.81007   1.81604   1.81829   1.82130   1.82666
 Alpha virt. eigenvalues --    1.83162   1.83458   1.83859   1.84412   1.84965
 Alpha virt. eigenvalues --    1.85437   1.86164   1.86352   1.87439   1.87664
 Alpha virt. eigenvalues --    1.88517   1.89006   1.89437   1.89663   1.90225
 Alpha virt. eigenvalues --    1.90542   1.91121   1.91927   1.92092   1.92359
 Alpha virt. eigenvalues --    1.92733   1.93205   1.93799   1.94057   1.94385
 Alpha virt. eigenvalues --    1.95069   1.95308   1.96278   1.96648   1.96837
 Alpha virt. eigenvalues --    1.97402   1.97554   1.98013   1.98671   1.98819
 Alpha virt. eigenvalues --    1.99407   1.99943   2.00107   2.00606   2.00826
 Alpha virt. eigenvalues --    2.02034   2.02582   2.03004   2.03441   2.03905
 Alpha virt. eigenvalues --    2.04726   2.05202   2.05988   2.06580   2.07075
 Alpha virt. eigenvalues --    2.07610   2.08183   2.08360   2.08788   2.09382
 Alpha virt. eigenvalues --    2.09662   2.10444   2.10618   2.11338   2.11421
 Alpha virt. eigenvalues --    2.11658   2.11821   2.12184   2.12305   2.12726
 Alpha virt. eigenvalues --    2.13065   2.13705   2.13901   2.14325   2.14880
 Alpha virt. eigenvalues --    2.15289   2.15727   2.16080   2.16788   2.17362
 Alpha virt. eigenvalues --    2.18857   2.19240   2.19598   2.19883   2.20301
 Alpha virt. eigenvalues --    2.20508   2.21152   2.21914   2.22196   2.23212
 Alpha virt. eigenvalues --    2.23315   2.24581   2.25044   2.25978   2.26424
 Alpha virt. eigenvalues --    2.27863   2.28245   2.28895   2.29408   2.30131
 Alpha virt. eigenvalues --    2.30673   2.31015   2.31991   2.33279   2.33535
 Alpha virt. eigenvalues --    2.33957   2.34592   2.35602   2.35913   2.37845
 Alpha virt. eigenvalues --    2.39253   2.39942   2.41084   2.41148   2.41384
 Alpha virt. eigenvalues --    2.43247   2.44324   2.44984   2.45158   2.45463
 Alpha virt. eigenvalues --    2.46575   2.47338   2.47723   2.47784   2.48107
 Alpha virt. eigenvalues --    2.48274   2.48985   2.49395   2.49950   2.50246
 Alpha virt. eigenvalues --    2.51031   2.51529   2.52217   2.52822   2.53481
 Alpha virt. eigenvalues --    2.53657   2.54183   2.54796   2.55168   2.55866
 Alpha virt. eigenvalues --    2.56108   2.56335   2.57234   2.57693   2.57811
 Alpha virt. eigenvalues --    2.58568   2.59116   2.59445   2.60168   2.60330
 Alpha virt. eigenvalues --    2.60498   2.60888   2.61458   2.61832   2.62169
 Alpha virt. eigenvalues --    2.63384   2.64630   2.65705   2.66462   2.66897
 Alpha virt. eigenvalues --    2.67612   2.68201   2.68818   2.69282   2.69655
 Alpha virt. eigenvalues --    2.69994   2.70262   2.71114   2.71281   2.71665
 Alpha virt. eigenvalues --    2.73011   2.73934   2.74320   2.74615   2.74885
 Alpha virt. eigenvalues --    2.75137   2.75892   2.76125   2.76593   2.77062
 Alpha virt. eigenvalues --    2.77587   2.78184   2.79158   2.79551   2.79889
 Alpha virt. eigenvalues --    2.80576   2.80872   2.81309   2.81702   2.82021
 Alpha virt. eigenvalues --    2.82695   2.83224   2.83722   2.84303   2.84352
 Alpha virt. eigenvalues --    2.84792   2.85259   2.85615   2.86185   2.86777
 Alpha virt. eigenvalues --    2.86867   2.87268   2.88101   2.88588   2.88845
 Alpha virt. eigenvalues --    2.89040   2.89509   2.90122   2.90334   2.90642
 Alpha virt. eigenvalues --    2.90770   2.91209   2.91681   2.91953   2.93841
 Alpha virt. eigenvalues --    2.94531   2.95479   2.96601   2.98129   2.98574
 Alpha virt. eigenvalues --    2.99345   3.00783   3.01902   3.01989   3.02803
 Alpha virt. eigenvalues --    3.03949   3.04535   3.05230   3.06107   3.06791
 Alpha virt. eigenvalues --    3.07152   3.07483   3.07713   3.08371   3.09045
 Alpha virt. eigenvalues --    3.09783   3.11330   3.11577   3.12353   3.12564
 Alpha virt. eigenvalues --    3.13596   3.13851   3.14714   3.15197   3.15369
 Alpha virt. eigenvalues --    3.15656   3.16306   3.16911   3.17493   3.17725
 Alpha virt. eigenvalues --    3.18013   3.18402   3.19151   3.20044   3.22579
 Alpha virt. eigenvalues --    3.24474   3.25435   3.26014   3.26168   3.26798
 Alpha virt. eigenvalues --    3.27001   3.28030   3.28242   3.29097   3.29499
 Alpha virt. eigenvalues --    3.30559   3.30724   3.31683   3.34088   3.34340
 Alpha virt. eigenvalues --    3.37040   3.37514   3.38488   3.38627   3.41021
 Alpha virt. eigenvalues --    3.41290   3.42163   3.42378   3.43039   3.43463
 Alpha virt. eigenvalues --    3.44378   3.44612   3.46229   3.48954   3.50214
 Alpha virt. eigenvalues --    3.51605   3.54571   3.57359   3.58860   3.60932
 Alpha virt. eigenvalues --    3.61560   3.63319   3.63908   3.64416   3.65541
 Alpha virt. eigenvalues --    3.66675   3.67768   3.68284   3.69339   3.71214
 Alpha virt. eigenvalues --    3.71900   3.78684   3.78932   3.80028   3.81660
 Alpha virt. eigenvalues --    3.82717   3.83626   3.84668   3.84889   3.88308
 Alpha virt. eigenvalues --    3.89656   3.89907   3.90556   3.92805   3.94868
 Alpha virt. eigenvalues --    3.97036   3.98725   4.00306   4.02512   4.03139
 Alpha virt. eigenvalues --    4.03293   4.05946   4.06161   4.06717   4.07508
 Alpha virt. eigenvalues --    4.10152   4.11401   4.12633   4.14401   4.15396
 Alpha virt. eigenvalues --    4.16775   4.17573   4.18613   4.18766   4.19681
 Alpha virt. eigenvalues --    4.21320   4.22472   4.22885   4.25175   4.26213
 Alpha virt. eigenvalues --    4.26894   4.27272   4.30485   4.32004   4.33608
 Alpha virt. eigenvalues --    4.38117   4.38656   4.40272   4.40842   4.43061
 Alpha virt. eigenvalues --    4.43467   4.46817   4.50174   4.52231   4.56977
 Alpha virt. eigenvalues --    4.62244   4.62594   4.64023   4.65775   4.75146
 Alpha virt. eigenvalues --    4.77753   4.79173   4.81246   4.88041   4.88399
 Alpha virt. eigenvalues --    5.09860   5.10541   5.15532   5.19126   5.23254
 Alpha virt. eigenvalues --    5.23791   5.25765   5.26223   5.53295   5.54124
 Alpha virt. eigenvalues --    5.60135   5.62364   5.80042   5.80396   5.89837
 Alpha virt. eigenvalues --    5.90159   8.06264   8.11292   8.18916   8.24262
 Alpha virt. eigenvalues --    8.31798  10.67562  10.85290  10.89281  23.70707
 Alpha virt. eigenvalues --   23.71727  23.84793  23.86868  23.88250  23.90124
 Alpha virt. eigenvalues --   23.98542  23.99450  24.00452  24.00854  24.01161
 Alpha virt. eigenvalues --   24.02240  24.02589  24.03257  24.03993  24.05464
 Alpha virt. eigenvalues --   24.05789  24.06839  24.07451  24.08771  24.09443
 Alpha virt. eigenvalues --   24.11038  24.11451  24.12849  24.13624  24.14934
 Alpha virt. eigenvalues --   24.15179  24.16474  24.20577  24.20861  24.26697
 Alpha virt. eigenvalues --   24.27213  24.27800  24.28011  24.28218  24.28463
 Alpha virt. eigenvalues --   34.91488  35.76136  35.78179  35.78440  35.81872
 Alpha virt. eigenvalues --   44.85092  45.00069  45.02873  50.07672  50.08599
 Alpha virt. eigenvalues --   50.09540  50.10322 188.40731 980.06017
          Condensed to atoms (all electrons):
 Mulliken atomic charges:
              1
     1  C   -0.879445
     2  C   -0.772452
     3  C   -0.177699
     4  C    0.876317
     5  N    0.599948
     6  C   -1.062739
     7  C    0.885225
     8  N    0.417865
     9  C    0.370877
    10  C   -0.660543
    11  C   -0.194439
    12  C   -0.143955
    13  C   -0.712878
    14  N    0.694916
    15  C   -0.878093
    16  C   -0.666980
    17  C    0.702093
    18  N    0.626149
    19  C   -0.103477
    20  C   -0.634881
    21  C   -0.984725
    22  C   -0.095128
    23  C   -0.471237
    24  C    0.730961
    25  H    0.149385
    26  H    0.123753
    27  Zn  -0.730575
    28  H    0.149590
    29  H    0.123152
    30  H    0.205654
    31  H    0.249029
    32  H    0.121485
    33  H    0.132775
    34  H    0.204711
    35  H    0.249456
    36  H    0.122358
    37  H    0.121312
    38  C    0.642632
    39  C   -0.136475
    40  O   -0.059061
    41  C   -0.205854
    42  H    0.139069
    43  C   -0.677444
    44  H    0.143018
    45  C   -0.391592
    46  H    0.138208
    47  C    0.493186
    48  O    0.082996
    49  H    0.299267
    50  C   -0.274526
    51  C   -0.321788
    52  H    0.164633
    53  H    0.177547
    54  H    0.164705
    55  H    0.165913
    56  H    0.190474
    57  H    0.165906
    58  C    0.819569
    59  C    0.233398
    60  O   -0.020339
    61  C   -0.648114
    62  H    0.138673
    63  C   -0.968361
    64  H    0.142442
    65  C   -0.270145
    66  H    0.141487
    67  C    0.164389
    68  O    0.062179
    69  H    0.229490
    70  C   -0.493309
    71  C   -0.247098
    72  H    0.179982
    73  H    0.169103
    74  H    0.162843
    75  H    0.188320
    76  H    0.193140
    77  H    0.233774
 Sum of Mulliken atomic charges =  -0.00000
 Mulliken charges with hydrogens summed into heavy atoms:
              1
     1  C   -0.756293
     2  C   -0.622863
     3  C   -0.177699
     4  C    0.876317
     5  N    0.599948
     6  C   -0.608056
     7  C    0.885225
     8  N    0.417865
     9  C    0.370877
    10  C   -0.538185
    11  C   -0.073127
    12  C    0.085535
    13  C   -0.712878
    14  N    0.694916
    15  C   -0.756608
    16  C   -0.534205
    17  C    0.702093
    18  N    0.626149
    19  C   -0.103477
    20  C   -0.485497
    21  C   -0.860972
    22  C    0.204139
    23  C   -0.017070
    24  C    0.730961
    27  Zn  -0.730575
    38  C    0.642632
    39  C   -0.136475
    40  O   -0.059061
    41  C   -0.066785
    43  C   -0.534426
    45  C   -0.253385
    47  C    0.493186
    48  O    0.082996
    50  C    0.232359
    51  C    0.200505
    58  C    0.819569
    59  C    0.233398
    60  O   -0.020339
    61  C   -0.509440
    63  C   -0.825919
    65  C   -0.128657
    67  C    0.164389
    68  O    0.062179
    70  C    0.121924
    71  C    0.264830
 Sum of Mulliken charges with hydrogens summed into heavy atoms =  -0.00000
 Electronic spatial extent (au):  <R**2>=          24997.3870
 Charge=             -0.0000 electrons
 Dipole moment (field-independent basis, Debye):
    X=              1.7890    Y=              0.3576    Z=              2.5618  Tot=              3.1451
 Quadrupole moment (field-independent basis, Debye-Ang):
   XX=           -217.8642   YY=           -265.2467   ZZ=           -245.7236
   XY=             -2.0301   XZ=             -4.6596   YZ=             -4.2685
 Traceless Quadrupole moment (field-independent basis, Debye-Ang):
   XX=             25.0806   YY=            -22.3019   ZZ=             -2.7787
   XY=             -2.0301   XZ=             -4.6596   YZ=             -4.2685
 Octapole moment (field-independent basis, Debye-Ang**2):
  XXX=           -104.9188  YYY=             17.3992  ZZZ=             57.7525  XYY=             -1.7575
  XXY=             30.4762  XXZ=             53.5583  XZZ=             87.1311  YZZ=            -11.4663
  YYZ=            -47.8658  XYZ=             -9.3532
 Hexadecapole moment (field-independent basis, Debye-Ang**3):
 XXXX=         -20106.2552 YYYY=          -5169.8275 ZZZZ=          -4324.7579 XXXY=           -157.0145
 XXXZ=           -145.0923 YYYX=            -31.4715 YYYZ=             11.8767 ZZZX=             18.8812
 ZZZY=            -76.8255 XXYY=          -5123.9486 XXZZ=          -4275.2802 YYZZ=          -1740.8563
 XXYZ=            -58.4011 YYXZ=             26.5876 ZZXY=            -11.6125
 N-N= 6.558920639832D+03 E-N=-2.183118278823D+04  KE= 3.679910852292D+03
 Leave Link  601 at Wed Jul 13 18:59:08 2016, MaxMem= 1048576000 cpu:      19.6
 (Enter /opt/gaussian/g09/l9999.exe)

 Test job not archived.
 1\1\GINC-N196\SP\RHSEH1PBE TD-FC\6-311+G(d,p)\C36H32N4O4Zn1\SHUO\13-Ju
 l-2016\0\\#p HSEh1PBE/6-311+G(d,p) geom=allcheck td(singlets,root=1,ns
 tate=50) scf=(maxcycle=512,novaracc) test\\pphr_frag with HSEh1PBE, Tu
 e Jul 12 11:18:14 CDT 2016\\0,1\C,0,-4.0577082562,6.7891265123,2.35260
 88337\C,0,-3.5210663021,5.5515069236,2.0274199264\C,0,-4.6164461799,4.
 692478628,1.810418474\C,0,-5.4563916802,6.6508037598,2.2709357298\N,0,
 -5.7942235417,5.3728375528,1.9380897156\C,0,-6.4329311922,7.7180472291
 ,2.599720488\C,0,-7.7869495105,7.6814658574,2.0077553724\N,0,-8.446985
 202,6.520050855,1.7585803745\C,0,-9.6248422527,6.8680800604,1.17771968
 98\C,0,-8.5646827826,8.789243845,1.6220544714\C,0,-9.7283386732,8.2684
 451718,1.0671471827\C,0,-10.6443715266,5.898953848,0.6898486427\C,0,-1
 0.6754384959,4.5268370249,1.263491315\N,0,-9.5721388795,3.8572578072,1
 .685695579\C,0,-11.3867685324,2.4943909272,1.8717339005\C,0,-11.819231
 5232,3.7057534546,1.3502446699\C,0,-7.6410803138,1.5971638073,2.204523
 5641\N,0,-6.9311942829,2.7340069767,1.9602089545\C,0,-5.6421721662,2.3
 368178945,1.7671014805\C,0,-5.5330165085,0.9311566226,1.8583781699\C,0
 ,-6.7990269241,0.4654008984,2.1702364417\C,0,-4.5272037577,3.259662571
 ,1.4109827912\C,0,-9.0808480883,1.5642147601,2.5389997724\C,0,-9.99126
 15764,2.6149171226,2.0388488836\H,0,-4.6236943503,0.3608624238,1.73129
 91057\H,0,-7.1070147757,-0.5565506642,2.349647625\Zn,0,-7.7008036411,4
 .6329796364,1.7151738699\H,0,-2.4785290757,5.2720782516,1.968788827\H,
 0,-3.5270660845,7.6954221484,2.614358922\H,0,-5.9748702266,8.692382213
 ,2.3949664677\H,0,-6.5510368974,7.7024391495,3.7029658223\H,0,-11.9779
 626181,1.6148708263,2.0915932258\H,0,-12.8191428785,3.9907218243,1.052
 2024505\H,0,-9.4828293594,0.5806421807,2.2661513616\H,0,-9.1485756964,
 1.5750199941,3.646860682\H,0,-8.2853857012,9.8293712853,1.7290590251\H
 ,0,-10.5609092756,8.8082470397,0.6353031152\C,0,-3.1772019885,2.665254
 6247,1.7572937631\C,0,-2.2603861453,2.3151376185,0.7595387946\O,0,-2.6
 661062085,2.5391570318,-0.5200378326\C,0,-1.0132288637,1.7706383126,1.
 0840850676\H,0,-0.3038706729,1.4990146386,0.3123563247\C,0,-0.69011853
 13,1.580981691,2.4210197497\H,0,0.2770259995,1.1591887481,2.6782356167
 \C,0,-1.5759636725,1.9189210656,3.4370415772\H,0,-1.2997115159,1.76203
 6247,4.4724122145\C,0,-2.8186671642,2.4608880868,3.0985895232\O,0,-3.7
 542468926,2.8243821813,4.0025890423\H,0,-4.5479303338,3.2804790761,0.3
 005245316\C,0,-1.7852125779,2.204383805,-1.5672577659\C,0,-3.468928020
 7,2.6508722424,5.3707679237\H,0,-0.8504757627,2.7758384749,-1.50818519
 8\H,0,-2.3032795779,2.461481124,-2.4919529953\H,0,-1.5513762804,1.1324
 080978,-1.5725741812\H,0,-2.5978839957,3.2422637595,5.6797298812\H,0,-
 4.3497819139,3.0029633798,5.9078853476\H,0,-3.2943032831,1.5957355561,
 5.6161327101\C,0,-10.6153164928,5.7640099761,-0.8442196974\C,0,-11.794
 7847731,5.972707355,-1.5761751092\O,0,-12.8980537186,6.286114112,-0.84
 07078959\C,0,-11.8153209691,5.867466531,-2.9686153341\H,0,-12.72739497
 11,6.0392357308,-3.5266772949\C,0,-10.6464765588,5.5298453421,-3.63662
 32361\H,0,-10.6556496774,5.4403655173,-4.7185993493\C,0,-9.4674144779,
 5.297136264,-2.9424830171\H,0,-8.5705238556,5.0196576769,-3.4819378059
 \C,0,-9.4557986699,5.4093104196,-1.550131206\O,0,-8.3260594152,5.18948
 30399,-0.8158045463\H,0,-11.6212515559,6.3458596992,0.9059361256\C,0,-
 7.08803954,5.159447081,-1.5046406531\C,0,-14.0992223106,6.5584084415,-
 1.5242903796\H,0,-14.8345104682,6.802414621,-0.7565560818\H,0,-14.4483
 369875,5.6869935508,-2.0922279604\H,0,-13.9930723103,7.4116853343,-2.2
 058654355\H,0,-6.979623993,6.0320832258,-2.1577447861\H,0,-6.979183132
 8,4.2419718761,-2.0948551007\H,0,-6.314789991,5.1919320252,-0.73469025
 38\\Version=EM64L-G09RevC.01\State=1-A\HF=-3688.4039817\RMSD=9.002e-09
 \PG=C01 [X(C36H32N4O4Zn1)]\\@


 EVANS BOLDLY PUT 50 ATM. OF ETHYLENE IN A CELL WITH 25 ATM. OF OXYGEN.
 THE APPARATUS SUBSEQUENTLY BLEW UP, BUT LUCKILY NOT BEFORE HE
 OBTAINED THE SPECTRA SHOWN IN FIGURE 8.
 A.J.MERER AND R.S.MULLIKEN, CHEM.REV. 69, 645 (1969)
 Job cpu time: 10 days 13 hours 33 minutes 45.0 seconds.
 File lengths (MBytes):  RWF=  12128 Int=      0 D2E=      0 Chk=   2241 Scr=      1
 Normal termination of Gaussian 09 at Wed Jul 13 19:01:42 2016.
