 Entering Gaussian System, Link 0=g09
 Initial command:
 /opt/gaussian/g09/l1.exe /panfs/panfs.cluster/home/shuo/Gau-24925.inp -scrdir=/panfs/panfs.cluster/home/shuo/
 Default is to use a total of  12 processors:
                               12 via shared-memory
                                1 via Linda
 Entering Link 1 = /opt/gaussian/g09/l1.exe PID=     24926.
  
 Copyright (c) 1988,1990,1992,1993,1995,1998,2003,2009,2011,
            Gaussian, Inc.  All Rights Reserved.
  
 This is part of the Gaussian(R) 09 program.  It is based on
 the Gaussian(R) 03 system (copyright 2003, Gaussian, Inc.),
 the Gaussian(R) 98 system (copyright 1998, Gaussian, Inc.),
 the Gaussian(R) 94 system (copyright 1995, Gaussian, Inc.),
 the Gaussian 92(TM) system (copyright 1992, Gaussian, Inc.),
 the Gaussian 90(TM) system (copyright 1990, Gaussian, Inc.),
 the Gaussian 88(TM) system (copyright 1988, Gaussian, Inc.),
 the Gaussian 86(TM) system (copyright 1986, Carnegie Mellon
 University), and the Gaussian 82(TM) system (copyright 1983,
 Carnegie Mellon University). Gaussian is a federally registered
 trademark of Gaussian, Inc.
  
 This software contains proprietary and confidential information,
 including trade secrets, belonging to Gaussian, Inc.
  
 This software is provided under written license and may be
 used, copied, transmitted, or stored only in accord with that
 written license.
  
 The following legend is applicable only to US Government
 contracts under FAR:
  
                    RESTRICTED RIGHTS LEGEND
  
 Use, reproduction and disclosure by the US Government is
 subject to restrictions as set forth in subparagraphs (a)
 and (c) of the Commercial Computer Software - Restricted
 Rights clause in FAR 52.227-19.
  
 Gaussian, Inc.
 340 Quinnipiac St., Bldg. 40, Wallingford CT 06492
  
  
 ---------------------------------------------------------------
 Warning -- This program may not be used in any manner that
 competes with the business of Gaussian, Inc. or will provide
 assistance to any competitor of Gaussian, Inc.  The licensee
 of this program is prohibited from giving any competitor of
 Gaussian, Inc. access to this program.  By using this program,
 the user acknowledges that Gaussian, Inc. is engaged in the
 business of creating and licensing software in the field of
 computational chemistry and represents and warrants to the
 licensee that it is not a competitor of Gaussian, Inc. and that
 it will not use this program in any manner prohibited above.
 ---------------------------------------------------------------
  

 Cite this work as:
 Gaussian 09, Revision C.01,
 M. J. Frisch, G. W. Trucks, H. B. Schlegel, G. E. Scuseria, 
 M. A. Robb, J. R. Cheeseman, G. Scalmani, V. Barone, B. Mennucci, 
 G. A. Petersson, H. Nakatsuji, M. Caricato, X. Li, H. P. Hratchian, 
 A. F. Izmaylov, J. Bloino, G. Zheng, J. L. Sonnenberg, M. Hada, 
 M. Ehara, K. Toyota, R. Fukuda, J. Hasegawa, M. Ishida, T. Nakajima, 
 Y. Honda, O. Kitao, H. Nakai, T. Vreven, J. A. Montgomery, Jr., 
 J. E. Peralta, F. Ogliaro, M. Bearpark, J. J. Heyd, E. Brothers, 
 K. N. Kudin, V. N. Staroverov, T. Keith, R. Kobayashi, J. Normand, 
 K. Raghavachari, A. Rendell, J. C. Burant, S. S. Iyengar, J. Tomasi, 
 M. Cossi, N. Rega, J. M. Millam, M. Klene, J. E. Knox, J. B. Cross, 
 V. Bakken, C. Adamo, J. Jaramillo, R. Gomperts, R. E. Stratmann, 
 O. Yazyev, A. J. Austin, R. Cammi, C. Pomelli, J. W. Ochterski, 
 R. L. Martin, K. Morokuma, V. G. Zakrzewski, G. A. Voth, 
 P. Salvador, J. J. Dannenberg, S. Dapprich, A. D. Daniels, 
 O. Farkas, J. B. Foresman, J. V. Ortiz, J. Cioslowski, 
 and D. J. Fox, Gaussian, Inc., Wallingford CT, 2010.
 
 ******************************************
 Gaussian 09:  EM64L-G09RevC.01 23-Sep-2011
                30-Dec-2013 
 ******************************************
 %chk=91_C21H12N4S4Si.chk
 %NProcShared=12
 Will use up to   12 processors via shared memory.
 %Mem=8000MB
 Default route:  MaxDisk=100GB
 --------------------------------------------
 #B3LYP/6-31++G(d,p) opt scf=direct freq test
 --------------------------------------------
 1/14=-1,18=20,19=15,26=3,38=1/1,3;
 2/9=110,12=2,17=6,18=5,40=1/2;
 3/5=1,6=6,7=1111,11=2,16=1,25=1,30=1,71=1,74=-5/1,2,3;
 4//1;
 5/5=2,38=5/2;
 6/7=2,8=2,9=2,10=2,28=1/1;
 7//1,2,3,16;
 1/14=-1,18=20,19=15/3(2);
 2/9=110/2;
 99//99;
 2/9=110/2;
 3/5=1,6=6,7=1111,11=2,16=1,25=1,30=1,71=1,74=-5/1,2,3;
 4/5=5,16=3/1;
 5/5=2,38=5/2;
 7//1,2,3,16;
 1/14=-1,18=20,19=15/3(-5);
 2/9=110/2;
 6/7=2,8=2,9=2,10=2,19=2,28=1/1;
 99/9=1/99;
 ----------------------------------------------------------------------
 Geom opt of No.91 candidate from the CEPDB database with SMILE code of
  c1occ2c1ccc1sc3c4oc(cc4c4nsnc4c3c21)-c1nccc2nsnc12, HPC, 20131227, Sh
 uo Dai, Gaussian09
 ----------------------------------------------------------------------
 Charge =  0 Multiplicity = 1
 Symbolic Z-Matrix:
 C                     2.46318  -1.16993  -0.91949 
 O                     2.28504  -0.38732   0.31909 
 C                     2.95535  -1.38554   0.97053 
 C                     4.01301  -0.8801    0.26229 
 C                     3.92164  -1.90238  -0.68655 
 C                     5.47576  -2.26409  -0.49947 
 C                     6.58125  -1.362    -0.14135 
 C                     6.1947   -0.00756  -0.04056 
 S                     7.12519   1.44347   0.06689 
 C                     5.69396   2.35671   0.13074 
 C                     5.60675   3.76676   0.20042 
 O                     6.54849   4.74716   0.24086 
 C                     5.79291   5.89806   0.3032 
 C                     4.46143   5.7035    0.30375 
 C                     4.41202   4.34755   0.24552 
 C                     3.20704   3.72689   0.2282 
 N                     2.11177   4.4659    0.28968 
 S                     0.92369   3.3282    0.17007 
 N                     1.89827   1.94797   0.06226 
 C                     3.16743   2.34127   0.13847 
 C                     4.51621   1.64603   0.12662 
 C                     4.84842   0.2701    0.06724 
 C                     6.35457   7.18183   0.366 
 N                     5.46166   8.21517   0.25643 
 C                     5.88086   9.49075   0.34047 
 C                     7.19696   9.87526   0.54666 
 C                     8.12396   8.81303   0.68225 
 N                     9.44313   8.92146   0.8903 
 S                     10.04909   7.37341   0.97946 
 N                     8.66862   6.50415   0.76538 
 C                     7.6896    7.40618   0.59646 
 H                     1.30372  -1.30263  -0.70113 
 H                     2.52333  -2.45242   0.75247 
 H                     5.75173  -3.32747  -0.33393 
 H                     7.62888  -1.64988  -0.0595 
 H                     3.65009   6.39775   0.34328 
 H                     5.08369   10.22437   0.22561 
 H                     7.48851   10.90892   0.59866 
 

 GradGradGradGradGradGradGradGradGradGradGradGradGradGradGradGradGradGrad
 Berny optimization.
 Initialization pass.
                           ----------------------------
                           !    Initial Parameters    !
                           ! (Angstroms and Degrees)  !
 --------------------------                            --------------------------
 ! Name  Definition              Value          Derivative Info.                !
 --------------------------------------------------------------------------------
 ! R1    R(1,2)                  1.4759         estimate D2E/DX2                !
 ! R2    R(1,5)                  1.6486         estimate D2E/DX2                !
 ! R3    R(1,32)                 1.1873         estimate D2E/DX2                !
 ! R4    R(2,3)                  1.3675         estimate D2E/DX2                !
 ! R5    R(2,4)                  1.7978         estimate D2E/DX2                !
 ! R6    R(3,4)                  1.3696         estimate D2E/DX2                !
 ! R7    R(3,33)                 1.1715         estimate D2E/DX2                !
 ! R8    R(4,5)                  1.3977         estimate D2E/DX2                !
 ! R9    R(4,22)                 1.4349         estimate D2E/DX2                !
 ! R10   R(5,6)                  1.6066         estimate D2E/DX2                !
 ! R11   R(6,7)                  1.4711         estimate D2E/DX2                !
 ! R12   R(6,34)                 1.111          estimate D2E/DX2                !
 ! R13   R(7,8)                  1.4121         estimate D2E/DX2                !
 ! R14   R(7,35)                 1.0895         estimate D2E/DX2                !
 ! R15   R(8,9)                  1.7271         estimate D2E/DX2                !
 ! R16   R(8,22)                 1.3788         estimate D2E/DX2                !
 ! R17   R(9,10)                 1.699          estimate D2E/DX2                !
 ! R18   R(10,11)                1.4145         estimate D2E/DX2                !
 ! R19   R(10,21)                1.3756         estimate D2E/DX2                !
 ! R20   R(11,12)                1.36           estimate D2E/DX2                !
 ! R21   R(11,15)                1.3292         estimate D2E/DX2                !
 ! R22   R(12,13)                1.3782         estimate D2E/DX2                !
 ! R23   R(13,14)                1.3456         estimate D2E/DX2                !
 ! R24   R(13,23)                1.4027         estimate D2E/DX2                !
 ! R25   R(14,15)                1.3581         estimate D2E/DX2                !
 ! R26   R(14,36)                1.0686         estimate D2E/DX2                !
 ! R27   R(15,16)                1.3555         estimate D2E/DX2                !
 ! R28   R(16,17)                1.3227         estimate D2E/DX2                !
 ! R29   R(16,20)                1.3891         estimate D2E/DX2                !
 ! R30   R(17,18)                1.6493         estimate D2E/DX2                !
 ! R31   R(18,19)                1.6931         estimate D2E/DX2                !
 ! R32   R(19,20)                1.3309         estimate D2E/DX2                !
 ! R33   R(20,21)                1.5175         estimate D2E/DX2                !
 ! R34   R(21,22)                1.4167         estimate D2E/DX2                !
 ! R35   R(23,24)                1.3701         estimate D2E/DX2                !
 ! R36   R(23,31)                1.3732         estimate D2E/DX2                !
 ! R37   R(24,25)                1.3453         estimate D2E/DX2                !
 ! R38   R(25,26)                1.3865         estimate D2E/DX2                !
 ! R39   R(25,37)                1.0894         estimate D2E/DX2                !
 ! R40   R(26,27)                1.4163         estimate D2E/DX2                !
 ! R41   R(26,38)                1.0752         estimate D2E/DX2                !
 ! R42   R(27,28)                1.3399         estimate D2E/DX2                !
 ! R43   R(27,31)                1.4749         estimate D2E/DX2                !
 ! R44   R(28,29)                1.6648         estimate D2E/DX2                !
 ! R45   R(29,30)                1.6453         estimate D2E/DX2                !
 ! R46   R(30,31)                1.3419         estimate D2E/DX2                !
 ! A1    A(2,1,5)              102.9318         estimate D2E/DX2                !
 ! A2    A(2,1,32)              77.7049         estimate D2E/DX2                !
 ! A3    A(5,1,32)             142.0266         estimate D2E/DX2                !
 ! A4    A(1,2,3)               87.3373         estimate D2E/DX2                !
 ! A5    A(1,2,4)               73.2692         estimate D2E/DX2                !
 ! A6    A(2,3,33)             113.2864         estimate D2E/DX2                !
 ! A7    A(4,3,33)             121.6429         estimate D2E/DX2                !
 ! A8    A(2,4,5)               99.1542         estimate D2E/DX2                !
 ! A9    A(2,4,22)             110.1318         estimate D2E/DX2                !
 ! A10   A(3,4,5)               91.7562         estimate D2E/DX2                !
 ! A11   A(3,4,22)             144.6606         estimate D2E/DX2                !
 ! A12   A(5,4,22)             122.144          estimate D2E/DX2                !
 ! A13   A(1,5,4)               80.1427         estimate D2E/DX2                !
 ! A14   A(4,5,6)               91.2825         estimate D2E/DX2                !
 ! A15   A(5,6,7)              128.1134         estimate D2E/DX2                !
 ! A16   A(5,6,34)             118.2373         estimate D2E/DX2                !
 ! A17   A(7,6,34)             111.3452         estimate D2E/DX2                !
 ! A18   A(6,7,8)              113.5676         estimate D2E/DX2                !
 ! A19   A(6,7,35)             125.3684         estimate D2E/DX2                !
 ! A20   A(8,7,35)             120.7487         estimate D2E/DX2                !
 ! A21   A(7,8,9)              131.5139         estimate D2E/DX2                !
 ! A22   A(7,8,22)             117.7751         estimate D2E/DX2                !
 ! A23   A(9,8,22)             110.6092         estimate D2E/DX2                !
 ! A24   A(8,9,10)              90.005          estimate D2E/DX2                !
 ! A25   A(9,10,11)            126.1314         estimate D2E/DX2                !
 ! A26   A(9,10,21)            116.3238         estimate D2E/DX2                !
 ! A27   A(11,10,21)           117.5416         estimate D2E/DX2                !
 ! A28   A(10,11,12)           132.6398         estimate D2E/DX2                !
 ! A29   A(10,11,15)           119.5169         estimate D2E/DX2                !
 ! A30   A(12,11,15)           107.8426         estimate D2E/DX2                !
 ! A31   A(11,12,13)           102.9267         estimate D2E/DX2                !
 ! A32   A(12,13,14)           114.9458         estimate D2E/DX2                !
 ! A33   A(12,13,23)           123.1477         estimate D2E/DX2                !
 ! A34   A(14,13,23)           121.9061         estimate D2E/DX2                !
 ! A35   A(13,14,15)           100.3896         estimate D2E/DX2                !
 ! A36   A(13,14,36)           131.1005         estimate D2E/DX2                !
 ! A37   A(15,14,36)           128.5092         estimate D2E/DX2                !
 ! A38   A(11,15,14)           113.892          estimate D2E/DX2                !
 ! A39   A(11,15,16)           126.7631         estimate D2E/DX2                !
 ! A40   A(14,15,16)           119.3427         estimate D2E/DX2                !
 ! A41   A(15,16,17)           118.664          estimate D2E/DX2                !
 ! A42   A(15,16,20)           118.8749         estimate D2E/DX2                !
 ! A43   A(17,16,20)           122.4599         estimate D2E/DX2                !
 ! A44   A(16,17,18)           101.9886         estimate D2E/DX2                !
 ! A45   A(17,18,19)            98.7608         estimate D2E/DX2                !
 ! A46   A(18,19,20)           107.7205         estimate D2E/DX2                !
 ! A47   A(16,20,19)           109.0062         estimate D2E/DX2                !
 ! A48   A(16,20,21)           115.6056         estimate D2E/DX2                !
 ! A49   A(19,20,21)           135.3792         estimate D2E/DX2                !
 ! A50   A(10,21,20)           121.6203         estimate D2E/DX2                !
 ! A51   A(10,21,22)           107.5253         estimate D2E/DX2                !
 ! A52   A(20,21,22)           130.8229         estimate D2E/DX2                !
 ! A53   A(4,22,8)             114.6878         estimate D2E/DX2                !
 ! A54   A(4,22,21)            129.5162         estimate D2E/DX2                !
 ! A55   A(8,22,21)            115.3287         estimate D2E/DX2                !
 ! A56   A(13,23,24)           115.198          estimate D2E/DX2                !
 ! A57   A(13,23,31)           123.1153         estimate D2E/DX2                !
 ! A58   A(24,23,31)           121.5875         estimate D2E/DX2                !
 ! A59   A(23,24,25)           120.4677         estimate D2E/DX2                !
 ! A60   A(24,25,26)           124.6108         estimate D2E/DX2                !
 ! A61   A(24,25,37)           113.8218         estimate D2E/DX2                !
 ! A62   A(26,25,37)           121.5667         estimate D2E/DX2                !
 ! A63   A(25,26,27)           115.3094         estimate D2E/DX2                !
 ! A64   A(25,26,38)           122.0835         estimate D2E/DX2                !
 ! A65   A(27,26,38)           122.6071         estimate D2E/DX2                !
 ! A66   A(26,27,28)           126.7669         estimate D2E/DX2                !
 ! A67   A(26,27,31)           121.1355         estimate D2E/DX2                !
 ! A68   A(28,27,31)           112.0974         estimate D2E/DX2                !
 ! A69   A(27,28,29)           106.9432         estimate D2E/DX2                !
 ! A70   A(28,29,30)           100.3062         estimate D2E/DX2                !
 ! A71   A(29,30,31)           105.8651         estimate D2E/DX2                !
 ! A72   A(23,31,27)           116.8667         estimate D2E/DX2                !
 ! A73   A(23,31,30)           128.3595         estimate D2E/DX2                !
 ! A74   A(27,31,30)           114.7724         estimate D2E/DX2                !
 ! A75   L(1,5,6,4,-1)         171.4252         estimate D2E/DX2                !
 ! A76   L(1,5,6,4,-2)         190.5214         estimate D2E/DX2                !
 ! D1    D(5,1,2,3)            -33.1797         estimate D2E/DX2                !
 ! D2    D(5,1,2,4)             14.604          estimate D2E/DX2                !
 ! D3    D(32,1,2,3)           107.8756         estimate D2E/DX2                !
 ! D4    D(32,1,2,4)           155.6593         estimate D2E/DX2                !
 ! D5    D(2,1,5,4)            -18.374          estimate D2E/DX2                !
 ! D6    D(32,1,5,4)          -104.8813         estimate D2E/DX2                !
 ! D7    D(2,1,6,7)            -50.3028         estimate D2E/DX2                !
 ! D8    D(2,1,6,34)           112.4582         estimate D2E/DX2                !
 ! D9    D(32,1,6,7)          -133.9316         estimate D2E/DX2                !
 ! D10   D(32,1,6,34)           28.8294         estimate D2E/DX2                !
 ! D11   D(1,2,3,33)           -51.0964         estimate D2E/DX2                !
 ! D12   D(1,2,4,5)            -17.0725         estimate D2E/DX2                !
 ! D13   D(1,2,4,22)           112.2032         estimate D2E/DX2                !
 ! D14   D(33,3,4,5)            11.916          estimate D2E/DX2                !
 ! D15   D(33,3,4,22)          176.3895         estimate D2E/DX2                !
 ! D16   D(2,4,5,1)             14.8017         estimate D2E/DX2                !
 ! D17   D(2,4,5,6)           -175.7196         estimate D2E/DX2                !
 ! D18   D(3,4,5,1)             63.4018         estimate D2E/DX2                !
 ! D19   D(3,4,5,6)           -127.1196         estimate D2E/DX2                !
 ! D20   D(22,4,5,1)          -106.0617         estimate D2E/DX2                !
 ! D21   D(22,4,5,6)            63.417          estimate D2E/DX2                !
 ! D22   D(2,4,22,8)          -177.7016         estimate D2E/DX2                !
 ! D23   D(2,4,22,21)           10.6079         estimate D2E/DX2                !
 ! D24   D(3,4,22,8)           136.2164         estimate D2E/DX2                !
 ! D25   D(3,4,22,21)          -35.474          estimate D2E/DX2                !
 ! D26   D(5,4,22,8)           -62.2045         estimate D2E/DX2                !
 ! D27   D(5,4,22,21)          126.1051         estimate D2E/DX2                !
 ! D28   D(4,5,6,7)            -30.6537         estimate D2E/DX2                !
 ! D29   D(4,5,6,34)           130.5027         estimate D2E/DX2                !
 ! D30   D(5,6,7,8)             -4.2125         estimate D2E/DX2                !
 ! D31   D(5,6,7,35)          -177.768          estimate D2E/DX2                !
 ! D32   D(34,6,7,8)          -166.424          estimate D2E/DX2                !
 ! D33   D(34,6,7,35)           20.0205         estimate D2E/DX2                !
 ! D34   D(6,7,8,9)           -167.5488         estimate D2E/DX2                !
 ! D35   D(6,7,8,22)            16.5125         estimate D2E/DX2                !
 ! D36   D(35,7,8,9)             6.3378         estimate D2E/DX2                !
 ! D37   D(35,7,8,22)         -169.6009         estimate D2E/DX2                !
 ! D38   D(7,8,9,10)           179.8464         estimate D2E/DX2                !
 ! D39   D(22,8,9,10)           -3.9923         estimate D2E/DX2                !
 ! D40   D(7,8,22,4)             8.8172         estimate D2E/DX2                !
 ! D41   D(7,8,22,21)         -178.2681         estimate D2E/DX2                !
 ! D42   D(9,8,22,4)          -167.9347         estimate D2E/DX2                !
 ! D43   D(9,8,22,21)            4.9799         estimate D2E/DX2                !
 ! D44   D(8,9,10,11)         -178.3551         estimate D2E/DX2                !
 ! D45   D(8,9,10,21)            2.3115         estimate D2E/DX2                !
 ! D46   D(9,10,11,12)          -0.3227         estimate D2E/DX2                !
 ! D47   D(9,10,11,15)        -179.9694         estimate D2E/DX2                !
 ! D48   D(21,10,11,12)        179.0034         estimate D2E/DX2                !
 ! D49   D(21,10,11,15)         -0.6432         estimate D2E/DX2                !
 ! D50   D(9,10,21,20)        -178.143          estimate D2E/DX2                !
 ! D51   D(9,10,21,22)           0.0231         estimate D2E/DX2                !
 ! D52   D(11,10,21,20)          2.4642         estimate D2E/DX2                !
 ! D53   D(11,10,21,22)       -179.3697         estimate D2E/DX2                !
 ! D54   D(10,11,12,13)        179.9999         estimate D2E/DX2                !
 ! D55   D(15,11,12,13)         -0.3231         estimate D2E/DX2                !
 ! D56   D(10,11,15,14)       -179.6825         estimate D2E/DX2                !
 ! D57   D(10,11,15,16)         -0.2237         estimate D2E/DX2                !
 ! D58   D(12,11,15,14)          0.5906         estimate D2E/DX2                !
 ! D59   D(12,11,15,16)       -179.9506         estimate D2E/DX2                !
 ! D60   D(11,12,13,14)         -0.0266         estimate D2E/DX2                !
 ! D61   D(11,12,13,23)        179.7816         estimate D2E/DX2                !
 ! D62   D(12,13,14,15)          0.346          estimate D2E/DX2                !
 ! D63   D(12,13,14,36)       -179.9448         estimate D2E/DX2                !
 ! D64   D(23,13,14,15)       -179.4649         estimate D2E/DX2                !
 ! D65   D(23,13,14,36)          0.2443         estimate D2E/DX2                !
 ! D66   D(12,13,23,24)        172.2883         estimate D2E/DX2                !
 ! D67   D(12,13,23,31)        -11.2873         estimate D2E/DX2                !
 ! D68   D(14,13,23,24)         -7.9165         estimate D2E/DX2                !
 ! D69   D(14,13,23,31)        168.5079         estimate D2E/DX2                !
 ! D70   D(13,14,15,11)         -0.5644         estimate D2E/DX2                !
 ! D71   D(13,14,15,16)        179.933          estimate D2E/DX2                !
 ! D72   D(36,14,15,11)        179.7156         estimate D2E/DX2                !
 ! D73   D(36,14,15,16)          0.213          estimate D2E/DX2                !
 ! D74   D(11,15,16,17)        179.5376         estimate D2E/DX2                !
 ! D75   D(11,15,16,20)         -0.8508         estimate D2E/DX2                !
 ! D76   D(14,15,16,17)         -1.0301         estimate D2E/DX2                !
 ! D77   D(14,15,16,20)        178.5815         estimate D2E/DX2                !
 ! D78   D(15,16,17,18)        177.469          estimate D2E/DX2                !
 ! D79   D(20,16,17,18)         -2.1279         estimate D2E/DX2                !
 ! D80   D(15,16,20,19)       -176.592          estimate D2E/DX2                !
 ! D81   D(15,16,20,21)          2.4879         estimate D2E/DX2                !
 ! D82   D(17,16,20,19)          3.0041         estimate D2E/DX2                !
 ! D83   D(17,16,20,21)       -177.9159         estimate D2E/DX2                !
 ! D84   D(16,17,18,19)          0.5561         estimate D2E/DX2                !
 ! D85   D(17,18,19,20)          0.9727         estimate D2E/DX2                !
 ! D86   D(18,19,20,16)         -2.1024         estimate D2E/DX2                !
 ! D87   D(18,19,20,21)        179.0788         estimate D2E/DX2                !
 ! D88   D(16,20,21,10)         -3.4158         estimate D2E/DX2                !
 ! D89   D(16,20,21,22)        178.8953         estimate D2E/DX2                !
 ! D90   D(19,20,21,10)        175.3457         estimate D2E/DX2                !
 ! D91   D(19,20,21,22)         -2.3432         estimate D2E/DX2                !
 ! D92   D(10,21,22,4)         168.4001         estimate D2E/DX2                !
 ! D93   D(10,21,22,8)          -3.2466         estimate D2E/DX2                !
 ! D94   D(20,21,22,4)         -13.6636         estimate D2E/DX2                !
 ! D95   D(20,21,22,8)         174.6897         estimate D2E/DX2                !
 ! D96   D(13,23,24,25)        178.1267         estimate D2E/DX2                !
 ! D97   D(31,23,24,25)          1.6423         estimate D2E/DX2                !
 ! D98   D(13,23,31,27)       -177.8944         estimate D2E/DX2                !
 ! D99   D(13,23,31,30)          1.6462         estimate D2E/DX2                !
 ! D100  D(24,23,31,27)         -1.6928         estimate D2E/DX2                !
 ! D101  D(24,23,31,30)        177.8478         estimate D2E/DX2                !
 ! D102  D(23,24,25,26)         -0.4656         estimate D2E/DX2                !
 ! D103  D(23,24,25,37)        179.2296         estimate D2E/DX2                !
 ! D104  D(24,25,26,27)         -0.5127         estimate D2E/DX2                !
 ! D105  D(24,25,26,38)        179.454          estimate D2E/DX2                !
 ! D106  D(37,25,26,27)        179.8145         estimate D2E/DX2                !
 ! D107  D(37,25,26,38)         -0.2188         estimate D2E/DX2                !
 ! D108  D(25,26,27,28)       -179.8216         estimate D2E/DX2                !
 ! D109  D(25,26,27,31)          0.3805         estimate D2E/DX2                !
 ! D110  D(38,26,27,28)          0.2119         estimate D2E/DX2                !
 ! D111  D(38,26,27,31)       -179.586          estimate D2E/DX2                !
 ! D112  D(26,27,28,29)        179.6985         estimate D2E/DX2                !
 ! D113  D(31,27,28,29)         -0.4882         estimate D2E/DX2                !
 ! D114  D(26,27,31,23)          0.6784         estimate D2E/DX2                !
 ! D115  D(26,27,31,30)       -178.9249         estimate D2E/DX2                !
 ! D116  D(28,27,31,23)       -179.1469         estimate D2E/DX2                !
 ! D117  D(28,27,31,30)          1.2498         estimate D2E/DX2                !
 ! D118  D(27,28,29,30)         -0.2332         estimate D2E/DX2                !
 ! D119  D(28,29,30,31)          0.9162         estimate D2E/DX2                !
 ! D120  D(29,30,31,23)        179.134          estimate D2E/DX2                !
 ! D121  D(29,30,31,27)         -1.3173         estimate D2E/DX2                !
 --------------------------------------------------------------------------------
 Trust Radius=3.00D-01 FncErr=1.00D-07 GrdErr=1.00D-06
 Number of steps in this run=    228 maximum allowed number of steps=    228.
 GradGradGradGradGradGradGradGradGradGradGradGradGradGradGradGradGradGrad

                          Input orientation:                          
 ---------------------------------------------------------------------
 Center     Atomic      Atomic             Coordinates (Angstroms)
 Number     Number       Type             X           Y           Z
 ---------------------------------------------------------------------
      1          6           0        2.463180   -1.169930   -0.919490
      2          8           0        2.285040   -0.387320    0.319090
      3          6           0        2.955350   -1.385540    0.970530
      4          6           0        4.013010   -0.880100    0.262290
      5          6           0        3.921640   -1.902380   -0.686550
      6          6           0        5.475760   -2.264090   -0.499470
      7          6           0        6.581250   -1.362000   -0.141350
      8          6           0        6.194700   -0.007560   -0.040560
      9         16           0        7.125190    1.443470    0.066890
     10          6           0        5.693960    2.356710    0.130740
     11          6           0        5.606750    3.766760    0.200420
     12          8           0        6.548490    4.747160    0.240860
     13          6           0        5.792910    5.898060    0.303200
     14          6           0        4.461430    5.703500    0.303750
     15          6           0        4.412020    4.347550    0.245520
     16          6           0        3.207040    3.726890    0.228200
     17          7           0        2.111770    4.465900    0.289680
     18         16           0        0.923690    3.328200    0.170070
     19          7           0        1.898270    1.947970    0.062260
     20          6           0        3.167430    2.341270    0.138470
     21          6           0        4.516210    1.646030    0.126620
     22          6           0        4.848420    0.270100    0.067240
     23          6           0        6.354570    7.181830    0.366000
     24          7           0        5.461660    8.215170    0.256430
     25          6           0        5.880860    9.490750    0.340470
     26          6           0        7.196960    9.875260    0.546660
     27          6           0        8.123960    8.813030    0.682250
     28          7           0        9.443130    8.921460    0.890300
     29         16           0       10.049090    7.373410    0.979460
     30          7           0        8.668620    6.504150    0.765380
     31          6           0        7.689600    7.406180    0.596460
     32          1           0        1.303720   -1.302630   -0.701130
     33          1           0        2.523330   -2.452420    0.752470
     34          1           0        5.751730   -3.327470   -0.333930
     35          1           0        7.628880   -1.649880   -0.059500
     36          1           0        3.650090    6.397750    0.343280
     37          1           0        5.083690   10.224370    0.225610
     38          1           0        7.488510   10.908920    0.598660
 ---------------------------------------------------------------------
                    Distance matrix (angstroms):
                    1          2          3          4          5
     1  C    0.000000
     2  O    1.475904   0.000000
     3  C    1.964916   1.367528   0.000000
     4  C    1.970426   1.797759   1.369569   0.000000
     5  C    1.648590   2.446462   1.986644   1.397749   0.000000
     6  C    3.232529   3.791174   3.047165   2.152985   1.606587
     7  C    4.195342   4.429382   3.792622   2.644052   2.768172
     8  C    4.005978   3.944491   3.662584   2.369138   3.028935
     9  S    5.434808   5.180970   5.119319   3.888807   4.693092
    10  C    4.896745   4.380173   4.712713   3.649635   4.684968
    11  C    5.958787   5.320171   5.845442   4.912957   5.980423
    12  O    7.283414   6.674280   7.145144   6.172129   7.209495
    13  C    7.908132   7.198014   7.845247   7.008079   8.082581
    14  C    7.261774   6.467998   7.277868   6.598984   7.689049
    15  C    5.966390   5.191190   5.959517   5.242882   6.338048
    16  C    5.084227   4.217235   5.172170   4.677083   5.747704
    17  N    5.774787   4.856401   5.951011   5.674080   6.692058
    18  S    4.877535   3.959870   5.194971   5.221321   6.089373
    19  N    3.317266   2.380994   3.613124   3.536964   4.413608
    20  C    3.734136   2.873402   3.824450   3.332801   4.388400
    21  C    3.638531   3.024843   3.512675   2.579331   3.688627
    22  C    2.955790   2.658298   2.672226   1.434892   2.479272
    23  C    9.303080   8.593911   9.236882   8.395735   9.463080
    24  N    9.922387   9.170478   9.948123   9.209916  10.277436
    25  C   11.265795  10.512214  11.280482  10.538003  11.605892
    26  C   12.105969  11.379776  12.040620  11.220346  12.286632
    27  C   11.587471  10.902812  11.437153  10.537222  11.591079
    28  N   12.402870  11.756612  12.179162  11.222797  12.252707
    29  S   11.581913  10.997522  11.271221  10.250318  11.241064
    30  N   10.011882   9.404341   9.743241   8.743852   9.762769
    31  C   10.156930   9.488142   9.992367   9.071462  10.123879
    32  H    1.187282   1.685714   2.351426   2.906366   2.685781
    33  H    2.108044   2.123497   1.171505   2.220724   2.080527
    34  H    3.976483   4.592261   3.645881   3.060759   2.346157
    35  H    5.258744   5.504000   4.792987   3.710879   3.768365
    36  H    7.763577   6.921064   7.839369   7.287343   8.368181
    37  H   11.747698  10.974933  11.826865  11.156028  12.216401
    38  H   13.170320  12.440229  13.108836  12.295253  13.360529
                    6          7          8          9         10
     6  C    0.000000
     7  C    1.471096   0.000000
     8  C    2.412343   1.412122   0.000000
     9  S    4.097241   2.865292   1.727092   0.000000
    10  C    4.668680   3.832769   2.422779   1.698971   0.000000
    11  C    6.072739   5.231695   3.827434   2.778699   1.414462
    12  O    7.131372   6.121192   4.776162   3.358157   2.540984
    13  C    8.207652   7.316254   5.929246   4.655554   3.546927
    14  C    8.071959   7.390064   5.978209   5.029868   3.570723
    15  C    6.737977   6.119983   4.714528   3.978301   2.370651
    16  C    6.447359   6.117080   4.790038   4.537833   2.841067
    17  N    7.565180   7.357068   6.065577   5.858250   4.160052
    18  S    7.241777   7.355470   6.241411   6.482396   4.868348
    19  N    5.554766   5.738263   4.721650   5.251213   3.818248
    20  C    5.190828   5.044470   3.835807   4.058945   2.526589
    21  C    4.074526   3.658475   2.362126   2.617513   1.375565
    22  C    2.671485   2.389552   1.378835   2.561343   2.252312
    23  C    9.526109   8.561882   7.202651   5.797594   4.875811
    24  N   10.506497   9.650590   8.260680   6.975613   5.864411
    25  C   11.791771  10.885995   9.511129   8.147510   7.139569
    26  C   12.305313  11.275126   9.950853   8.445733   7.678580
    27  C   11.450415  10.324219   9.057997   7.462347   6.920486
    28  N   11.949394  10.724002   9.547052   7.872178   7.597970
    29  S   10.769586   9.465174   8.389010   6.674291   6.697370
    30  N    9.416806   8.188748   7.012288   5.336717   5.143212
    31  C    9.980795   8.868697   7.589734   6.012729   5.449461
    32  H    4.286139   5.307467   5.102474   6.482317   5.775551
    33  H    3.212424   4.295887   4.481651   6.068368   5.793719
    34  H    1.111009   2.142023   3.362156   4.980855   5.703434
    35  H    2.281831   1.089543   2.180469   3.136637   4.453411
    36  H    8.892175   8.309048   6.902925   6.057855   4.533496
    37  H   12.515634  11.688512  10.295513   9.016492   7.891863
    38  H   13.371060  12.326646  11.011452   9.487335   8.750980
                   11         12         13         14         15
    11  C    0.000000
    12  O    1.360034   0.000000
    13  C    2.141882   1.378172   0.000000
    14  C    2.252420   2.296598   1.345620   0.000000
    15  C    1.329184   2.173526   2.077081   1.358099   0.000000
    16  C    2.400202   3.493766   3.377326   2.342262   1.355543
    17  N    3.565340   4.445894   3.949944   2.655702   2.303716
    18  S    4.703648   5.801451   5.507378   4.263276   3.634998
    19  N    4.132785   5.430645   5.552430   4.553253   3.480015
    20  C    2.825976   4.150947   4.423916   3.606431   2.363392
    21  C    2.385837   3.709477   4.443074   4.061704   2.706142
    22  C    3.580424   4.792124   5.711539   5.452296   4.104610
    23  C    3.499908   2.445584   1.402666   2.402772   3.438191
    24  N    4.451128   3.634355   2.341135   2.703920   4.007536
    25  C    5.732261   4.791377   3.593960   4.044675   5.349674
    26  C    6.321584   5.177976   4.224778   4.994568   6.196947
    27  C    5.659801   4.382719   3.751603   4.819395   5.823207
    28  N    6.462560   5.121083   4.775954   5.959584   6.829968
    29  S    5.774878   4.438121   4.555113   5.870871   6.439802
    30  N    4.145785   2.803049   2.975006   4.307504   4.799981
    31  C    4.211946   2.915299   2.440873   3.661404   4.496766
    32  H    6.710259   8.061942   8.544673   7.750276   6.517838
    33  H    6.963508   8.264237   8.979004   8.395035   7.075573
    34  H    7.115803   8.134178   9.247596   9.144940   7.812587
    35  H    5.787621   6.494581   7.776486   8.014792   6.812517
    36  H    3.281926   3.337014   2.200676   1.068559   2.189387
    37  H    6.478808   5.669718   4.384743   4.564162   5.915112
    38  H    7.396625   6.243312   5.298214   6.028813   7.255417
                   16         17         18         19         20
    16  C    0.000000
    17  N    1.322699   0.000000
    18  S    2.318625   1.649303   0.000000
    19  N    2.214717   2.537178   1.693064   0.000000
    20  C    1.389087   2.377254   2.451407   1.330887   0.000000
    21  C    2.460533   3.709392   3.967088   2.636080   1.517467
    22  C    3.830070   5.014327   4.976551   3.393915   2.668435
    23  C    4.675740   5.038199   6.662080   6.880709   5.800056
    24  N    5.022824   5.027912   6.669566   7.212021   6.307147
    25  C    6.354841   6.281539   7.910726   8.534164   7.649743
    26  C    7.336439   7.428753   9.075226   9.547392   8.553639
    27  C    7.088800   7.429541   9.065847   9.288307   8.169857
    28  N    8.143141   8.600093  10.216856  10.307285   9.124065
    29  S    7.789425   8.481183  10.014577   9.834252   8.566618
    30  N    6.150658   6.882807   8.391960   8.190897   6.927170
    31  C    5.810863   6.312808   7.911338   7.976022   6.805372
    32  H    5.457321   5.908518   4.727367   3.391556   4.178080
    33  H    6.239086   6.945985   6.026077   4.497835   4.875585
    34  H    7.520335   8.624083   8.237835   6.544951   6.247910
    35  H    6.967431   8.243979   8.354254   6.767514   5.989408
    36  H    2.709803   2.470090   4.109184   4.790448   4.090225
    37  H    6.763066   6.480462   8.053934   8.869745   8.113132
    38  H    8.369575   8.397458  10.037324  10.575308   9.606671
                   21         22         23         24         25
    21  C    0.000000
    22  C    1.416712   0.000000
    23  C    5.837975   7.080237   0.000000
    24  N    6.638097   7.970947   1.370068   0.000000
    25  C    7.965402   9.282294   2.357152   1.345324   0.000000
    26  C    8.665049   9.899726   2.827866   2.418966   1.386536
    27  C    8.043039   9.170008   2.427255   2.761630   2.368040
    28  N    8.819843   9.830301   3.583351   4.093011   3.649133
    29  S    8.008931   8.850770   3.750002   4.719729   4.718642
    30  N    6.422761   7.344706   2.444091   3.670315   4.107546
    31  C    6.593215   7.699092   1.373226   2.394536   2.771733
    32  H    4.438452   3.953324   9.931561  10.430432  11.769970
    33  H    4.600060   3.645230  10.375285  11.075979  12.412980
    34  H    5.145320   3.730873  10.549820  11.561367  12.836598
    35  H    4.537221   3.381323   8.933309  10.105240  11.284024
    36  H    4.834868   6.249823   2.815939   2.567556   3.813527
    37  H    8.597660   9.958309   3.300287   2.044675   1.089436
    38  H    9.739534  10.974378   3.902711   3.388441   2.159261
                   26         27         28         29         30
    26  C    0.000000
    27  C    1.416350   0.000000
    28  N    2.464367   1.339870   0.000000
    29  S    3.818536   2.422182   1.664811   0.000000
    30  N    3.684834   2.373708   2.541428   1.645339   0.000000
    31  C    2.518240   1.474875   2.336083   2.390597   1.341891
    32  H   12.697735  12.278273  13.164903  12.433002  10.832277
    33  H   13.185479  12.581031  13.314195  12.378834  10.862086
    34  H   13.310755  12.411762  12.851516  11.606082  10.313946
    35  H   11.549149  10.500847  10.767862   9.399820   8.261337
    36  H    4.971391   5.095487   6.342528   6.504140   5.037374
    37  H    2.165840   3.382845   4.598272   5.775072   5.194527
    38  H    1.075248   2.191698   2.802783   4.381941   4.563163
                   31         32         33         34         35
    31  C    0.000000
    32  H   10.876883   0.000000
    33  H   11.131338   2.218652   0.000000
    34  H   10.946790   4.900980   3.516894   0.000000
    35  H    9.079989   6.367097   5.231635   2.532452   0.000000
    36  H    4.171172   8.117395   8.930987   9.972733   8.986509
    37  H    3.856228  12.166296  12.943494  13.579828  12.147308
    38  H    3.508508  13.750019  14.254897  14.372228  12.576817
                   36         37         38
    36  H    0.000000
    37  H    4.088041   0.000000
    38  H    5.928688   2.528030   0.000000
 Stoichiometry    C21H7N5O2S3
 Framework group  C1[X(C21H7N5O2S3)]
 Deg. of freedom   108
 Full point group                 C1      NOp   1
 Largest Abelian subgroup         C1      NOp   1
 Largest concise Abelian subgroup C1      NOp   1
                         Standard orientation:                         
 ---------------------------------------------------------------------
 Center     Atomic      Atomic             Coordinates (Angstroms)
 Number     Number       Type             X           Y           Z
 ---------------------------------------------------------------------
      1          6           0       -5.647976    0.398645   -0.772800
      2          8           0       -4.943203    0.905020    0.421006
      3          6           0       -5.482372   -0.147780    1.107330
      4          6           0       -4.606581   -0.858623    0.330536
      5          6           0       -5.625330   -1.234597   -0.549518
      6          6           0       -5.232996   -2.785192   -0.398353
      7          6           0       -3.906280   -3.364876   -0.137743
      8          6           0       -2.868304   -2.407954   -0.106251
      9         16           0       -1.150077   -2.581919   -0.122961
     10          6           0       -0.978316   -0.892739   -0.062363
     11          6           0        0.241874   -0.177449   -0.076438
     12          8           0        1.541651   -0.573998   -0.131427
     13          6           0        2.229391    0.620153   -0.112053
     14          6           0        1.455984    1.719559   -0.050091
     15          6           0        0.223146    1.150522   -0.022854
     16          6           0       -0.873604    1.944449    0.042821
     17          7           0       -0.705545    3.255211    0.099308
     18         16           0       -2.262019    3.800706    0.094163
     19          7           0       -3.058309    2.307744    0.035424
     20          6           0       -2.130679    1.353417    0.040102
     21          6           0       -2.141933   -0.163889    0.021009
     22          6           0       -3.220562   -1.082290    0.034160
     23          6           0        3.629305    0.699684   -0.149306
     24          7           0        4.138205    1.964031   -0.289060
     25          6           0        5.468122    2.166792   -0.299335
     26          6           0        6.418416    1.165941   -0.166215
     27          6           0        5.901048   -0.142014    0.000004
     28          7           0        6.607233   -1.270506    0.151862
     29         16           0        5.509551   -2.511688    0.313602
     30          7           0        4.098387   -1.672682    0.204847
     31          6           0        4.447380   -0.390631    0.017178
     32          1           0       -6.273167    1.371479   -0.503787
     33          1           0       -6.641999   -0.243989    0.971559
     34          1           0       -6.042780   -3.513232   -0.178019
     35          1           0       -3.684174   -4.429825   -0.077278
     36          1           0        1.710667    2.756977   -0.023283
     37          1           0        5.753151    3.210197   -0.429467
     38          1           0        7.473244    1.373270   -0.188814
 ---------------------------------------------------------------------
 Rotational constants (GHZ):      0.2680902      0.0712308      0.0568073
 Standard basis: 6-31++G(d,p) (6D, 7F)
 There are   643 symmetry adapted basis functions of A   symmetry.
 Integral buffers will be    131072 words long.
 Raffenetti 2 integral format.
 Two-electron integral symmetry is turned on.
   643 basis functions,  1120 primitive gaussians,   643 cartesian basis functions
   116 alpha electrons      116 beta electrons
       nuclear repulsion energy      3300.6025086516 Hartrees.
 NAtoms=   38 NActive=   38 NUniq=   38 SFac= 1.00D+00 NAtFMM=   60 NAOKFM=F Big=F
 One-electron integrals computed using PRISM.
 NBasis=   643 RedAO= T  NBF=   643
 NBsUse=   632 1.00D-06 NBFU=   632
 Harris functional with IExCor=  402 diagonalized for initial guess.
 ExpMin= 3.60D-02 ExpMax= 2.19D+04 ExpMxC= 3.30D+03 IAcc=3 IRadAn=         5 AccDes= 0.00D+00
 HarFok:  IExCor=  402 AccDes= 0.00D+00 IRadAn=         5 IDoV= 1
 ScaDFX=  1.000000  1.000000  1.000000  1.000000
 FoFCou: FMM=F IPFlag=           0 FMFlag=      100000 FMFlg1=           0
         NFxFlg=           0 DoJE=T BraDBF=F KetDBF=T FulRan=T
         Omega=  0.000000  0.000000  1.000000  0.000000  0.000000 ICntrl=     500 IOpCl=  0
         NMat0=    1 NMatS0=    1 NMatT0=    0 NMatD0=    1 NMtDS0=    0 NMtDT0=    0
         I1Cent=           4 NGrid=           0.
 Petite list used in FoFCou.
 Initial guess orbital symmetries:
       Occupied  (A) (A) (A) (A) (A) (A) (A) (A) (A) (A) (A) (A)
                 (A) (A) (A) (A) (A) (A) (A) (A) (A) (A) (A) (A)
                 (A) (A) (A) (A) (A) (A) (A) (A) (A) (A) (A) (A)
                 (A) (A) (A) (A) (A) (A) (A) (A) (A) (A) (A) (A)
                 (A) (A) (A) (A) (A) (A) (A) (A) (A) (A) (A) (A)
                 (A) (A) (A) (A) (A) (A) (A) (A) (A) (A) (A) (A)
                 (A) (A) (A) (A) (A) (A) (A) (A) (A) (A) (A) (A)
                 (A) (A) (A) (A) (A) (A) (A) (A) (A) (A) (A) (A)
                 (A) (A) (A) (A) (A) (A) (A) (A) (A) (A) (A) (A)
                 (A) (A) (A) (A) (A) (A) (A) (A)
       Virtual   (A) (A) (A) (A) (A) (A) (A) (A) (A) (A) (A) (A)
                 (A) (A) (A) (A) (A) (A) (A) (A) (A) (A) (A) (A)
                 (A) (A) (A) (A) (A) (A) (A) (A) (A) (A) (A) (A)
                 (A) (A) (A) (A) (A) (A) (A) (A) (A) (A) (A) (A)
                 (A) (A) (A) (A) (A) (A) (A) (A) (A) (A) (A) (A)
                 (A) (A) (A) (A) (A) (A) (A) (A) (A) (A) (A) (A)
                 (A) (A) (A) (A) (A) (A) (A) (A) (A) (A) (A) (A)
                 (A) (A) (A) (A) (A) (A) (A) (A) (A) (A) (A) (A)
                 (A) (A) (A) (A) (A) (A) (A) (A) (A) (A) (A) (A)
                 (A) (A) (A) (A) (A) (A) (A) (A) (A) (A) (A) (A)
                 (A) (A) (A) (A) (A) (A) (A) (A) (A) (A) (A) (A)
                 (A) (A) (A) (A) (A) (A) (A) (A) (A) (A) (A) (A)
                 (A) (A) (A) (A) (A) (A) (A) (A) (A) (A) (A) (A)
                 (A) (A) (A) (A) (A) (A) (A) (A) (A) (A) (A) (A)
                 (A) (A) (A) (A) (A) (A) (A) (A) (A) (A) (A) (A)
                 (A) (A) (A) (A) (A) (A) (A) (A) (A) (A) (A) (A)
                 (A) (A) (A) (A) (A) (A) (A) (A) (A) (A) (A) (A)
                 (A) (A) (A) (A) (A) (A) (A) (A) (A) (A) (A) (A)
                 (A) (A) (A) (A) (A) (A) (A) (A) (A) (A) (A) (A)
                 (A) (A) (A) (A) (A) (A) (A) (A) (A) (A) (A) (A)
                 (A) (A) (A) (A) (A) (A) (A) (A) (A) (A) (A) (A)
                 (A) (A) (A) (A) (A) (A) (A) (A) (A) (A) (A) (A)
                 (A) (A) (A) (A) (A) (A) (A) (A) (A) (A) (A) (A)
                 (A) (A) (A) (A) (A) (A) (A) (A) (A) (A) (A) (A)
                 (A) (A) (A) (A) (A) (A) (A) (A) (A) (A) (A) (A)
                 (A) (A) (A) (A) (A) (A) (A) (A) (A) (A) (A) (A)
                 (A) (A) (A) (A) (A) (A) (A) (A) (A) (A) (A) (A)
                 (A) (A) (A) (A) (A) (A) (A) (A) (A) (A) (A) (A)
                 (A) (A) (A) (A) (A) (A) (A) (A) (A) (A) (A) (A)
                 (A) (A) (A) (A) (A) (A) (A) (A) (A) (A) (A) (A)
                 (A) (A) (A) (A) (A) (A) (A) (A) (A) (A) (A) (A)
                 (A) (A) (A) (A) (A) (A) (A) (A) (A) (A) (A) (A)
                 (A) (A) (A) (A) (A) (A) (A) (A) (A) (A) (A) (A)
                 (A) (A) (A) (A) (A) (A) (A) (A) (A) (A) (A) (A)
                 (A) (A) (A) (A) (A) (A) (A) (A) (A) (A) (A) (A)
                 (A) (A) (A) (A) (A) (A) (A) (A) (A) (A) (A) (A)
                 (A) (A) (A) (A) (A) (A) (A) (A) (A) (A) (A) (A)
                 (A) (A) (A) (A) (A) (A) (A) (A) (A) (A) (A) (A)
                 (A) (A) (A) (A) (A) (A) (A) (A) (A) (A) (A) (A)
                 (A) (A) (A) (A) (A) (A) (A) (A) (A) (A) (A) (A)
                 (A) (A) (A) (A) (A) (A) (A) (A) (A) (A) (A) (A)
                 (A) (A) (A) (A) (A) (A) (A) (A) (A) (A) (A) (A)
                 (A) (A) (A) (A) (A) (A) (A) (A) (A) (A) (A) (A)
 The electronic state of the initial guess is 1-A.
 Requested convergence on RMS density matrix=1.00D-08 within 128 cycles.
 Requested convergence on MAX density matrix=1.00D-06.
 Requested convergence on             energy=1.00D-06.
 No special actions if energy rises.
 EnCoef did     4 forward-backward iterations
 Restarting incremental Fock formation.
 SCF Done:  E(RB3LYP) =  -2422.62301237     A.U. after   26 cycles
             Convg  =    0.5326D-08             -V/T =  2.0056

 **********************************************************************

            Population analysis using the SCF density.

 **********************************************************************

 Orbital symmetries:
       Occupied  (A) (A) (A) (A) (A) (A) (A) (A) (A) (A) (A) (A)
                 (A) (A) (A) (A) (A) (A) (A) (A) (A) (A) (A) (A)
                 (A) (A) (A) (A) (A) (A) (A) (A) (A) (A) (A) (A)
                 (A) (A) (A) (A) (A) (A) (A) (A) (A) (A) (A) (A)
                 (A) (A) (A) (A) (A) (A) (A) (A) (A) (A) (A) (A)
                 (A) (A) (A) (A) (A) (A) (A) (A) (A) (A) (A) (A)
                 (A) (A) (A) (A) (A) (A) (A) (A) (A) (A) (A) (A)
                 (A) (A) (A) (A) (A) (A) (A) (A) (A) (A) (A) (A)
                 (A) (A) (A) (A) (A) (A) (A) (A) (A) (A) (A) (A)
                 (A) (A) (A) (A) (A) (A) (A) (A)
       Virtual   (A) (A) (A) (A) (A) (A) (A) (A) (A) (A) (A) (A)
                 (A) (A) (A) (A) (A) (A) (A) (A) (A) (A) (A) (A)
                 (A) (A) (A) (A) (A) (A) (A) (A) (A) (A) (A) (A)
                 (A) (A) (A) (A) (A) (A) (A) (A) (A) (A) (A) (A)
                 (A) (A) (A) (A) (A) (A) (A) (A) (A) (A) (A) (A)
                 (A) (A) (A) (A) (A) (A) (A) (A) (A) (A) (A) (A)
                 (A) (A) (A) (A) (A) (A) (A) (A) (A) (A) (A) (A)
                 (A) (A) (A) (A) (A) (A) (A) (A) (A) (A) (A) (A)
                 (A) (A) (A) (A) (A) (A) (A) (A) (A) (A) (A) (A)
                 (A) (A) (A) (A) (A) (A) (A) (A) (A) (A) (A) (A)
                 (A) (A) (A) (A) (A) (A) (A) (A) (A) (A) (A) (A)
                 (A) (A) (A) (A) (A) (A) (A) (A) (A) (A) (A) (A)
                 (A) (A) (A) (A) (A) (A) (A) (A) (A) (A) (A) (A)
                 (A) (A) (A) (A) (A) (A) (A) (A) (A) (A) (A) (A)
                 (A) (A) (A) (A) (A) (A) (A) (A) (A) (A) (A) (A)
                 (A) (A) (A) (A) (A) (A) (A) (A) (A) (A) (A) (A)
                 (A) (A) (A) (A) (A) (A) (A) (A) (A) (A) (A) (A)
                 (A) (A) (A) (A) (A) (A) (A) (A) (A) (A) (A) (A)
                 (A) (A) (A) (A) (A) (A) (A) (A) (A) (A) (A) (A)
                 (A) (A) (A) (A) (A) (A) (A) (A) (A) (A) (A) (A)
                 (A) (A) (A) (A) (A) (A) (A) (A) (A) (A) (A) (A)
                 (A) (A) (A) (A) (A) (A) (A) (A) (A) (A) (A) (A)
                 (A) (A) (A) (A) (A) (A) (A) (A) (A) (A) (A) (A)
                 (A) (A) (A) (A) (A) (A) (A) (A) (A) (A) (A) (A)
                 (A) (A) (A) (A) (A) (A) (A) (A) (A) (A) (A) (A)
                 (A) (A) (A) (A) (A) (A) (A) (A) (A) (A) (A) (A)
                 (A) (A) (A) (A) (A) (A) (A) (A) (A) (A) (A) (A)
                 (A) (A) (A) (A) (A) (A) (A) (A) (A) (A) (A) (A)
                 (A) (A) (A) (A) (A) (A) (A) (A) (A) (A) (A) (A)
                 (A) (A) (A) (A) (A) (A) (A) (A) (A) (A) (A) (A)
                 (A) (A) (A) (A) (A) (A) (A) (A) (A) (A) (A) (A)
                 (A) (A) (A) (A) (A) (A) (A) (A) (A) (A) (A) (A)
                 (A) (A) (A) (A) (A) (A) (A) (A) (A) (A) (A) (A)
                 (A) (A) (A) (A) (A) (A) (A) (A) (A) (A) (A) (A)
                 (A) (A) (A) (A) (A) (A) (A) (A) (A) (A) (A) (A)
                 (A) (A) (A) (A) (A) (A) (A) (A) (A) (A) (A) (A)
                 (A) (A) (A) (A) (A) (A) (A) (A) (A) (A) (A) (A)
                 (A) (A) (A) (A) (A) (A) (A) (A) (A) (A) (A) (A)
                 (A) (A) (A) (A) (A) (A) (A) (A) (A) (A) (A) (A)
                 (A) (A) (A) (A) (A) (A) (A) (A) (A) (A) (A) (A)
                 (A) (A) (A) (A) (A) (A) (A) (A) (A) (A) (A) (A)
                 (A) (A) (A) (A) (A) (A) (A) (A) (A) (A) (A) (A)
                 (A) (A) (A) (A) (A) (A) (A) (A) (A) (A) (A) (A)
 The electronic state is 1-A.
 Alpha  occ. eigenvalues --  -88.99058 -88.97883 -88.93209 -19.25889 -19.24303
 Alpha  occ. eigenvalues --  -14.39119 -14.38321 -14.38227 -14.38067 -14.34850
 Alpha  occ. eigenvalues --  -10.33199 -10.32155 -10.28160 -10.26978 -10.26911
 Alpha  occ. eigenvalues --  -10.26394 -10.26305 -10.25993 -10.25765 -10.25579
 Alpha  occ. eigenvalues --  -10.25503 -10.25113 -10.24104 -10.24026 -10.23923
 Alpha  occ. eigenvalues --  -10.23443 -10.22182 -10.21301 -10.21294 -10.19391
 Alpha  occ. eigenvalues --  -10.19069  -8.04341  -8.03184  -7.99188  -6.00893
 Alpha  occ. eigenvalues --   -6.00309  -6.00114  -5.99758  -5.99198  -5.98886
 Alpha  occ. eigenvalues --   -5.95641  -5.95270  -5.94826  -1.19563  -1.14378
 Alpha  occ. eigenvalues --   -1.03153  -1.02931  -0.95505  -0.93918  -0.90959
 Alpha  occ. eigenvalues --   -0.90739  -0.90509  -0.87183  -0.83441  -0.80951
 Alpha  occ. eigenvalues --   -0.80494  -0.79538  -0.77372  -0.76136  -0.74692
 Alpha  occ. eigenvalues --   -0.72525  -0.68766  -0.68523  -0.66140  -0.65336
 Alpha  occ. eigenvalues --   -0.64083  -0.63481  -0.61873  -0.60207  -0.59585
 Alpha  occ. eigenvalues --   -0.58451  -0.56704  -0.54274  -0.53648  -0.53237
 Alpha  occ. eigenvalues --   -0.52490  -0.50884  -0.49925  -0.49603  -0.48532
 Alpha  occ. eigenvalues --   -0.47692  -0.47392  -0.47120  -0.46713  -0.45595
 Alpha  occ. eigenvalues --   -0.45356  -0.44300  -0.43718  -0.42762  -0.42358
 Alpha  occ. eigenvalues --   -0.42015  -0.41439  -0.40376  -0.39605  -0.39508
 Alpha  occ. eigenvalues --   -0.38856  -0.38261  -0.37338  -0.35619  -0.35002
 Alpha  occ. eigenvalues --   -0.34238  -0.34079  -0.33540  -0.33198  -0.31820
 Alpha  occ. eigenvalues --   -0.31431  -0.31081  -0.29715  -0.29223  -0.29191
 Alpha  occ. eigenvalues --   -0.27709  -0.27218  -0.26047  -0.24517  -0.21152
 Alpha  occ. eigenvalues --   -0.17872
 Alpha virt. eigenvalues --   -0.12875  -0.11584  -0.09423  -0.07593  -0.05592
 Alpha virt. eigenvalues --   -0.03811  -0.03363  -0.01891  -0.01491  -0.01347
 Alpha virt. eigenvalues --   -0.00750  -0.00333  -0.00087   0.00385   0.00537
 Alpha virt. eigenvalues --    0.00764   0.01422   0.01940   0.02014   0.02360
 Alpha virt. eigenvalues --    0.02497   0.02886   0.03086   0.03309   0.03817
 Alpha virt. eigenvalues --    0.04186   0.04567   0.04763   0.05003   0.05349
 Alpha virt. eigenvalues --    0.05447   0.05788   0.06141   0.06542   0.06970
 Alpha virt. eigenvalues --    0.07163   0.07567   0.08086   0.08223   0.08508
 Alpha virt. eigenvalues --    0.08754   0.08933   0.09162   0.09792   0.10100
 Alpha virt. eigenvalues --    0.10144   0.10285   0.10801   0.10908   0.10967
 Alpha virt. eigenvalues --    0.11209   0.11466   0.11597   0.11824   0.11924
 Alpha virt. eigenvalues --    0.12298   0.12372   0.13024   0.13241   0.13360
 Alpha virt. eigenvalues --    0.13587   0.13877   0.14294   0.14612   0.14680
 Alpha virt. eigenvalues --    0.14836   0.15084   0.15265   0.15746   0.16052
 Alpha virt. eigenvalues --    0.16203   0.16352   0.16606   0.16892   0.16939
 Alpha virt. eigenvalues --    0.17076   0.17616   0.17976   0.18141   0.18297
 Alpha virt. eigenvalues --    0.18790   0.18883   0.19409   0.19762   0.20045
 Alpha virt. eigenvalues --    0.20165   0.20656   0.20731   0.21208   0.21455
 Alpha virt. eigenvalues --    0.21725   0.22085   0.22188   0.22381   0.22710
 Alpha virt. eigenvalues --    0.23031   0.23221   0.23536   0.23612   0.23890
 Alpha virt. eigenvalues --    0.24214   0.24470   0.24554   0.24756   0.25009
 Alpha virt. eigenvalues --    0.25073   0.25486   0.25698   0.25891   0.26223
 Alpha virt. eigenvalues --    0.26338   0.26478   0.26643   0.26929   0.27244
 Alpha virt. eigenvalues --    0.27362   0.27798   0.27890   0.28130   0.28378
 Alpha virt. eigenvalues --    0.28511   0.28646   0.28855   0.29376   0.29547
 Alpha virt. eigenvalues --    0.30031   0.30322   0.30495   0.30714   0.31151
 Alpha virt. eigenvalues --    0.31590   0.31889   0.32337   0.32394   0.32569
 Alpha virt. eigenvalues --    0.33073   0.33202   0.33459   0.33503   0.34085
 Alpha virt. eigenvalues --    0.34658   0.35147   0.35190   0.35368   0.36004
 Alpha virt. eigenvalues --    0.36362   0.36593   0.37251   0.37918   0.38282
 Alpha virt. eigenvalues --    0.38610   0.38718   0.39599   0.39931   0.40015
 Alpha virt. eigenvalues --    0.41061   0.41453   0.42030   0.42390   0.42606
 Alpha virt. eigenvalues --    0.43082   0.43447   0.44560   0.45119   0.45579
 Alpha virt. eigenvalues --    0.46450   0.46712   0.47374   0.47754   0.48655
 Alpha virt. eigenvalues --    0.49581   0.49883   0.51002   0.51479   0.52303
 Alpha virt. eigenvalues --    0.53153   0.53726   0.54871   0.56232   0.57363
 Alpha virt. eigenvalues --    0.58758   0.59653   0.61569   0.62688   0.64868
 Alpha virt. eigenvalues --    0.65483   0.65591   0.66164   0.66336   0.66912
 Alpha virt. eigenvalues --    0.67340   0.67718   0.68006   0.68340   0.68622
 Alpha virt. eigenvalues --    0.69242   0.69526   0.70083   0.70250   0.70811
 Alpha virt. eigenvalues --    0.71269   0.71738   0.72117   0.72309   0.72946
 Alpha virt. eigenvalues --    0.73173   0.74109   0.74438   0.75185   0.75547
 Alpha virt. eigenvalues --    0.76018   0.76451   0.76802   0.77033   0.77616
 Alpha virt. eigenvalues --    0.77937   0.78305   0.78775   0.79578   0.80110
 Alpha virt. eigenvalues --    0.80757   0.81068   0.81963   0.82407   0.82807
 Alpha virt. eigenvalues --    0.84349   0.84598   0.85234   0.85879   0.86522
 Alpha virt. eigenvalues --    0.87010   0.87084   0.87923   0.89081   0.89677
 Alpha virt. eigenvalues --    0.91291   0.92415   0.92908   0.93552   0.93938
 Alpha virt. eigenvalues --    0.94252   0.94512   0.95984   0.96394   0.97761
 Alpha virt. eigenvalues --    0.98788   0.99617   0.99869   0.99942   1.00585
 Alpha virt. eigenvalues --    1.01195   1.01679   1.02434   1.02860   1.03262
 Alpha virt. eigenvalues --    1.04456   1.04866   1.05159   1.05985   1.06552
 Alpha virt. eigenvalues --    1.06801   1.07781   1.08497   1.09011   1.09153
 Alpha virt. eigenvalues --    1.10077   1.10990   1.11705   1.12015   1.12251
 Alpha virt. eigenvalues --    1.13104   1.14061   1.14877   1.15481   1.16008
 Alpha virt. eigenvalues --    1.17298   1.17480   1.18294   1.18496   1.19682
 Alpha virt. eigenvalues --    1.19962   1.20791   1.21198   1.21594   1.21715
 Alpha virt. eigenvalues --    1.22430   1.23367   1.23939   1.24410   1.24758
 Alpha virt. eigenvalues --    1.25013   1.26698   1.27299   1.28230   1.28427
 Alpha virt. eigenvalues --    1.29314   1.29898   1.30048   1.30727   1.31226
 Alpha virt. eigenvalues --    1.31838   1.31905   1.32689   1.33650   1.34012
 Alpha virt. eigenvalues --    1.34523   1.35641   1.35989   1.36229   1.36454
 Alpha virt. eigenvalues --    1.37834   1.38067   1.39169   1.39589   1.42250
 Alpha virt. eigenvalues --    1.43173   1.43996   1.46086   1.46839   1.47267
 Alpha virt. eigenvalues --    1.48316   1.49143   1.50616   1.50977   1.52126
 Alpha virt. eigenvalues --    1.52514   1.52735   1.55847   1.56927   1.59145
 Alpha virt. eigenvalues --    1.60435   1.61493   1.62707   1.64166   1.66277
 Alpha virt. eigenvalues --    1.68170   1.68728   1.69423   1.71308   1.71533
 Alpha virt. eigenvalues --    1.72946   1.74611   1.75134   1.76238   1.76620
 Alpha virt. eigenvalues --    1.77741   1.78799   1.79161   1.79724   1.81561
 Alpha virt. eigenvalues --    1.81944   1.82529   1.83119   1.84468   1.84484
 Alpha virt. eigenvalues --    1.84904   1.86925   1.87389   1.88257   1.89261
 Alpha virt. eigenvalues --    1.90069   1.90400   1.91015   1.91933   1.92678
 Alpha virt. eigenvalues --    1.93982   1.95130   1.96196   1.96948   1.97385
 Alpha virt. eigenvalues --    1.97755   1.98431   2.00046   2.01325   2.02301
 Alpha virt. eigenvalues --    2.02824   2.04834   2.06615   2.07643   2.09266
 Alpha virt. eigenvalues --    2.09449   2.10532   2.11795   2.12910   2.13905
 Alpha virt. eigenvalues --    2.14400   2.15714   2.16715   2.17874   2.18732
 Alpha virt. eigenvalues --    2.20192   2.21126   2.23246   2.24456   2.25225
 Alpha virt. eigenvalues --    2.26117   2.27660   2.28325   2.29782   2.30594
 Alpha virt. eigenvalues --    2.30907   2.31582   2.32055   2.33084   2.34953
 Alpha virt. eigenvalues --    2.35865   2.36007   2.37480   2.38113   2.39043
 Alpha virt. eigenvalues --    2.39710   2.40394   2.41218   2.41506   2.42896
 Alpha virt. eigenvalues --    2.43287   2.44080   2.45021   2.45929   2.46444
 Alpha virt. eigenvalues --    2.47061   2.48464   2.48944   2.49525   2.50179
 Alpha virt. eigenvalues --    2.50737   2.51357   2.52091   2.53345   2.53903
 Alpha virt. eigenvalues --    2.54875   2.57077   2.58084   2.59334   2.60556
 Alpha virt. eigenvalues --    2.61755   2.62652   2.64309   2.64592   2.64877
 Alpha virt. eigenvalues --    2.67139   2.68072   2.69218   2.71361   2.71972
 Alpha virt. eigenvalues --    2.72695   2.73522   2.74749   2.76586   2.77631
 Alpha virt. eigenvalues --    2.78270   2.80596   2.81100   2.82789   2.83989
 Alpha virt. eigenvalues --    2.88504   2.89534   2.91144   2.92735   2.93638
 Alpha virt. eigenvalues --    2.94415   2.96264   2.99363   3.00420   3.01363
 Alpha virt. eigenvalues --    3.01985   3.03459   3.05078   3.07730   3.11398
 Alpha virt. eigenvalues --    3.12977   3.18577   3.21579   3.25162   3.28796
 Alpha virt. eigenvalues --    3.30803   3.31998   3.32900   3.33837   3.38206
 Alpha virt. eigenvalues --    3.41989   3.51075   3.58421   3.71240   3.78221
 Alpha virt. eigenvalues --    3.95667   3.97437   4.00950   4.11366   4.17700
 Alpha virt. eigenvalues --    4.19528   4.25151   4.30299   4.32234   4.33569
 Alpha virt. eigenvalues --    4.36201   4.36768   4.37465   4.42603   4.45047
 Alpha virt. eigenvalues --    4.46375   4.48604   4.49242   4.51091   4.52248
 Alpha virt. eigenvalues --    4.56145   4.58374   4.59505   4.63495   4.65776
 Alpha virt. eigenvalues --    4.66982   4.69714   4.80372   4.85262   4.97881
 Alpha virt. eigenvalues --    5.22204
          Condensed to atoms (all electrons):
              1          2          3          4          5          6
     1  C    9.922103  -0.094700  -0.275474  -0.304448  -2.012474  -1.199440
     2  O   -0.094700   8.910697  -0.450863  -0.664288   0.312543  -0.168802
     3  C   -0.275474  -0.450863  12.716500  -4.119754  -0.813801  -0.031050
     4  C   -0.304448  -0.664288  -4.119754  14.324506  -0.334033   0.106860
     5  C   -2.012474   0.312543  -0.813801  -0.334033  11.144361  -0.842310
     6  C   -1.199440  -0.168802  -0.031050   0.106860  -0.842310   7.375198
     7  C   -0.382613   0.018053   0.643387   0.046225   0.921087   0.305892
     8  C    0.354997   0.102985  -0.786505  -1.618533  -0.745910  -0.139415
     9  S    0.030295  -0.010187  -0.017381   0.062670  -0.163512   0.137359
    10  C   -0.247670  -0.105290  -0.552813   1.291988   0.232671   0.005207
    11  C    0.045476   0.003888   0.015148  -0.304775  -0.004409  -0.005252
    12  O    0.000497  -0.000003  -0.000096   0.006972  -0.000731   0.000573
    13  C    0.005549   0.002260  -0.046754  -0.594080  -0.000142  -0.000005
    14  C    0.008230  -0.020171   0.049516  -0.067343  -0.006918  -0.009408
    15  C   -0.022923   0.095812  -0.121334   0.266038   0.037060  -0.019659
    16  C    0.016283  -0.134676  -0.034402   0.454781  -0.042022   0.037089
    17  N   -0.013015  -0.021782  -0.014692   0.011104   0.007099   0.000629
    18  S   -0.005944  -0.020722   0.011314   0.028903   0.006538   0.002293
    19  N    0.019884  -0.164015   0.144020  -0.181596   0.000074  -0.022080
    20  C   -0.394799   0.070522  -0.768394   1.026567   0.207993   0.158167
    21  C    0.235319   0.152675   0.023691  -0.414851  -0.524301   0.215703
    22  C    0.446984   0.327920  -0.230929  -3.050304  -1.103528  -0.170156
    23  C   -0.001871  -0.000468  -0.001540   0.030445   0.001671  -0.000337
    24  N    0.000026  -0.000002   0.000024  -0.000302  -0.000019   0.000004
    25  C   -0.000013   0.000001  -0.000007   0.000642   0.000023  -0.000011
    26  C    0.000001  -0.000000  -0.000012  -0.000518  -0.000010   0.000009
    27  C    0.000050  -0.000000   0.000030  -0.002705  -0.000005   0.000005
    28  N   -0.000000   0.000000  -0.000000   0.000010   0.000000  -0.000000
    29  S   -0.000000   0.000000  -0.000010   0.000279   0.000006   0.000000
    30  N   -0.000002  -0.000000  -0.000003   0.001316  -0.000026   0.000022
    31  C    0.000154   0.000011  -0.001437  -0.018745   0.000521  -0.000317
    32  H    0.135700  -0.144913   0.250409  -0.161078   0.066923   0.070906
    33  H    0.175491  -0.034858   0.334889  -0.054469  -0.175396  -0.033362
    34  H    0.019397  -0.002646  -0.034456   0.054313  -0.040345   0.269918
    35  H   -0.002668   0.000549   0.001293   0.005446   0.060650  -0.088258
    36  H    0.001152  -0.000397   0.001173   0.004501  -0.000979   0.000033
    37  H   -0.000001   0.000000  -0.000002   0.000026   0.000001  -0.000000
    38  H   -0.000000  -0.000000  -0.000000  -0.000002  -0.000000   0.000000
              7          8          9         10         11         12
     1  C   -0.382613   0.354997   0.030295  -0.247670   0.045476   0.000497
     2  O    0.018053   0.102985  -0.010187  -0.105290   0.003888  -0.000003
     3  C    0.643387  -0.786505  -0.017381  -0.552813   0.015148  -0.000096
     4  C    0.046225  -1.618533   0.062670   1.291988  -0.304775   0.006972
     5  C    0.921087  -0.745910  -0.163512   0.232671  -0.004409  -0.000731
     6  C    0.305892  -0.139415   0.137359   0.005207  -0.005252   0.000573
     7  C   12.603483  -1.363764   0.035704  -0.782557   0.125867  -0.004814
     8  C   -1.363764  12.303502  -0.460904  -2.334691   0.300481  -0.025007
     9  S    0.035704  -0.460904  16.850406   0.529710   0.078314   0.000723
    10  C   -0.782557  -2.334691   0.529710  14.967517   1.799499  -0.243481
    11  C    0.125867   0.300481   0.078314   1.799499  14.338885   0.197213
    12  O   -0.004814  -0.025007   0.000723  -0.243481   0.197213   8.811852
    13  C   -0.092082   0.193029   0.198158   2.578145  -5.436833  -0.359410
    14  C    0.104093   0.422357  -0.236986  -1.141497  -3.164936  -0.142172
    15  C   -0.035370  -0.433561  -0.469244  -3.624178   0.364120   0.193453
    16  C   -0.182787  -0.871448   0.264695   3.128555   1.842926   0.131888
    17  N    0.001717  -0.007573   0.004985   0.045673  -0.136303  -0.006033
    18  S   -0.002290  -0.037710   0.009883   0.300793   0.166493   0.000642
    19  N    0.034751   0.042322   0.005871  -0.094463   0.011837   0.000031
    20  C   -0.603137  -1.592385   0.118132   4.106436   1.161177  -0.034998
    21  C   -2.245945  -0.239007  -0.787227  -6.270083  -4.262858   0.175670
    22  C   -2.608803   3.134130  -0.576692  -6.093184  -2.217771   0.004455
    23  C   -0.001002  -0.087642   0.084310   0.163337   1.239872  -0.052630
    24  N   -0.000004   0.000537  -0.000053   0.011913  -0.035377   0.015311
    25  C    0.000273   0.000227  -0.000376  -0.042026   0.061333  -0.012331
    26  C   -0.000350  -0.001285   0.000296   0.044022  -0.168690   0.048396
    27  C   -0.000987  -0.007615  -0.010593  -0.046058  -0.651057   0.020727
    28  N    0.000020   0.000115   0.000393  -0.004565   0.028027  -0.003852
    29  S    0.000014  -0.001444   0.001131  -0.014065   0.054401  -0.013761
    30  N    0.000192   0.001701   0.003821  -0.035177   0.137814   0.065136
    31  C   -0.004682  -0.050754   0.047279  -0.334595   0.618917  -0.432479
    32  H    0.014980  -0.039984   0.000230   0.011585  -0.003791   0.000018
    33  H   -0.047223   0.034435   0.003355  -0.024230   0.000847  -0.000014
    34  H   -0.018249   0.023448  -0.004344  -0.000506   0.000574   0.000003
    35  H    0.457249  -0.079781  -0.025941   0.008349   0.005283  -0.000001
    36  H    0.002102   0.014800  -0.001234  -0.007773   0.027818   0.017322
    37  H    0.000007  -0.000021  -0.000012  -0.001939   0.003423  -0.000146
    38  H   -0.000003  -0.000015  -0.000001   0.000387   0.001168   0.000614
             13         14         15         16         17         18
     1  C    0.005549   0.008230  -0.022923   0.016283  -0.013015  -0.005944
     2  O    0.002260  -0.020171   0.095812  -0.134676  -0.021782  -0.020722
     3  C   -0.046754   0.049516  -0.121334  -0.034402  -0.014692   0.011314
     4  C   -0.594080  -0.067343   0.266038   0.454781   0.011104   0.028903
     5  C   -0.000142  -0.006918   0.037060  -0.042022   0.007099   0.006538
     6  C   -0.000005  -0.009408  -0.019659   0.037089   0.000629   0.002293
     7  C   -0.092082   0.104093  -0.035370  -0.182787   0.001717  -0.002290
     8  C    0.193029   0.422357  -0.433561  -0.871448  -0.007573  -0.037710
     9  S    0.198158  -0.236986  -0.469244   0.264695   0.004985   0.009883
    10  C    2.578145  -1.141497  -3.624178   3.128555   0.045673   0.300793
    11  C   -5.436833  -3.164936   0.364120   1.842926  -0.136303   0.166493
    12  O   -0.359410  -0.142172   0.193453   0.131888  -0.006033   0.000642
    13  C   34.574388  -7.334446 -17.672462   4.889082   0.318769   0.168826
    14  C   -7.334446  18.830436   5.426294  -3.848030   0.451477  -0.119270
    15  C  -17.672462   5.426294  25.716505  -5.709149  -0.833223  -0.269852
    16  C    4.889082  -3.848030  -5.709149  12.528791   0.205612   0.065498
    17  N    0.318769   0.451477  -0.833223   0.205612   7.944905  -0.028378
    18  S    0.168826  -0.119270  -0.269852   0.065498  -0.028378  15.775118
    19  N    0.079480  -0.229273   0.073098   0.124334  -0.252861   0.004462
    20  C    0.920480  -0.154289  -1.737457   1.294881   0.047028  -0.199709
    21  C   -5.287850   3.031746   7.485158  -5.029725  -0.314694  -0.540133
    22  C   -0.563408   1.096727   2.237761  -3.308128   0.011133  -0.276322
    23  C    4.265469  -3.449833  -1.367554   0.224201  -0.004254   0.053550
    24  N   -0.314462   0.456932   0.046891   0.014971  -0.002545  -0.000442
    25  C   -0.223869  -0.307810  -0.004831  -0.053646   0.001569  -0.000228
    26  C   -0.731219   0.300313  -0.173077   0.065352  -0.000354   0.000017
    27  C   -2.865489  -1.340518  -0.967385  -0.018451   0.000605  -0.000693
    28  N   -0.002873   0.002811  -0.010057   0.002267   0.000018   0.000007
    29  S    0.034288   0.003565   0.007024   0.001443   0.000064   0.000028
    30  N   -0.354470   0.035864   0.088407  -0.000627  -0.000368   0.000159
    31  C    0.549813  -3.341330  -3.532689   0.582993   0.011719   0.007626
    32  H   -0.002277   0.001134  -0.005106   0.018119   0.001006   0.002075
    33  H    0.000552   0.000417   0.002609  -0.003458  -0.000184  -0.000934
    34  H   -0.000361   0.000045  -0.000116  -0.000231  -0.000019  -0.000073
    35  H    0.000267  -0.000245  -0.004002   0.003694   0.000039   0.000171
    36  H   -0.664995   0.677512   0.481047  -0.236786  -0.034806  -0.005183
    37  H   -0.016132  -0.034256  -0.012959  -0.000070   0.000178   0.000007
    38  H    0.005000  -0.002371   0.002078   0.000192  -0.000003   0.000004
             19         20         21         22         23         24
     1  C    0.019884  -0.394799   0.235319   0.446984  -0.001871   0.000026
     2  O   -0.164015   0.070522   0.152675   0.327920  -0.000468  -0.000002
     3  C    0.144020  -0.768394   0.023691  -0.230929  -0.001540   0.000024
     4  C   -0.181596   1.026567  -0.414851  -3.050304   0.030445  -0.000302
     5  C    0.000074   0.207993  -0.524301  -1.103528   0.001671  -0.000019
     6  C   -0.022080   0.158167   0.215703  -0.170156  -0.000337   0.000004
     7  C    0.034751  -0.603137  -2.245945  -2.608803  -0.001002  -0.000004
     8  C    0.042322  -1.592385  -0.239007   3.134130  -0.087642   0.000537
     9  S    0.005871   0.118132  -0.787227  -0.576692   0.084310  -0.000053
    10  C   -0.094463   4.106436  -6.270083  -6.093184   0.163337   0.011913
    11  C    0.011837   1.161177  -4.262858  -2.217771   1.239872  -0.035377
    12  O    0.000031  -0.034998   0.175670   0.004455  -0.052630   0.015311
    13  C    0.079480   0.920480  -5.287850  -0.563408   4.265469  -0.314462
    14  C   -0.229273  -0.154289   3.031746   1.096727  -3.449833   0.456932
    15  C    0.073098  -1.737457   7.485158   2.237761  -1.367554   0.046891
    16  C    0.124334   1.294881  -5.029725  -3.308128   0.224201   0.014971
    17  N   -0.252861   0.047028  -0.314694   0.011133  -0.004254  -0.002545
    18  S    0.004462  -0.199709  -0.540133  -0.276322   0.053550  -0.000442
    19  N    7.868487   0.055909  -0.143054   0.177194  -0.014565  -0.000523
    20  C    0.055909   9.614590  -3.248162  -4.043486   0.269555  -0.000502
    21  C   -0.143054  -3.248162  18.765761   5.736427  -0.981875   0.012707
    22  C    0.177194  -4.043486   5.736427  16.398404  -0.245106   0.002210
    23  C   -0.014565   0.269555  -0.981875  -0.245106  12.583323   0.316497
    24  N   -0.000523  -0.000502   0.012707   0.002210   0.316497   7.132048
    25  C   -0.000109  -0.001227   0.004317   0.000352  -1.784962  -0.398836
    26  C    0.000167  -0.000011  -0.012270  -0.001545   2.156711   0.441057
    27  C   -0.000190   0.006635  -0.051331   0.004561  -6.528547  -0.269053
    28  N    0.000001  -0.000091  -0.000173  -0.000148   0.170417   0.001075
    29  S    0.000007  -0.000127   0.000859  -0.000324   0.076558  -0.000760
    30  N   -0.000051  -0.002828   0.028482  -0.000692  -0.274949   0.011340
    31  C    0.003760   0.092625  -0.763626  -0.111129  -0.152530  -0.156311
    32  H    0.029823  -0.010509  -0.015083  -0.079841   0.000123  -0.000001
    33  H    0.000005  -0.011766   0.021180   0.034647  -0.000060   0.000001
    34  H   -0.000580  -0.000324  -0.000875   0.022383   0.000007  -0.000000
    35  H    0.000730   0.001382  -0.010860  -0.041495   0.000353  -0.000001
    36  H   -0.006219  -0.027399   0.126650   0.018373  -0.140061  -0.028561
    37  H    0.000016  -0.000317  -0.000415  -0.000068  -0.099292  -0.134977
    38  H    0.000000   0.000028  -0.000116  -0.000017   0.071789   0.019407
             25         26         27         28         29         30
     1  C   -0.000013   0.000001   0.000050  -0.000000  -0.000000  -0.000002
     2  O    0.000001  -0.000000  -0.000000   0.000000   0.000000  -0.000000
     3  C   -0.000007  -0.000012   0.000030  -0.000000  -0.000010  -0.000003
     4  C    0.000642  -0.000518  -0.002705   0.000010   0.000279   0.001316
     5  C    0.000023  -0.000010  -0.000005   0.000000   0.000006  -0.000026
     6  C   -0.000011   0.000009   0.000005  -0.000000   0.000000   0.000022
     7  C    0.000273  -0.000350  -0.000987   0.000020   0.000014   0.000192
     8  C    0.000227  -0.001285  -0.007615   0.000115  -0.001444   0.001701
     9  S   -0.000376   0.000296  -0.010593   0.000393   0.001131   0.003821
    10  C   -0.042026   0.044022  -0.046058  -0.004565  -0.014065  -0.035177
    11  C    0.061333  -0.168690  -0.651057   0.028027   0.054401   0.137814
    12  O   -0.012331   0.048396   0.020727  -0.003852  -0.013761   0.065136
    13  C   -0.223869  -0.731219  -2.865489  -0.002873   0.034288  -0.354470
    14  C   -0.307810   0.300313  -1.340518   0.002811   0.003565   0.035864
    15  C   -0.004831  -0.173077  -0.967385  -0.010057   0.007024   0.088407
    16  C   -0.053646   0.065352  -0.018451   0.002267   0.001443  -0.000627
    17  N    0.001569  -0.000354   0.000605   0.000018   0.000064  -0.000368
    18  S   -0.000228   0.000017  -0.000693   0.000007   0.000028   0.000159
    19  N   -0.000109   0.000167  -0.000190   0.000001   0.000007  -0.000051
    20  C   -0.001227  -0.000011   0.006635  -0.000091  -0.000127  -0.002828
    21  C    0.004317  -0.012270  -0.051331  -0.000173   0.000859   0.028482
    22  C    0.000352  -0.001545   0.004561  -0.000148  -0.000324  -0.000692
    23  C   -1.784962   2.156711  -6.528547   0.170417   0.076558  -0.274949
    24  N   -0.398836   0.441057  -0.269053   0.001075  -0.000760   0.011340
    25  C    8.039662  -4.194547   3.492824   0.052379   0.004077   0.095046
    26  C   -4.194547  19.270124  -5.622490  -0.655507  -0.281185  -0.018071
    27  C    3.492824  -5.622490  23.594672  -0.039900  -0.739380   1.138667
    28  N    0.052379  -0.655507  -0.039900   7.431261   0.137048  -0.161237
    29  S    0.004077  -0.281185  -0.739380   0.137048  15.646047  -0.205103
    30  N    0.095046  -0.018071   1.138667  -0.161237  -0.205103   7.865330
    31  C    0.680686  -4.355649  -3.293762   0.498353   0.424575  -0.906549
    32  H    0.000002  -0.000001  -0.000004   0.000000   0.000000   0.000002
    33  H   -0.000000   0.000000   0.000004  -0.000000  -0.000000  -0.000002
    34  H    0.000000  -0.000000  -0.000002   0.000000   0.000000   0.000001
    35  H    0.000003  -0.000006  -0.000029   0.000001   0.000002   0.000018
    36  H    0.019290  -0.015736  -0.020917   0.000100  -0.000855  -0.001275
    37  H    0.623805  -0.424196   0.230929  -0.000526   0.001960   0.003471
    38  H   -0.233156   0.671951  -0.213498  -0.024767  -0.004768  -0.006916
             31         32         33         34         35         36
     1  C    0.000154   0.135700   0.175491   0.019397  -0.002668   0.001152
     2  O    0.000011  -0.144913  -0.034858  -0.002646   0.000549  -0.000397
     3  C   -0.001437   0.250409   0.334889  -0.034456   0.001293   0.001173
     4  C   -0.018745  -0.161078  -0.054469   0.054313   0.005446   0.004501
     5  C    0.000521   0.066923  -0.175396  -0.040345   0.060650  -0.000979
     6  C   -0.000317   0.070906  -0.033362   0.269918  -0.088258   0.000033
     7  C   -0.004682   0.014980  -0.047223  -0.018249   0.457249   0.002102
     8  C   -0.050754  -0.039984   0.034435   0.023448  -0.079781   0.014800
     9  S    0.047279   0.000230   0.003355  -0.004344  -0.025941  -0.001234
    10  C   -0.334595   0.011585  -0.024230  -0.000506   0.008349  -0.007773
    11  C    0.618917  -0.003791   0.000847   0.000574   0.005283   0.027818
    12  O   -0.432479   0.000018  -0.000014   0.000003  -0.000001   0.017322
    13  C    0.549813  -0.002277   0.000552  -0.000361   0.000267  -0.664995
    14  C   -3.341330   0.001134   0.000417   0.000045  -0.000245   0.677512
    15  C   -3.532689  -0.005106   0.002609  -0.000116  -0.004002   0.481047
    16  C    0.582993   0.018119  -0.003458  -0.000231   0.003694  -0.236786
[...]
 ,0.00002398,-0.00002587,-0.00000335,0.00019837,0.00020289,0.00000186,-
 0.00100815,-0.00076439,0.00003072,-0.00000447,-0.00001154,-0.00000113,
 -0.00000282,0.00000991,0.00000075,-0.00000196,-0.00000447,-0.00000044,
 0.00000104,0.00000070,-0.00000021,-0.00000027,0.00000024,0.00000041,-0
 .00000133,-0.00000006,-0.00000046,0.00000465,-0.00000410,-0.00000014,-
 0.00000120,0.00000219,0.00000011,0.00000168,0.00000109,0.00000027,-0.0
 0040174,-0.00017516,-0.00004437,-0.00039312,-0.00028338,-0.00009576,0.
 11496872,0.00030112,0.00016921,-0.00010883,0.00027074,-0.00001891,0.00
 034625,0.00016174,0.00008563,-0.00012168,-0.00080118,0.00193204,-0.000
 47253,0.00045598,0.00171354,-0.00014343,0.11026485,-0.28480646,-0.0210
 6096,0.01294583,-0.01759696,-0.00177859,-0.00356936,-0.00184695,-0.000
 39389,0.00080521,-0.00045006,-0.00012204,-0.00047607,-0.00023927,-0.00
 000830,0.00014191,0.00001538,0.00002069,0.00001442,-0.00001442,-0.0000
 0298,-0.00005246,-0.00001160,-0.00000028,0.00004030,0.00000590,-0.0000
 0346,-0.00004782,-0.00006160,-0.00000287,0.00005711,0.00000394,-0.0000
 0338,-0.00003227,-0.00004417,-0.00000255,0.00005346,0.00000904,-0.0000
 0320,-0.00002277,-0.00000985,0.00000621,0.00001914,0.00002566,-0.00000
 032,0.00007381,0.00011747,0.00006812,-0.00026686,0.00004493,0.00001403
 ,0.00006269,0.00006661,0.00000353,0.00000275,-0.00004582,-0.00000356,-
 0.00000630,0.00002216,0.00000166,0.00000012,-0.00001459,-0.00000040,-0
 .00000952,-0.00000385,-0.00000096,-0.00000091,-0.00002664,-0.00000118,
 -0.00000208,0.00001954,0.00000113,0.00001103,-0.00000829,-0.00000113,-
 0.00002826,0.00000676,0.00000181,0.00019179,-0.00009568,0.00009157,0.0
 0003134,-0.00000916,0.00007557,-0.12052585,0.30007031,-0.00022228,0.00
 052673,-0.00307583,-0.00132580,-0.00010256,-0.00056842,0.00000278,-0.0
 0061059,-0.00023363,0.00095372,-0.00079880,0.00773244,0.00194521,-0.00
 026393,0.00297883,0.00966414,-0.02085652,-0.03718666,0.00060611,-0.001
 40178,0.00250283,-0.00013448,-0.00038801,0.00644568,0.00004209,-0.0000
 7816,0.00069371,0.00001134,-0.00001919,0.00003193,-0.00000324,0.000039
 08,-0.00036665,-0.00000005,0.00000012,0.00002845,-0.00000762,-0.000007
 53,-0.00000618,0.00000529,-0.00000067,0.00004308,0.00000555,-0.0000072
 2,-0.00000816,0.00000023,-0.00000877,0.00001858,-0.00000112,-0.0000095
 0,-0.00000077,-0.00000107,-0.00000404,0.00001384,0.00001913,0.00000449
 ,-0.00004403,-0.00001128,0.00000517,0.00000092,-0.00001424,0.00006578,
 -0.00087717,-0.00005186,0.00008771,-0.00046491,0.00000875,0.00001119,-
 0.00000733,0.00000103,-0.00000761,-0.00000007,-0.00000051,0.00000342,0
 .00000073,-0.00000012,-0.00000218,-0.00000116,-0.00000109,-0.00000064,
 0.00000294,0.00000007,-0.00000297,-0.00000354,-0.00000120,0.00000258,0
 .00000469,0.00000147,-0.00000070,-0.00000458,-0.00000383,0.00000075,-0
 .00000041,0.00036176,0.00002788,0.00011797,-0.00009168,0.00012352,-0.0
 0009646,-0.01164550,0.02329853,0.02613820,0.00047361,0.00025912,0.0003
 6980,-0.00010459,0.00017226,-0.00016953,-0.00025048,-0.00001222,0.0000
 5216,0.00052218,0.00019318,-0.00015671,-0.00036090,-0.00356133,-0.0003
 2217,-0.01246592,0.00331949,0.00074028,-0.33906113,0.01754106,0.009791
 45,-0.00927102,-0.00078828,0.00021150,0.00052672,0.00024453,-0.0000735
 9,-0.00053318,0.00014458,0.00002304,0.00016951,-0.00004841,-0.00000688
 ,0.00000437,-0.00002771,-0.00000297,0.00003250,0.00010913,0.00000709,0
 .00001372,-0.00001786,-0.00000196,-0.00007719,-0.00000487,0.00000143,-
 0.00002707,0.00000658,0.00000298,-0.00002362,0.00006393,0.00000568,0.0
 0003001,-0.00003243,-0.00000399,-0.00000939,0.00001024,0.00000186,0.00
 010044,0.00019061,0.00001569,-0.00018394,-0.00025302,-0.00001750,0.001
 11768,0.00152091,0.00034376,-0.00007777,-0.00008807,-0.00000215,-0.000
 00368,0.00005858,0.00000420,0.00000421,-0.00002812,-0.00000232,0.00000
 189,0.00001879,0.00000157,0.00000759,0.00000731,-0.00000003,-0.0000006
 1,0.00002055,0.00000174,0.00001663,-0.00001282,-0.00000166,-0.00001720
 ,0.00000341,0.00000062,0.00002839,-0.00000650,-0.00000175,-0.00016069,
 0.00000333,0.00001020,-0.00001816,0.00004180,-0.00003551,0.00085422,-0
 .00006242,-0.00011177,0.35874445,-0.00011065,0.00049783,0.00038804,-0.
 00022846,0.00021272,-0.00023361,-0.00027709,-0.00009107,0.00005699,-0.
 00018709,-0.00117804,0.00008070,-0.00336110,-0.00445151,-0.00108181,-0
 .02659538,0.00600896,0.00110226,0.01749024,-0.05931175,-0.00223898,0.0
 2936232,0.00200453,-0.00072795,0.00028733,0.00037510,0.00013079,0.0004
 1773,-0.00008754,0.00003092,-0.00020889,0.00005426,0.00000926,-0.00002
 917,0.00002368,0.00000613,0.00000101,-0.00007469,-0.00000488,-0.000027
 26,0.00002264,0.00000359,0.00007785,0.00002792,-0.00000423,0.00010885,
 0.00004959,-0.00000108,0.00006191,-0.00006594,-0.00000713,-0.00003927,
 -0.00001537,0.00000012,-0.00001462,0.00003138,0.00000437,-0.00016319,-
 0.00052227,-0.00003890,0.00140964,0.00030971,-0.00003550,0.00066351,-0
 .00433108,-0.00088861,0.00001843,0.00002177,-0.00000028,-0.00000234,-0
 .00000898,-0.00000032,0.00000397,0.00000355,0.,-0.00000398,-0.00000350
 ,0.00000016,-0.00000030,0.00000012,-0.00000038,-0.00000207,0.00000595,
 0.00000093,-0.00001918,-0.00001847,-0.00000127,0.00000700,0.00001122,0
 .00000117,0.00000498,0.00000246,-0.00000002,-0.00018218,0.00000297,0.0
 0002609,-0.00001045,0.00005914,-0.00004436,0.00053221,0.00100393,0.000
 37605,-0.01898576,0.05942549,-0.00061465,-0.00005856,0.00078465,0.0003
 5472,0.00018334,0.00005148,-0.00045611,-0.00037004,-0.00081162,0.00026
 426,0.00005190,-0.00136428,0.00065801,-0.00043093,0.00615435,-0.001844
 24,0.00011018,0.00322223,0.00965133,-0.00217348,-0.03374437,0.00268553
 ,-0.00008921,0.00136943,-0.00009149,0.00015102,-0.00178074,0.00004847,
 0.00005480,-0.00077989,-0.00002065,0.00000919,0.00005682,-0.00000413,0
 .00000401,-0.00003856,0.00000138,-0.00000688,0.00000853,-0.00000313,0.
 00000210,-0.00002004,0.00001352,-0.00000223,0.00005930,0.00000064,0.00
 000037,-0.00000150,0.00000924,-0.00000224,0.00000101,-0.00000813,0.000
 00119,-0.00000868,0.00000035,0.00000251,0.00000078,-0.00000654,-0.0000
 4499,0.00003431,0.00012296,0.00004046,0.00028827,-0.00010344,-0.000882
 10,0.00646625,0.00000038,0.00000003,0.00000786,-0.00000007,-0.00000009
 ,-0.00000380,0.00000057,0.00000005,0.00000124,-0.00000030,0.00000028,-
 0.00000113,0.00000006,-0.00000046,0.00000187,-0.00000015,0.00000117,-0
 .00000540,-0.00000081,-0.00000227,0.00001110,0.00000004,0.00000173,-0.
 00000935,0.00000027,0.00000044,0.00000031,0.00001490,0.00004326,0.0000
 1334,0.00006983,0.00000467,0.00008725,-0.00006832,0.00030863,-0.003818
 34,-0.01067441,0.00309150,0.02376852,0.00000690,0.00000489,0.00000463,
 -0.00001879,-0.00000374,-0.00001272,0.00001949,0.00000211,-0.00000142,
 0.00001721,0.00000629,0.00000734,0.00001132,-0.00000352,0.00000328,-0.
 00000478,-0.00002106,-0.00000181,-0.00002512,0.00000207,0.00000098,0.0
 0005801,-0.00007162,-0.00001422,-0.00000308,-0.00021583,-0.00001575,0.
 00082416,0.00021293,0.00001177,-0.00222021,-0.00409439,-0.00007617,-0.
 00456807,0.00202152,0.00060651,-0.00720655,0.02170407,0.00188621,-0.18
 869588,0.15128117,0.01705005,0.01184323,-0.00775333,-0.00098170,0.0000
 9481,0.00079630,-0.00000487,0.00003960,0.00004846,-0.00000567,-0.00022
 099,-0.00007234,0.00000774,-0.00001701,0.00021252,0.00001636,0.0001451
 3,-0.00013134,-0.00002178,-0.00007779,0.00003928,-0.00000020,-0.000026
 71,0.00002087,0.00000861,0.00011084,0.00085153,-0.00003057,0.00052564,
 0.00012652,0.00001200,0.00032387,-0.00057310,-0.00007720,0.00013358,0.
 00016825,0.00000758,-0.00003418,0.00007181,0.00000732,0.00003514,-0.00
 004020,-0.00000236,0.00017823,-0.00001241,-0.00000754,-0.00004225,-0.0
 0003806,-0.00000542,-0.00014084,0.00000883,0.00000468,-0.00000211,-0.0
 0000133,-0.00000112,-0.00000629,-0.00000849,0.00000142,-0.00000133,-0.
 00000146,0.00000002,-0.00000174,0.00000207,0.00000012,0.18889571,0.000
 00606,0.00000534,0.00000584,-0.00002076,-0.00000371,-0.00001387,0.0000
 2003,0.00000010,-0.00000385,0.00002211,0.00000322,0.00001197,0.0000056
 3,-0.00000425,0.00000477,0.00000808,-0.00002029,-0.00000331,-0.0000476
 1,-0.00002331,0.00000139,0.00011998,-0.00005020,0.00000079,-0.00014479
 ,-0.00022395,-0.00001390,0.00112135,0.00004619,-0.00008080,-0.00188138
 ,-0.00448313,-0.00056262,-0.00381374,0.00248057,-0.00023846,-0.0030091
 6,0.00768437,0.00066895,0.15411785,-0.23164533,-0.02053537,0.01774754,
 -0.00999381,-0.00146488,0.00078300,0.00081963,0.00015357,-0.00023204,0
 .00018251,0.00003383,-0.00043513,-0.00012642,0.00000141,-0.00004587,0.
 00034923,0.00002571,0.00025189,-0.00024342,-0.00002324,-0.00005078,0.0
 0006562,0.00001279,-0.00003383,-0.00000719,-0.00000816,0.00095549,0.00
 001309,0.00014038,-0.00074680,-0.00109764,-0.00008534,-0.00022993,-0.0
 0003480,0.00005240,0.00005931,-0.00011162,-0.00001112,0.00002134,-0.00
 001757,-0.00000437,0.00004442,-0.00004709,-0.00000812,0.00005445,0.000
 05162,0.00000184,0.00000659,0.00001112,0.00000884,-0.00001313,-0.00002
 556,0.00000153,-0.00000292,-0.00000062,-0.00000173,-0.00000914,-0.0000
 1236,0.00000176,-0.00000332,-0.00000367,-0.00000099,-0.00000135,0.0000
 0330,0.00000050,-0.16459977,0.23649018,0.00000232,-0.00000033,0.000006
 47,-0.00000279,0.00000089,-0.00001624,0.00000159,0.00000147,0.00001023
 ,0.00000128,-0.00000284,0.00000314,-0.00000105,0.00000240,-0.00001031,
 0.00000053,-0.00000123,0.00000698,-0.00000331,-0.00000059,-0.00002069,
 0.00000256,0.00000619,-0.00010803,-0.00001223,-0.00000799,0.00001718,0
 .00007599,-0.00005151,0.00057621,0.00008997,-0.00047853,0.00397127,0.0
 0017427,-0.00045560,0.00760086,0.00004276,-0.00026112,0.00021196,0.017
 26448,-0.02038543,-0.03454117,0.00091994,-0.00055528,0.00088595,-0.000
 00779,0.00015177,-0.00165809,-0.00002802,0.00002824,-0.00016208,-0.000
 01656,-0.00001424,0.00010845,-0.00000263,0.00001538,0.00001341,0.00000
 709,-0.00000477,-0.00014657,-0.00000170,0.00000611,-0.00001287,0.00000
 089,-0.00000684,0.00006344,-0.00001818,0.00015007,-0.00234720,-0.00005
 818,-0.00011840,0.00042690,-0.00005249,0.00006545,-0.00063486,-0.00000
 026,-0.00001579,0.00001453,0.00000354,-0.00000518,0.00002306,0.0000036
 9,-0.00000555,0.00004291,-0.00000363,0.00000469,0.00000062,-0.00000135
 ,0.00000972,-0.00011456,0.00000189,0.00000088,-0.00002789,-0.00000053,
 0.00000159,0.00000045,0.00000028,-0.00000142,0.00000265,0.00000028,-0.
 00000069,0.00000848,-0.00000021,0.00000026,-0.00000304,-0.01838420,0.0
 2194344,0.02566263,-0.00000565,-0.00000176,-0.00000131,0.00000844,0.00
 000531,0.00000878,-0.00000603,-0.00000404,-0.00000466,-0.00000359,-0.0
 0000629,-0.00000175,-0.00000435,0.00000598,-0.00000255,0.00000272,0.00
 000512,0.00000064,0.00000356,-0.00000060,0.00000006,0.00000169,0.00000
 134,-0.00000089,-0.00000135,0.00000231,0.00000038,-0.00001691,0.000002
 80,-0.00000008,0.00008091,-0.00003748,-0.00000683,-0.00016284,-0.00025
 749,-0.00001527,0.00070173,0.00002074,-0.00000669,-0.00003294,-0.00004
 855,-0.00000421,-0.00006006,0.00003448,0.00000613,-0.00000638,-0.00001
 089,0.00000066,0.00000889,0.00000399,-0.00000055,-0.00000474,-0.000011
 10,-0.00000067,0.00000115,0.00001532,0.00000089,-0.00001010,0.00000854
 ,0.00000078,0.00000534,-0.00001444,-0.00000096,-0.00000025,0.00000458,
 0.00000067,0.00022649,-0.00489362,-0.00011998,0.01232905,-0.01903617,-
 0.00187253,-0.15657815,0.13626143,0.01403328,-0.01276911,0.02619727,0.
 00260197,-0.00489807,-0.00219409,0.00034186,-0.00052762,0.00142772,0.0
 0015595,-0.00047391,0.00021717,-0.00002026,0.00036842,0.00014373,-0.00
 001631,-0.00049920,-0.00066772,-0.00003560,0.00000094,0.00000011,0.000
 00054,0.00000040,-0.00000064,0.00000112,-0.00000045,0.00000135,0.00000
 020,-0.00000067,-0.00000066,-0.00000012,-0.00001723,-0.00003186,-0.000
 00183,0.16158065,0.00001717,0.00000626,0.00000586,-0.00002563,-0.00001
 464,-0.00002608,0.00002041,0.00001273,0.00000987,0.00001818,0.00001386
 ,0.00000816,0.00001643,-0.00001817,0.00000585,-0.00001198,-0.00002534,
 -0.00000166,-0.00001496,0.00001479,0.00000086,0.00000217,-0.00003467,-
 0.00000150,-0.00000541,0.00000463,0.00000031,-0.00008641,0.00004806,0.
 00000894,0.00007209,-0.00009231,-0.00000591,-0.00030462,-0.00032829,-0
 .00000716,0.00068550,-0.00020924,-0.00007638,-0.00000116,-0.00001562,0
 .00000108,-0.00001576,-0.00007472,-0.00000840,0.00009118,0.00004006,-0
 .00000144,-0.00002418,0.00003023,0.00000421,-0.00004076,-0.00001449,0.
 00000054,-0.00000514,-0.00003422,-0.00000116,0.00003763,-0.00004958,-0
 .00000555,-0.00001070,-0.00001970,-0.00000146,-0.00001652,-0.00000130,
 -0.00000197,-0.00181298,-0.00219437,-0.00056850,0.00769151,-0.03278558
 ,-0.00255793,0.13466827,-0.23288598,-0.01869803,-0.00275010,0.00575947
 ,0.00003456,-0.00149373,0.00093586,-0.00049332,0.00002226,0.00025711,-
 0.00004868,0.00006526,0.00021547,0.00011595,0.00014918,0.00003847,0.00
 002348,-0.00056903,-0.00008758,0.00002122,-0.00000326,-0.00000247,-0.0
 0000185,-0.00000209,0.00000046,-0.00000240,0.00000058,-0.00000370,-0.0
 0000058,0.00000292,0.00000086,0.00000013,0.00005446,-0.00003872,-0.000
 00451,-0.13681261,0.26114005,0.00000166,0.,0.00000334,-0.00000288,-0.0
 0000104,-0.00000634,0.00000275,0.00000145,0.00000168,0.00000194,0.0000
 0062,0.00000493,0.00000101,-0.00000121,-0.00000033,-0.00000111,-0.0000
 0171,-0.00000152,-0.00000076,0.00000027,0.00000283,-0.00000014,-0.0000
 0170,-0.00000762,-0.00000012,-0.00000010,0.00000168,-0.00000591,0.0000
 0489,-0.00001784,0.00000022,-0.00000314,-0.00003027,-0.00001772,-0.000
 00856,-0.00007475,0.00004278,-0.00005135,0.00049205,-0.00000058,0.0000
 0325,-0.00002724,0.00000226,-0.00000885,0.00003505,0.00000679,0.000002
 89,-0.00000104,-0.00000258,0.00000303,-0.00000789,-0.00000216,-0.00000
 099,0.00000430,-0.00000068,-0.00000299,-0.00000153,0.00000278,-0.00000
 401,-0.00000130,-0.00000139,-0.00000136,0.00000436,-0.00000163,0.00000
 029,-0.00000555,0.00010033,-0.00045282,0.00655789,0.00004738,-0.001589
 27,-0.00134308,0.01391936,-0.01874478,-0.04433847,0.00051836,-0.001034
 76,0.00660837,0.00038982,-0.00046818,0.00850325,0.00005468,-0.00010128
 ,0.00091337,-0.00002871,0.00011111,-0.00141986,-0.00001700,0.00002408,
 -0.00035961,-0.00002392,0.00002533,-0.00009328,-0.00000016,0.00000049,
 -0.00000004,-0.00000006,-0.00000005,0.00000026,0.00000006,-0.00000028,
 0.00000041,0.00000020,0.00000001,0.00000064,0.00000443,-0.00000071,-0.
 00000602,-0.01483661,0.02196206,0.02869948,0.00000526,0.00000138,0.000
 00184,-0.00000768,-0.00000465,-0.00000801,0.00000555,0.00000438,0.0000
 0308,0.00000518,0.00000411,0.00000322,0.00000513,-0.00000566,0.0000015
 1,-0.00000410,-0.00000761,-0.00000075,-0.00000373,0.00000522,0.0000003
 9,0.00000223,-0.00001410,-0.00000102,-0.00000390,-0.00000189,0.0000003
 0,-0.00002479,0.00000473,0.00000607,0.00004726,-0.00002824,-0.00000624
 ,-0.00003881,-0.00016811,-0.00001922,0.00008010,-0.00016459,-0.0000726
 7,-0.00004057,0.00001817,0.00000835,0.00003540,0.00002073,-0.00000346,
 0.00001552,0.00001009,0.00000019,-0.00000469,0.00000369,0.00000021,-0.
 00000992,-0.00000090,0.00000034,0.00000329,-0.00001564,-0.00000103,-0.
 00000002,-0.00000910,-0.00000084,0.00000567,-0.00000167,0.00000039,-0.
 00000388,-0.00000065,-0.00000193,-0.00100793,0.00178742,0.00016903,-0.
 00573215,-0.00035226,0.00049672,-0.00576027,-0.02903275,-0.00182713,-0
 .12046769,-0.11950229,-0.00538659,0.01216282,0.01620179,0.00082245,0.0
 0148899,-0.00153813,-0.00024861,0.00058065,0.00021795,-0.00002765,-0.0
 0024092,0.00164835,0.00015178,-0.00218889,0.00177335,0.00039646,-0.000
 00088,-0.00000043,-0.00000051,-0.00000031,0.00000049,-0.00000094,0.000
 00036,-0.00000110,-0.00000015,0.00000085,0.00000007,0.00000010,0.00006
 811,0.00000818,0.00000361,0.00075920,0.00039181,-0.00015268,0.12026954
 ,-0.00000056,-0.00000097,-0.00000015,0.,0.00000028,0.00000025,-0.00000
 068,-0.00000119,-0.00000018,-0.00000597,-0.00000891,-0.00000076,-0.000
 00993,0.00000476,0.00000181,0.00000750,0.00000771,-0.00000030,0.000001
 56,-0.00000970,-0.00000081,0.00000615,0.00003185,0.00000208,0.00000048
 ,0.00000031,0.00000014,0.00002165,-0.00002181,-0.00001036,0.00011189,0
 .00008300,0.00000470,-0.00005622,-0.00005323,0.00001421,0.00007528,0.0
 0014953,0.00012395,-0.00009606,-0.00007568,-0.00001270,-0.00005496,0.0
 0006633,0.00001332,-0.00002379,-0.00000476,0.00000042,0.00001389,-0.00
 000192,-0.00000026,-0.00000827,-0.00000411,-0.00000036,0.00000966,0.00
 000175,0.00000007,-0.00002557,0.00000767,0.00000119,0.00000620,-0.0000
 0858,-0.00000109,-0.00000676,0.00000519,0.00000176,0.00093920,-0.00030
 578,-0.00006265,0.00021720,0.00211916,-0.00045929,0.00191938,0.0030980
 0,0.00004971,-0.11953065,-0.28638999,-0.01385684,-0.01434251,-0.017998
 16,-0.00097692,-0.00100487,0.00224328,0.00036480,0.00002916,-0.0006257
 1,-0.00000320,-0.00001756,-0.00131644,-0.00014332,0.00340103,-0.000444
 20,-0.00051915,0.00000019,0.00000141,-0.00000010,0.00000021,-0.0000000
 8,-0.00000017,0.00000025,-0.00000040,-0.00000008,-0.00000113,0.0000011
 3,0.00000003,0.00000603,0.00000856,-0.00001070,-0.00032928,0.00041230,
 0.00033939,0.12874788,0.29902942,0.00000034,-0.00000067,0.00000115,-0.
 00000024,0.00000101,-0.00000358,-0.00000070,-0.00000107,0.00000468,0.0
 0000039,0.00000010,-0.00001042,-0.00000174,0.00000152,0.00000265,0.000
 00084,0.00000104,0.00000072,0.00000037,-0.00000102,-0.00000585,0.00000
 003,0.00000297,0.00000675,-0.00000007,0.00000003,-0.00000250,0.0000073
 2,-0.00001174,0.00011899,0.00000510,0.00001028,-0.00002998,-0.00001173
 ,0.00001772,-0.00022115,-0.00005475,0.00013372,-0.00158345,0.00000074,
 -0.00001476,0.00013698,-0.00000904,0.00001088,-0.00010204,-0.00000188,
 -0.00000081,-0.00000105,0.00000078,0.00000016,-0.00000770,-0.00000075,
 -0.00000031,0.00000327,0.00000084,0.00000083,-0.00000363,-0.00000166,0
 .00000003,0.00000976,-0.00000003,0.00000153,-0.00000899,-0.00000073,-0
 .00000106,-0.00000514,0.00010960,-0.00009913,0.00010764,0.00053901,-0.
 00044277,0.00835153,0.00039982,0.00119543,0.00146574,-0.00538733,-0.01
 385304,-0.03377282,-0.00137332,-0.00209664,0.00278511,-0.00021238,0.00
 038132,-0.00227892,-0.00004011,-0.00001013,-0.00059221,0.00003249,-0.0
 0020537,0.00067076,0.00050564,-0.00046202,0.00496920,0.00000010,0.0000
 0057,0.00000008,0.00000020,-0.00000041,0.00000049,0.00000021,-0.000000
 26,0.00000057,-0.00000015,0.,0.00000118,0.00000367,-0.00001088,0.00015
 185,-0.00020424,0.00031141,-0.00409033,0.00569337,0.01514157,0.0239306
 8\\-0.00012908,-0.00000108,-0.00008795,0.00003113,-0.00006408,0.000010
 32,0.00005424,0.00009280,0.00001593,-0.00009470,0.00002706,0.00001859,
 0.00009336,-0.00007324,0.00000641,-0.00004161,0.00003936,-0.00002731,0
 .00002086,-0.00000251,-0.00000873,-0.00001217,-0.00000689,0.00001644,-
 0.00001496,0.00000234,0.00000820,0.00001481,0.00001114,-0.00000334,0.0
 0001215,-0.00000134,-0.00000504,-0.00000093,0.00000591,-0.00000041,0.0
 0001372,-0.00000603,0.00000515,-0.00001434,0.00001254,0.00000421,0.000
 00338,-0.00000796,-0.00000058,0.00000833,-0.00001180,-0.00001408,-0.00
 001491,0.00000067,0.00003936,-0.00000736,0.00000722,-0.00003813,-0.000
 00497,0.00000082,0.00003896,-0.00000651,0.00000809,-0.00001234,-0.0000
 0338,-0.00002527,-0.00001905,0.00003001,0.00000512,-0.00000023,0.00000
 008,0.00000185,-0.00000920,-0.00000282,0.00000547,-0.00000025,0.000000
 45,-0.00000236,-0.00000013,0.00000160,0.,-0.00000121,0.00000543,0.0000
 0116,-0.00000467,-0.00000173,-0.00000111,0.00001962,0.00000352,0.00000
 086,-0.00002602,-0.00000119,-0.00000514,0.00002488,0.00000427,0.000005
 43,-0.00000933,0.00005479,-0.00002056,0.00001027,0.00000922,0.00000707
 ,0.00002435,-0.00000463,-0.00000595,0.00002567,-0.00000726,0.00000164,
 -0.00000212,0.00000066,-0.00000081,0.00000048,-0.00000012,-0.00000028,
 0.00000130,0.00000064,-0.00000011,-0.00000005\\\@


 YOU KNOW YOU'VE SPOKEN TOO LONG WHEN THE AUDIENCE STOPS LOOKING AT
 THEIR WATCHES AND STARTS SHAKING THEM.
 Job cpu time:  0 days 19 hours 36 minutes 25.5 seconds.
 File lengths (MBytes):  RWF=   1703 Int=      0 D2E=      0 Chk=     29 Scr=      1
 Normal termination of Gaussian 09 at Mon Dec 30 06:48:06 2013.
