 Entering Gaussian System, Link 0=g09
 Initial command:
 /opt/gaussian/g09/l1.exe /panfs/panfs.cluster/home/shuo/Gau-23806.inp -scrdir=/panfs/panfs.cluster/home/shuo/
 Default is to use a total of  12 processors:
                               12 via shared-memory
                                1 via Linda
 Entering Link 1 = /opt/gaussian/g09/l1.exe PID=     23807.
  
 Copyright (c) 1988,1990,1992,1993,1995,1998,2003,2009,2011,
            Gaussian, Inc.  All Rights Reserved.
  
 This is part of the Gaussian(R) 09 program.  It is based on
 the Gaussian(R) 03 system (copyright 2003, Gaussian, Inc.),
 the Gaussian(R) 98 system (copyright 1998, Gaussian, Inc.),
 the Gaussian(R) 94 system (copyright 1995, Gaussian, Inc.),
 the Gaussian 92(TM) system (copyright 1992, Gaussian, Inc.),
 the Gaussian 90(TM) system (copyright 1990, Gaussian, Inc.),
 the Gaussian 88(TM) system (copyright 1988, Gaussian, Inc.),
 the Gaussian 86(TM) system (copyright 1986, Carnegie Mellon
 University), and the Gaussian 82(TM) system (copyright 1983,
 Carnegie Mellon University). Gaussian is a federally registered
 trademark of Gaussian, Inc.
  
 This software contains proprietary and confidential information,
 including trade secrets, belonging to Gaussian, Inc.
  
 This software is provided under written license and may be
 used, copied, transmitted, or stored only in accord with that
 written license.
  
 The following legend is applicable only to US Government
 contracts under FAR:
  
                    RESTRICTED RIGHTS LEGEND
  
 Use, reproduction and disclosure by the US Government is
 subject to restrictions as set forth in subparagraphs (a)
 and (c) of the Commercial Computer Software - Restricted
 Rights clause in FAR 52.227-19.
  
 Gaussian, Inc.
 340 Quinnipiac St., Bldg. 40, Wallingford CT 06492
  
  
 ---------------------------------------------------------------
 Warning -- This program may not be used in any manner that
 competes with the business of Gaussian, Inc. or will provide
 assistance to any competitor of Gaussian, Inc.  The licensee
 of this program is prohibited from giving any competitor of
 Gaussian, Inc. access to this program.  By using this program,
 the user acknowledges that Gaussian, Inc. is engaged in the
 business of creating and licensing software in the field of
 computational chemistry and represents and warrants to the
 licensee that it is not a competitor of Gaussian, Inc. and that
 it will not use this program in any manner prohibited above.
 ---------------------------------------------------------------
  

 Cite this work as:
 Gaussian 09, Revision C.01,
 M. J. Frisch, G. W. Trucks, H. B. Schlegel, G. E. Scuseria, 
 M. A. Robb, J. R. Cheeseman, G. Scalmani, V. Barone, B. Mennucci, 
 G. A. Petersson, H. Nakatsuji, M. Caricato, X. Li, H. P. Hratchian, 
 A. F. Izmaylov, J. Bloino, G. Zheng, J. L. Sonnenberg, M. Hada, 
 M. Ehara, K. Toyota, R. Fukuda, J. Hasegawa, M. Ishida, T. Nakajima, 
 Y. Honda, O. Kitao, H. Nakai, T. Vreven, J. A. Montgomery, Jr., 
 J. E. Peralta, F. Ogliaro, M. Bearpark, J. J. Heyd, E. Brothers, 
 K. N. Kudin, V. N. Staroverov, T. Keith, R. Kobayashi, J. Normand, 
 K. Raghavachari, A. Rendell, J. C. Burant, S. S. Iyengar, J. Tomasi, 
 M. Cossi, N. Rega, J. M. Millam, M. Klene, J. E. Knox, J. B. Cross, 
 V. Bakken, C. Adamo, J. Jaramillo, R. Gomperts, R. E. Stratmann, 
 O. Yazyev, A. J. Austin, R. Cammi, C. Pomelli, J. W. Ochterski, 
 R. L. Martin, K. Morokuma, V. G. Zakrzewski, G. A. Voth, 
 P. Salvador, J. J. Dannenberg, S. Dapprich, A. D. Daniels, 
 O. Farkas, J. B. Foresman, J. V. Ortiz, J. Cioslowski, 
 and D. J. Fox, Gaussian, Inc., Wallingford CT, 2010.
 
 ******************************************
 Gaussian 09:  EM64L-G09RevC.01 23-Sep-2011
                28-Dec-2013 
 ******************************************
 %chk=2_C20H12N4S3Si.chk
 %NProcShared=12
 Will use up to   12 processors via shared memory.
 %Mem=8000MB
 Default route:  MaxDisk=100GB
 --------------------------------------------
 #B3LYP/6-31++G(d,p) opt scf=direct freq test
 --------------------------------------------
 1/14=-1,18=20,19=15,26=3,38=1/1,3;
 2/9=110,12=2,17=6,18=5,40=1/2;
 3/5=1,6=6,7=1111,11=2,16=1,25=1,30=1,71=1,74=-5/1,2,3;
 4//1;
 5/5=2,38=5/2;
 6/7=2,8=2,9=2,10=2,28=1/1;
 7//1,2,3,16;
 1/14=-1,18=20,19=15/3(2);
 2/9=110/2;
 99//99;
 2/9=110/2;
 3/5=1,6=6,7=1111,11=2,16=1,25=1,30=1,71=1,74=-5/1,2,3;
 4/5=5,16=3/1;
 5/5=2,38=5/2;
 7//1,2,3,16;
 1/14=-1,18=20,19=15/3(-5);
 2/9=110/2;
 6/7=2,8=2,9=2,10=2,19=2,28=1/1;
 99/9=1/99;
 ----------------------------------------------------------------------
 Geom opt of No.2 candidate from the CEPDB database with SMILE code of 
 [SiH2]1C=c2c3cc(-c4nccc5nsnc45)c4cocc4c3c3cnc4ccoc4c3c2=C1, HPC, 20131
 227, Shuo Dai, Gaussian09
 ----------------------------------------------------------------------
 Charge =  0 Multiplicity = 1
 Symbolic Z-Matrix:
 Si                    2.65284  -0.17618  -1.67956 
 H                     2.98112   1.00288  -0.47595 
 H                     3.93832  -0.72237  -1.32507 
 C                     1.16717  -1.87115  -1.27618 
 C                     1.3827   -2.42001  -0.01754 
 C                     0.36371  -3.06729   0.9096 
 C                    -0.66405  -3.22231   0.24653 
 C                    -1.18377  -1.9888    0.44847 
 C                    -0.9196   -0.63627   1.04991 
 N                     0.12638  -0.30672   1.92103 
 C                     0.89846   0.81986   1.66439 
 C                     0.54823   1.8393    0.72812 
 C                    -0.65146   1.59731  -0.03594 
 N                    -1.05075   2.24078  -1.15797 
 S                    -2.40989   1.47711  -1.7319 
 N                    -2.31583   0.14979  -0.80912 
 C                    -1.39067   0.34617   0.14763 
 C                    -2.16033  -2.59131   0.95973 
 C                    -3.26764  -2.21444   0.23327 
 O                    -4.16689  -2.5144    1.10189 
 C                    -3.41487  -3.19168   2.13325 
 C                    -1.82221  -3.56181   2.30013 
 C                     0.16383  -3.55737   2.10267 
 C                     1.95754  -3.92709   2.0364 
 C                     2.93612  -5.06397   2.14212 
 N                     4.43416  -5.31185   1.97318 
 C                     5.20585  -4.26376   1.5546 
 C                     6.68002  -4.14656   1.43238 
 C                     6.90291  -2.87173   0.95637 
 O                     5.68121  -2.22901   0.74498 
 C                     4.58246  -3.05034   1.18729 
 C                     3.00798  -2.77246   1.34665 
 C                     2.43649  -1.58089   0.46564 
 C                     1.71109  -0.58756  -0.17279 
 H                     0.09716  -1.59661  -1.30864 
 H                    -1.10662  -4.27626   0.38145 
 H                     2.00521   0.57592   1.76361 
 H                     1.33231   2.38068   0.19508 
 H                    -3.47294  -1.66197  -0.69876 
 H                    -4.33585  -3.42293   2.67863 
 H                     2.64904  -6.09332   2.39595 
 H                     7.50756  -4.83787   1.67098 
 H                     7.83846  -2.32859   0.74377 
 H                     1.17627   0.28456  -0.70709 
 

 GradGradGradGradGradGradGradGradGradGradGradGradGradGradGradGradGradGrad
 Berny optimization.
 Initialization pass.
                           ----------------------------
                           !    Initial Parameters    !
                           ! (Angstroms and Degrees)  !
 --------------------------                            --------------------------
 ! Name  Definition              Value          Derivative Info.                !
 --------------------------------------------------------------------------------
 ! R1    R(1,2)                  1.7166         estimate D2E/DX2                !
 ! R2    R(1,3)                  1.441          estimate D2E/DX2                !
 ! R3    R(1,34)                 1.8239         estimate D2E/DX2                !
 ! R4    R(1,44)                 1.8271         estimate D2E/DX2                !
 ! R5    R(4,5)                  1.3899         estimate D2E/DX2                !
 ! R6    R(4,34)                 1.7779         estimate D2E/DX2                !
 ! R7    R(4,35)                 1.1051         estimate D2E/DX2                !
 ! R8    R(5,6)                  1.5221         estimate D2E/DX2                !
 ! R9    R(5,33)                 1.4311         estimate D2E/DX2                !
 ! R10   R(5,34)                 1.8681         estimate D2E/DX2                !
 ! R11   R(6,7)                  1.2329         estimate D2E/DX2                !
 ! R12   R(6,23)                 1.3052         estimate D2E/DX2                !
 ! R13   R(7,8)                  1.3537         estimate D2E/DX2                !
 ! R14   R(7,18)                 1.7736         estimate D2E/DX2                !
 ! R15   R(7,36)                 1.151          estimate D2E/DX2                !
 ! R16   R(8,9)                  1.5036         estimate D2E/DX2                !
 ! R17   R(8,18)                 1.2562         estimate D2E/DX2                !
 ! R18   R(9,10)                 1.4005         estimate D2E/DX2                !
 ! R19   R(9,17)                 1.4146         estimate D2E/DX2                !
 ! R20   R(10,11)                1.3897         estimate D2E/DX2                !
 ! R21   R(11,12)                1.4278         estimate D2E/DX2                !
 ! R22   R(11,37)                1.1376         estimate D2E/DX2                !
 ! R23   R(12,13)                1.4428         estimate D2E/DX2                !
 ! R24   R(12,38)                1.0918         estimate D2E/DX2                !
 ! R25   R(13,14)                1.3537         estimate D2E/DX2                !
 ! R26   R(13,17)                1.4647         estimate D2E/DX2                !
 ! R27   R(14,15)                1.6613         estimate D2E/DX2                !
 ! R28   R(15,16)                1.6193         estimate D2E/DX2                !
 ! R29   R(16,17)                1.3453         estimate D2E/DX2                !
 ! R30   R(18,19)                1.3769         estimate D2E/DX2                !
 ! R31   R(18,21)                1.8197         estimate D2E/DX2                !
 ! R32   R(18,22)                1.689          estimate D2E/DX2                !
 ! R33   R(19,20)                1.2857         estimate D2E/DX2                !
 ! R34   R(19,39)                1.1027         estimate D2E/DX2                !
 ! R35   R(20,21)                1.445          estimate D2E/DX2                !
 ! R36   R(21,22)                1.6436         estimate D2E/DX2                !
 ! R37   R(21,40)                1.095          estimate D2E/DX2                !
 ! R38   R(23,24)                1.8326         estimate D2E/DX2                !
 ! R39   R(24,25)                1.5038         estimate D2E/DX2                !
 ! R40   R(24,32)                1.7066         estimate D2E/DX2                !
 ! R41   R(25,26)                1.5278         estimate D2E/DX2                !
 ! R42   R(25,41)                1.0984         estimate D2E/DX2                !
 ! R43   R(26,27)                1.3672         estimate D2E/DX2                !
 ! R44   R(27,28)                1.4839         estimate D2E/DX2                !
 ! R45   R(27,31)                1.4128         estimate D2E/DX2                !
 ! R46   R(28,29)                1.3789         estimate D2E/DX2                !
 ! R47   R(28,42)                1.1044         estimate D2E/DX2                !
 ! R48   R(29,30)                1.3965         estimate D2E/DX2                !
 ! R49   R(29,43)                1.1025         estimate D2E/DX2                !
 ! R50   R(30,31)                1.4413         estimate D2E/DX2                !
 ! R51   R(31,32)                1.6067         estimate D2E/DX2                !
 ! R52   R(32,33)                1.5883         estimate D2E/DX2                !
 ! R53   R(33,34)                1.3858         estimate D2E/DX2                !
 ! R54   R(34,44)                1.1542         estimate D2E/DX2                !
 ! A1    A(2,1,3)               85.2536         estimate D2E/DX2                !
 ! A2    A(2,1,34)              70.9985         estimate D2E/DX2                !
 ! A3    A(2,1,44)              66.93           estimate D2E/DX2                !
 ! A4    A(3,1,34)              99.8981         estimate D2E/DX2                !
 ! A5    A(3,1,44)             133.2819         estimate D2E/DX2                !
 ! A6    A(5,4,35)             105.952          estimate D2E/DX2                !
 ! A7    A(34,4,35)             97.7635         estimate D2E/DX2                !
 ! A8    A(4,5,6)              128.0019         estimate D2E/DX2                !
 ! A9    A(4,5,33)             100.8584         estimate D2E/DX2                !
 ! A10   A(6,5,33)             122.4549         estimate D2E/DX2                !
 ! A11   A(6,5,34)             125.8333         estimate D2E/DX2                !
 ! A12   A(5,6,7)              106.496          estimate D2E/DX2                !
 ! A13   A(5,6,23)             144.9816         estimate D2E/DX2                !
 ! A14   A(7,6,23)             108.4661         estimate D2E/DX2                !
 ! A15   A(6,7,8)               97.1951         estimate D2E/DX2                !
 ! A16   A(6,7,18)             116.2493         estimate D2E/DX2                !
 ! A17   A(6,7,36)             111.8772         estimate D2E/DX2                !
 ! A18   A(8,7,36)             132.0103         estimate D2E/DX2                !
 ! A19   A(18,7,36)             87.378          estimate D2E/DX2                !
 ! A20   A(7,8,9)              144.2808         estimate D2E/DX2                !
 ! A21   A(9,8,18)             113.9047         estimate D2E/DX2                !
 ! A22   A(8,9,10)             126.2751         estimate D2E/DX2                !
 ! A23   A(8,9,17)             108.1238         estimate D2E/DX2                !
 ! A24   A(10,9,17)            118.8158         estimate D2E/DX2                !
 ! A25   A(9,10,11)            119.3947         estimate D2E/DX2                !
 ! A26   A(10,11,12)           124.3091         estimate D2E/DX2                !
 ! A27   A(10,11,37)           110.5216         estimate D2E/DX2                !
 ! A28   A(12,11,37)           116.675          estimate D2E/DX2                !
 ! A29   A(11,12,13)           115.5619         estimate D2E/DX2                !
 ! A30   A(11,12,38)           119.8708         estimate D2E/DX2                !
 ! A31   A(13,12,38)           114.9468         estimate D2E/DX2                !
 ! A32   A(12,13,14)           127.1925         estimate D2E/DX2                !
 ! A33   A(12,13,17)           119.771          estimate D2E/DX2                !
 ! A34   A(14,13,17)           111.1646         estimate D2E/DX2                !
 ! A35   A(13,14,15)           108.0089         estimate D2E/DX2                !
 ! A36   A(14,15,16)            97.6085         estimate D2E/DX2                !
 ! A37   A(15,16,17)           108.9998         estimate D2E/DX2                !
 ! A38   A(9,17,13)            120.337          estimate D2E/DX2                !
 ! A39   A(9,17,16)            125.5366         estimate D2E/DX2                !
 ! A40   A(13,17,16)           112.4957         estimate D2E/DX2                !
 ! A41   A(7,18,19)            124.3098         estimate D2E/DX2                !
 ! A42   A(7,18,21)            136.3485         estimate D2E/DX2                !
 ! A43   A(7,18,22)             86.8937         estimate D2E/DX2                !
 ! A44   A(8,18,19)            106.2105         estimate D2E/DX2                !
 ! A45   A(8,18,21)            163.0632         estimate D2E/DX2                !
 ! A46   A(8,18,22)            116.2917         estimate D2E/DX2                !
 ! A47   A(19,18,21)            82.8842         estimate D2E/DX2                !
 ! A48   A(19,18,22)           137.472          estimate D2E/DX2                !
 ! A49   A(18,19,20)            98.1732         estimate D2E/DX2                !
 ! A50   A(18,19,39)           137.1185         estimate D2E/DX2                !
 ! A51   A(20,19,39)           123.8945         estimate D2E/DX2                !
 ! A52   A(19,20,21)           103.1531         estimate D2E/DX2                !
 ! A53   A(18,21,20)            75.1592         estimate D2E/DX2                !
 ! A54   A(20,21,22)           133.0262         estimate D2E/DX2                !
 ! A55   A(20,21,40)            90.9599         estimate D2E/DX2                !
 ! A56   A(22,21,40)           135.7954         estimate D2E/DX2                !
 ! A57   A(6,23,24)             83.8464         estimate D2E/DX2                !
 ! A58   A(23,24,25)           141.8988         estimate D2E/DX2                !
 ! A59   A(23,24,32)           118.7234         estimate D2E/DX2                !
 ! A60   A(25,24,32)            98.0113         estimate D2E/DX2                !
 ! A61   A(24,25,26)           138.849          estimate D2E/DX2                !
 ! A62   A(24,25,41)           123.6887         estimate D2E/DX2                !
 ! A63   A(26,25,41)            97.4571         estimate D2E/DX2                !
 ! A64   A(25,26,27)           117.5759         estimate D2E/DX2                !
 ! A65   A(26,27,28)           130.2793         estimate D2E/DX2                !
 ! A66   A(26,27,31)           119.2729         estimate D2E/DX2                !
 ! A67   A(28,27,31)           110.4334         estimate D2E/DX2                !
 ! A68   A(27,28,29)           105.1909         estimate D2E/DX2                !
 ! A69   A(27,28,42)           132.6246         estimate D2E/DX2                !
 ! A70   A(29,28,42)           122.1523         estimate D2E/DX2                !
 ! A71   A(28,29,30)           109.6533         estimate D2E/DX2                !
 ! A72   A(28,29,43)           131.2385         estimate D2E/DX2                !
 ! A73   A(30,29,43)           119.1062         estimate D2E/DX2                !
 ! A74   A(29,30,31)           110.9878         estimate D2E/DX2                !
 ! A75   A(27,31,30)           103.4645         estimate D2E/DX2                !
 ! A76   A(27,31,32)           123.7212         estimate D2E/DX2                !
 ! A77   A(30,31,32)           132.757          estimate D2E/DX2                !
 ! A78   A(24,32,31)           121.7523         estimate D2E/DX2                !
 ! A79   A(24,32,33)           120.6843         estimate D2E/DX2                !
 ! A80   A(31,32,33)           115.2981         estimate D2E/DX2                !
 ! A81   A(5,33,32)             90.707          estimate D2E/DX2                !
 ! A82   A(1,34,4)              78.9361         estimate D2E/DX2                !
 ! A83   A(1,34,5)             112.3754         estimate D2E/DX2                !
 ! A84   A(1,34,33)            105.7825         estimate D2E/DX2                !
 ! A85   A(4,34,33)             85.903          estimate D2E/DX2                !
 ! A86   A(4,34,44)             96.6887         estimate D2E/DX2                !
 ! A87   A(5,34,44)            134.2844         estimate D2E/DX2                !
 ! A88   L(18,21,40,20,-1)     166.1191         estimate D2E/DX2                !
 ! A89   L(32,33,34,5,-1)      173.7747         estimate D2E/DX2                !
 ! A90   L(33,34,44,4,-1)      182.5916         estimate D2E/DX2                !
 ! A91   L(18,21,40,20,-2)     180.9185         estimate D2E/DX2                !
 ! A92   L(32,33,34,5,-2)      170.9092         estimate D2E/DX2                !
 ! A93   L(33,34,44,4,-2)      183.1931         estimate D2E/DX2                !
 ! D1    D(2,1,34,4)           177.5374         estimate D2E/DX2                !
 ! D2    D(2,1,34,5)          -152.1496         estimate D2E/DX2                !
 ! D3    D(2,1,34,33)          -99.9853         estimate D2E/DX2                !
 ! D4    D(3,1,34,4)          -101.0272         estimate D2E/DX2                !
 ! D5    D(3,1,34,5)           -70.7141         estimate D2E/DX2                !
 ! D6    D(3,1,34,33)          -18.5498         estimate D2E/DX2                !
 ! D7    D(35,4,5,6)            23.6819         estimate D2E/DX2                !
 ! D8    D(35,4,5,33)         -123.809          estimate D2E/DX2                !
 ! D9    D(35,4,34,1)         -117.2708         estimate D2E/DX2                !
 ! D10   D(35,4,34,33)         135.7603         estimate D2E/DX2                !
 ! D11   D(35,4,34,44)         -47.4327         estimate D2E/DX2                !
 ! D12   D(4,5,6,7)             11.0829         estimate D2E/DX2                !
 ! D13   D(4,5,6,23)          -172.251          estimate D2E/DX2                !
 ! D14   D(33,5,6,7)           152.3635         estimate D2E/DX2                !
 ! D15   D(33,5,6,23)          -30.9703         estimate D2E/DX2                !
 ! D16   D(34,5,6,7)            94.3493         estimate D2E/DX2                !
 ! D17   D(34,5,6,23)          -88.9846         estimate D2E/DX2                !
 ! D18   D(4,5,33,32)         -150.1844         estimate D2E/DX2                !
 ! D19   D(6,5,33,32)           59.9399         estimate D2E/DX2                !
 ! D20   D(6,5,34,1)          -164.3616         estimate D2E/DX2                !
 ! D21   D(6,5,34,44)          -78.5042         estimate D2E/DX2                !
 ! D22   D(5,6,7,8)            -85.4677         estimate D2E/DX2                !
 ! D23   D(5,6,7,18)          -128.2866         estimate D2E/DX2                !
 ! D24   D(5,6,7,36)           133.4893         estimate D2E/DX2                !
 ! D25   D(23,6,7,8)            96.5485         estimate D2E/DX2                !
 ! D26   D(23,6,7,18)           53.7296         estimate D2E/DX2                !
 ! D27   D(23,6,7,36)          -44.4944         estimate D2E/DX2                !
 ! D28   D(5,6,23,24)          -28.0146         estimate D2E/DX2                !
 ! D29   D(7,6,23,24)          148.6152         estimate D2E/DX2                !
 ! D30   D(6,7,8,9)              5.6727         estimate D2E/DX2                !
 ! D31   D(36,7,8,9)           133.929          estimate D2E/DX2                !
 ! D32   D(6,7,18,19)          154.8223         estimate D2E/DX2                !
 ! D33   D(6,7,18,21)          -85.307          estimate D2E/DX2                !
 ! D34   D(6,7,18,22)          -56.2556         estimate D2E/DX2                !
 ! D35   D(36,7,18,19)         -92.0167         estimate D2E/DX2                !
 ! D36   D(36,7,18,21)          27.8539         estimate D2E/DX2                !
 ! D37   D(36,7,18,22)          56.9053         estimate D2E/DX2                !
 ! D38   D(7,8,9,10)           -12.2773         estimate D2E/DX2                !
 ! D39   D(7,8,9,17)           138.0995         estimate D2E/DX2                !
 ! D40   D(18,8,9,10)          105.7891         estimate D2E/DX2                !
 ! D41   D(18,8,9,17)         -103.834          estimate D2E/DX2                !
 ! D42   D(9,8,18,19)           89.5431         estimate D2E/DX2                !
 ! D43   D(9,8,18,21)          -31.2442         estimate D2E/DX2                !
 ! D44   D(9,8,18,22)          -88.9347         estimate D2E/DX2                !
 ! D45   D(8,9,10,11)          131.19           estimate D2E/DX2                !
 ! D46   D(17,9,10,11)         -16.3874         estimate D2E/DX2                !
 ! D47   D(8,9,17,13)         -142.3868         estimate D2E/DX2                !
 ! D48   D(8,9,17,16)           21.9331         estimate D2E/DX2                !
 ! D49   D(10,9,17,13)          10.5606         estimate D2E/DX2                !
 ! D50   D(10,9,17,16)         174.8805         estimate D2E/DX2                !
 ! D51   D(9,10,11,12)          13.5215         estimate D2E/DX2                !
 ! D52   D(9,10,11,37)        -133.1723         estimate D2E/DX2                !
 ! D53   D(10,11,12,13)         -3.9783         estimate D2E/DX2                !
 ! D54   D(10,11,12,38)       -148.4551         estimate D2E/DX2                !
 ! D55   D(37,11,12,13)        140.8855         estimate D2E/DX2                !
 ! D56   D(37,11,12,38)         -3.5913         estimate D2E/DX2                !
 ! D57   D(11,12,13,14)       -165.0994         estimate D2E/DX2                !
 ! D58   D(11,12,13,17)         -2.1149         estimate D2E/DX2                !
 ! D59   D(38,12,13,14)        -18.8575         estimate D2E/DX2                !
 ! D60   D(38,12,13,17)        144.1269         estimate D2E/DX2                !
 ! D61   D(12,13,14,15)        174.0162         estimate D2E/DX2                !
 ! D62   D(17,13,14,15)          9.8223         estimate D2E/DX2                !
 ! D63   D(12,13,17,9)          -1.2686         estimate D2E/DX2                !
 ! D64   D(12,13,17,16)       -167.4976         estimate D2E/DX2                !
 ! D65   D(14,13,17,9)         164.2554         estimate D2E/DX2                !
 ! D66   D(14,13,17,16)         -1.9736         estimate D2E/DX2                !
 ! D67   D(13,14,15,16)        -12.5674         estimate D2E/DX2                !
 ! D68   D(14,15,16,17)         11.4564         estimate D2E/DX2                !
 ! D69   D(15,16,17,9)        -172.506          estimate D2E/DX2                !
 ! D70   D(15,16,17,13)         -7.1297         estimate D2E/DX2                !
 ! D71   D(7,18,19,20)         148.694          estimate D2E/DX2                !
 ! D72   D(7,18,19,39)         -42.0165         estimate D2E/DX2                !
 ! D73   D(8,18,19,20)        -159.5974         estimate D2E/DX2                !
 ! D74   D(8,18,19,39)           9.6921         estimate D2E/DX2                !
 ! D75   D(21,18,19,20)          5.7946         estimate D2E/DX2                !
 ! D76   D(21,18,19,39)        175.084          estimate D2E/DX2                !
 ! D77   D(22,18,19,20)         18.3835         estimate D2E/DX2                !
 ! D78   D(22,18,19,39)       -172.327          estimate D2E/DX2                !
 ! D79   D(7,18,21,20)        -139.0726         estimate D2E/DX2                !
 ! D80   D(8,18,21,20)         118.487          estimate D2E/DX2                !
 ! D81   D(19,18,21,20)         -5.2782         estimate D2E/DX2                !
 ! D82   D(18,19,20,21)         -7.4446         estimate D2E/DX2                !
 ! D83   D(39,19,20,21)       -178.6811         estimate D2E/DX2                !
 ! D84   D(19,20,21,18)          5.7617         estimate D2E/DX2                !
 ! D85   D(19,20,21,22)         -0.0403         estimate D2E/DX2                !
 ! D86   D(19,20,21,40)       -175.1568         estimate D2E/DX2                !
 ! D87   D(6,23,24,25)        -122.8553         estimate D2E/DX2                !
 ! D88   D(6,23,24,32)          40.17           estimate D2E/DX2                !
 ! D89   D(23,24,25,26)        174.123          estimate D2E/DX2                !
 ! D90   D(23,24,25,41)         -4.8348         estimate D2E/DX2                !
 ! D91   D(32,24,25,26)          9.1069         estimate D2E/DX2                !
 ! D92   D(32,24,25,41)       -169.8508         estimate D2E/DX2                !
 ! D93   D(23,24,32,31)       -177.0262         estimate D2E/DX2                !
 ! D94   D(23,24,32,33)        -14.9272         estimate D2E/DX2                !
 ! D95   D(25,24,32,31)         -7.508          estimate D2E/DX2                !
 ! D96   D(25,24,32,33)        154.591          estimate D2E/DX2                !
 ! D97   D(24,25,26,27)         -3.2431         estimate D2E/DX2                !
 ! D98   D(41,25,26,27)        175.8823         estimate D2E/DX2                !
 ! D99   D(25,26,27,28)        172.9591         estimate D2E/DX2                !
 ! D100  D(25,26,27,31)         -5.5166         estimate D2E/DX2                !
 ! D101  D(26,27,28,29)        179.7666         estimate D2E/DX2                !
 ! D102  D(26,27,28,42)         -2.3288         estimate D2E/DX2                !
 ! D103  D(31,27,28,29)         -1.6523         estimate D2E/DX2                !
 ! D104  D(31,27,28,42)        176.2524         estimate D2E/DX2                !
 ! D105  D(26,27,31,30)       -177.0642         estimate D2E/DX2                !
 ! D106  D(26,27,31,32)          5.3783         estimate D2E/DX2                !
 ! D107  D(28,27,31,30)          4.1767         estimate D2E/DX2                !
 ! D108  D(28,27,31,32)       -173.3808         estimate D2E/DX2                !
 ! D109  D(27,28,29,30)         -1.775          estimate D2E/DX2                !
 ! D110  D(27,28,29,43)        177.6921         estimate D2E/DX2                !
 ! D111  D(42,28,29,30)       -179.954          estimate D2E/DX2                !
 ! D112  D(42,28,29,43)         -0.4869         estimate D2E/DX2                !
 ! D113  D(28,29,30,31)          4.6029         estimate D2E/DX2                !
 ! D114  D(43,29,30,31)       -174.9385         estimate D2E/DX2                !
 ! D115  D(29,30,31,27)         -5.3463         estimate D2E/DX2                !
 ! D116  D(29,30,31,32)        171.8866         estimate D2E/DX2                !
 ! D117  D(27,31,32,24)          2.2067         estimate D2E/DX2                !
 ! D118  D(27,31,32,33)       -160.7929         estimate D2E/DX2                !
 ! D119  D(30,31,32,24)       -174.5575         estimate D2E/DX2                !
 ! D120  D(30,31,32,33)         22.4429         estimate D2E/DX2                !
 ! D121  D(24,32,33,5)         -33.1714         estimate D2E/DX2                !
 ! D122  D(31,32,33,5)         130.0249         estimate D2E/DX2                !
 ! D123  D(24,32,34,1)        -140.37           estimate D2E/DX2                !
 ! D124  D(24,32,34,4)         -64.1524         estimate D2E/DX2                !
 ! D125  D(31,32,34,1)          24.1011         estimate D2E/DX2                !
 ! D126  D(31,32,34,4)         100.3187         estimate D2E/DX2                !
 --------------------------------------------------------------------------------
 Trust Radius=3.00D-01 FncErr=1.00D-07 GrdErr=1.00D-06
 Number of steps in this run=    264 maximum allowed number of steps=    264.
 GradGradGradGradGradGradGradGradGradGradGradGradGradGradGradGradGradGrad

                          Input orientation:                          
 ---------------------------------------------------------------------
 Center     Atomic      Atomic             Coordinates (Angstroms)
 Number     Number       Type             X           Y           Z
 ---------------------------------------------------------------------
      1         14           0        2.652840   -0.176180   -1.679560
      2          1           0        2.981120    1.002880   -0.475950
      3          1           0        3.938320   -0.722370   -1.325070
      4          6           0        1.167170   -1.871150   -1.276180
      5          6           0        1.382700   -2.420010   -0.017540
      6          6           0        0.363710   -3.067290    0.909600
      7          6           0       -0.664050   -3.222310    0.246530
      8          6           0       -1.183770   -1.988800    0.448470
      9          6           0       -0.919600   -0.636270    1.049910
     10          7           0        0.126380   -0.306720    1.921030
     11          6           0        0.898460    0.819860    1.664390
     12          6           0        0.548230    1.839300    0.728120
     13          6           0       -0.651460    1.597310   -0.035940
     14          7           0       -1.050750    2.240780   -1.157970
     15         16           0       -2.409890    1.477110   -1.731900
     16          7           0       -2.315830    0.149790   -0.809120
     17          6           0       -1.390670    0.346170    0.147630
     18          6           0       -2.160330   -2.591310    0.959730
     19          6           0       -3.267640   -2.214440    0.233270
     20          8           0       -4.166890   -2.514400    1.101890
     21          6           0       -3.414870   -3.191680    2.133250
     22          6           0       -1.822210   -3.561810    2.300130
     23          6           0        0.163830   -3.557370    2.102670
     24          6           0        1.957540   -3.927090    2.036400
     25          6           0        2.936120   -5.063970    2.142120
     26          7           0        4.434160   -5.311850    1.973180
     27          6           0        5.205850   -4.263760    1.554600
     28          6           0        6.680020   -4.146560    1.432380
     29          6           0        6.902910   -2.871730    0.956370
     30          8           0        5.681210   -2.229010    0.744980
     31          6           0        4.582460   -3.050340    1.187290
     32          6           0        3.007980   -2.772460    1.346650
     33          6           0        2.436490   -1.580890    0.465640
     34          6           0        1.711090   -0.587560   -0.172790
     35          1           0        0.097160   -1.596610   -1.308640
     36          1           0       -1.106620   -4.276260    0.381450
     37          1           0        2.005210    0.575920    1.763610
     38          1           0        1.332310    2.380680    0.195080
     39          1           0       -3.472940   -1.661970   -0.698760
     40          1           0       -4.335850   -3.422930    2.678630
     41          1           0        2.649040   -6.093320    2.395950
     42          1           0        7.507560   -4.837870    1.670980
     43          1           0        7.838460   -2.328590    0.743770
     44          1           0        1.176270    0.284560   -0.707090
 ---------------------------------------------------------------------
                    Distance matrix (angstroms):
                    1          2          3          4          5
     1  Si   0.000000
     2  H    1.716574   0.000000
     3  H    1.440988   2.147958   0.000000
     4  C    2.289728   3.491537   3.000226   0.000000
     5  C    3.067628   3.805425   3.335088   1.389919   0.000000
     6  C    4.505817   5.033574   4.823923   2.618002   1.522137
     7  C    4.898009   5.626853   5.468221   2.738183   2.214182
     8  C    4.746965   5.210663   5.566426   2.918078   2.643837
     9  C    4.519294   4.497853   5.408080   3.360094   3.101897
    10  N    4.400487   3.950963   5.024024   3.708482   3.130877
    11  C    3.905374   2.991993   4.533883   3.995083   3.682409
    12  C    3.780009   2.840482   4.719158   4.262364   4.403870
    13  C    4.094527   3.707100   5.301778   4.108020   4.503000
    14  N    4.453126   4.272414   5.805084   4.673447   5.380076
    15  S    5.326100   5.555654   6.730750   4.920761   5.701782
    16  N    5.054859   5.375541   6.335713   4.053842   4.572701
    17  C    4.467823   4.464602   5.631053   3.672368   3.920537
    18  C    5.997108   6.435362   6.775454   4.073104   3.679329
    19  C    6.547175   7.064074   7.522005   4.697215   4.661633
    20  O    7.727383   8.121261   8.648464   5.875473   5.662153
    21  C    7.774823   8.081519   8.492754   5.862005   5.313949
    22  C    6.879426   7.184358   7.374836   4.958298   4.116643
    23  C    5.650919   5.948301   5.833815   3.907257   2.697132
    24  C    5.325517   5.627097   5.049079   3.978035   2.611590
    25  C    6.210956   6.607797   5.645822   5.000806   3.750703
    26  N    6.549100   6.927148   5.673415   5.750650   4.651571
    27  C    5.803961   6.067129   4.737148   5.481682   4.526314
    28  C    6.454941   6.621202   5.181267   6.550214   5.757156
    29  C    5.681304   5.696014   4.314338   6.235716   5.623635
    30  O    4.389024   4.384777   3.097214   4.958801   4.369795
    31  C    4.494781   4.664681   3.485156   4.373029   3.476693
    32  C    4.003091   4.192348   3.493779   3.328690   2.150993
    33  C    2.573305   2.803405   2.489818   2.174709   1.431104
    34  C    1.823865   2.057761   2.511270   1.777898   1.868105
    35  H    2.947321   3.970887   3.939426   1.105146   1.999385
    36  H    5.932281   6.731573   6.402637   3.701677   3.130746
    37  H    3.583364   2.479985   3.868128   3.991339   3.540566
    38  H    3.434473   2.251042   4.327940   4.502215   4.805660
    39  H    6.379241   6.986126   7.496792   4.680576   4.961444
    40  H    8.853078   9.114671   9.580424   6.952106   6.401328
    41  H    7.184869   7.662515   6.659980   5.788540   4.574031
    42  H    7.518363   7.694955   6.217164   7.595244   6.797871
    43  H    6.115231   6.014995   4.697993   6.985382   6.501137
    44  H    1.827085   1.956245   3.004118   2.229581   2.798712
                    6          7          8          9         10
     6  C    0.000000
     7  C    1.232876   0.000000
     8  C    1.941771   1.353675   0.000000
     9  C    2.752532   2.719987   1.503613   0.000000
    10  N    2.949587   3.453896   2.591200   1.400545   0.000000
    11  C    3.995698   4.559704   3.701718   2.408992   1.389660
    12  C    4.913411   5.226992   4.210983   2.895949   2.491263
    13  C    4.866529   4.827907   3.657621   2.497969   2.839031
    14  N    5.869510   5.653982   4.526333   3.628960   4.166009
    15  S    5.943227   5.389498   4.274332   3.798132   4.791515
    16  N    4.525874   3.900491   2.727024   2.454250   3.691410
    17  C    3.912820   3.643049   2.363344   1.414639   2.423356
    18  C    2.569017   1.773603   1.256214   2.317267   3.372313
    19  C    3.790973   2.791892   2.107069   2.944624   4.243501
    20  O    4.568260   3.674597   3.098745   3.751662   4.896632
    21  C    3.973721   3.335815   3.043552   3.732307   4.572579
    22  C    2.637493   2.381988   2.512093   3.307044   3.812654
    23  C    1.305200   2.059832   2.648172   3.288609   3.255936
    24  C    2.132892   3.251628   4.018248   4.481138   4.058760
    25  C    3.481829   4.466117   5.412819   5.971937   5.529462
    26  N    4.768419   5.774014   6.702875   7.167721   6.603864
    27  C    5.029303   6.103392   6.872133   7.136843   6.449299
    28  C    6.429144   7.496389   8.213598   8.379895   7.611396
    29  C    6.542291   7.608263   8.150578   8.136197   7.309665
    30  O    5.385687   6.441849   6.875578   6.797095   5.994533
    31  C    4.227913   5.332961   5.909495   6.009931   5.284172
    32  C    2.696313   3.859590   4.357937   4.480764   3.835806
    33  C    2.588996   3.515056   3.643208   3.535112   3.013018
    34  C    3.022592   3.571978   3.275615   2.901361   2.640882
    35  H    2.674797   2.375057   2.209532   2.742045   3.477850
    36  H    1.975455   1.151035   2.289742   3.705583   4.432589
    37  H    4.086176   4.883957   4.298485   3.245502   2.081787
    38  H    5.579346   5.948243   5.048487   3.860547   3.413984
    39  H    4.391085   3.349343   2.581328   3.260284   4.653505
    40  H    5.034065   4.408795   4.118974   4.699890   5.495109
    41  H    4.072938   4.882548   5.943921   6.657808   6.330411
    42  H    7.399273   8.450698   9.227727   9.436959   8.664621
    43  H    7.512993   8.563799   9.033454   8.925317   8.059161
    44  H    3.809047   4.073611   3.474662   2.885766   2.891176
                   11         12         13         14         15
    11  C    0.000000
    12  C    1.427768   0.000000
    13  C    2.428539   1.442776   0.000000
    14  N    3.712701   2.505047   1.353676   0.000000
    15  S    4.786642   3.864370   2.445977   1.661279   0.000000
    16  N    4.110828   3.663385   2.337359   2.468676   1.619305
    17  C    2.786586   2.515102   1.464746   2.325873   2.418774
    18  C    4.635604   5.198100   4.562081   5.391189   4.884587
    19  C    5.348969   5.589146   4.631016   5.167121   4.269095
    20  O    6.090276   6.428590   5.528025   6.117927   5.200920
    21  C    5.909069   6.556776   5.939381   6.777375   6.143856
    22  C    5.196657   6.104276   5.783113   6.798798   6.480228
    23  C    4.460035   5.582222   5.639954   6.762065   6.831834
    24  C    4.877866   6.078569   6.451393   7.569440   7.904423
    25  C    6.244977   7.440198   7.873203   8.952380   9.293739
    26  N    7.084800   8.233442   8.811163   9.845332  10.327566
    27  C    6.663997   7.721647   8.437419   9.424018  10.087525
    28  C    7.625326   8.597985   9.428606  10.357260  11.147412
    29  C    7.083964   7.913777   8.833205   9.688596  10.623909
    30  O    5.745922   6.549726   7.439978   8.301779   9.237757
    31  C    5.364506   6.355661   7.105692   8.076463   8.826802
    32  C    4.178013   5.263201   5.864976   6.919464   7.542522
    33  C    3.092917   3.915625   4.459593   5.422372   6.137422
    34  C    2.452841   2.837874   3.220874   4.074046   4.865816
    35  H    3.914118   4.019619   3.518710   4.008237   3.989010
    36  H    5.624653   6.344981   5.905947   6.696622   6.266261
    37  H    1.137650   2.188872   3.367419   4.543818   5.702968
    38  H    2.187066   1.091790   2.145316   2.743955   4.305084
    39  H    5.554556   5.519482   4.361535   4.616204   3.471495
    40  H    6.813806   7.439744   6.793116   7.588741   6.868223
    41  H    7.168805   8.373859   8.715112   9.786522   9.997166
    42  H    8.700009   9.690504  10.530656  11.461017  12.239868
    43  H    7.676189   8.397559   9.386127  10.174174  11.208968
    44  H    2.446966   2.207143   2.348266   2.998284   3.915732
                   16         17         18         19         20
    16  N    0.000000
    17  C    1.345309   0.000000
    18  C    3.265982   3.143354   0.000000
    19  C    2.753562   3.176015   1.376921   0.000000
    20  O    3.765142   4.098886   2.013059   1.285740   0.000000
    21  C    4.585941   4.533923   1.819743   2.141635   1.444973
    22  C    4.866936   4.482387   1.689043   2.859473   2.833791
    23  C    5.326375   4.634250   2.764291   4.131961   4.565576
    24  C    6.555885   5.747931   4.460984   5.786791   6.354341
    25  C    7.967188   7.208933   5.786700   7.088735   7.618080
    26  N    9.117734   8.323128   7.205256   8.481684   9.086415
    27  C    9.035611   8.169767   7.577042   8.817350   9.545337
    28  C   10.218036   9.325837   8.988548  10.204259  10.973998
    29  C    9.860614   8.932660   9.067578  10.217387  11.076522
    30  O    8.486847   7.549826   7.852842   8.963480   9.858697
    31  C    7.862117   6.949493   6.762227   7.951915   8.766165
    32  C    6.444365   5.523733   5.185938   6.398000   7.183680
    33  C    5.215823   4.296725   4.732423   5.743908   6.699320
    34  C    4.143029   3.255063   4.503944   5.253511   6.315708
    35  H    3.020257   2.847587   3.351297   3.752476   4.983484
    36  H    4.740207   4.637048   2.069727   2.990496   3.603947
    37  H    5.046971   3.767781   5.294270   6.158815   6.934174
    38  H    4.392518   3.399427   6.124043   6.502009   7.417905
    39  H    2.152570   3.014109   2.310240   1.102747   2.109631
    40  H    5.386020   5.411669   2.894667   2.929387   1.827589
    41  H    8.596443   7.927246   6.120199   7.397972   7.806418
    42  H   11.292769  10.410253   9.950930  11.182769  11.917011
    43  H   10.567092   9.627386  10.004572  11.118413  12.012127
    44  H    3.496189   2.706201   4.709758   5.184362   6.297297
                   21         22         23         24         25
    21  C    0.000000
    22  C    1.643597   0.000000
    23  C    3.597465   1.995837   0.000000
    24  C    5.423375   3.806507   1.832616   0.000000
    25  C    6.621225   4.992310   3.155470   1.503759   0.000000
    26  N    8.131913   6.504745   4.618516   2.838169   1.527779
    27  C    8.706377   7.102266   5.120677   3.301060   2.477335
    28  C   10.164144   8.566378   6.577018   4.766007   3.919459
    29  C   10.389610   8.854921   6.870175   5.170777   4.684799
    30  O    9.251632   7.777928   5.835182   4.291499   4.186230
    31  C    8.054322   6.520722   4.540847   2.894803   2.770711
    32  C    6.484403   4.986274   3.045790   1.706561   2.426717
    33  C    6.293964   5.042412   3.428020   2.863797   3.897700
    34  C    6.194734   5.238865   4.048642   4.011698   5.186304
    35  H    5.169643   4.535329   3.935233   4.481232   5.655972
    36  H    3.094048   2.168834   2.256866   3.499979   4.479307
    37  H    6.611256   5.661961   4.537591   4.511517   5.728719
    38  H    7.572544   7.049498   6.345446   6.600707   7.860406
    39  H    3.219265   3.915053   4.966553   6.488604   7.792320
    40  H    1.095043   2.545768   4.538383   6.346132   7.474116
    41  H    6.727520   5.139047   3.562769   2.302173   1.098365
    42  H   11.055456   9.437625   7.467021   5.636113   4.601213
    43  H   11.371588   9.862638   7.890276   6.229873   5.785380
    44  H    6.421086   5.729644   4.866232   5.086759   6.310455
                   26         27         28         29         30
    26  N    0.000000
    27  C    1.367190   0.000000
    28  C    2.587325   1.483863   0.000000
    29  C    3.617017   2.275003   1.378933   0.000000
    30  O    3.545069   2.240906   2.268731   1.396541   0.000000
    31  C    2.398759   1.412770   2.379396   2.338742   1.441344
    32  C    2.979099   2.664179   3.921655   3.915693   2.793475
    33  C    4.492597   4.006617   5.052207   4.675039   3.320587
    34  C    5.859967   5.358327   6.319281   5.783375   4.393007
    35  H    6.586571   6.435103   7.572944   7.285220   5.983218
    36  H    5.857158   6.420570   7.858310   8.152043   7.099156
    37  H    6.372563   5.806056   6.653223   6.043624   4.734788
    38  H    8.482814   7.810326   8.528410   7.694086   6.361176
    39  H    9.109507   9.336399  10.667593  10.576447   9.284631
    40  H    8.998820   9.644401  11.109733  11.383309  10.271608
    41  H    1.994012   3.254602   4.578989   5.526884   5.181954
    42  H    3.124383   2.375082   1.104383   2.177608   3.316501
    43  H    4.690474   3.366447   2.263003   1.102476   2.159547
    44  H    7.008388   6.483824   7.382643   6.747123   5.359200
                   31         32         33         34         35
    31  C    0.000000
    32  C    1.606736   0.000000
    33  C    2.699120   1.588275   0.000000
    34  C    4.019934   2.960475   1.385822   0.000000
    35  H    5.334877   4.111698   2.936117   2.216553   0.000000
    36  H    5.875193   4.485862   4.452610   4.674738   3.389102
    37  H    4.485992   3.520093   2.553930   2.278121   4.218917
    38  H    6.406554   5.539750   4.121462   3.014839   4.427822
    39  H    8.388935   6.886161   6.023601   5.320260   3.622408
    40  H    9.049816   7.491937   7.359010   7.261915   6.235811
    41  H    3.802460   3.501140   4.912565   6.147485   6.360541
    42  H    3.461998   4.961585   6.146260   7.420491   8.619625
    43  H    3.364397   4.888151   5.460558   6.435521   8.042133
    44  H    5.129558   4.113196   2.538376   1.154167   2.250587
                   36         37         38         39         40
    36  H    0.000000
    37  H    5.927690   0.000000
    38  H    7.092106   2.483997   0.000000
    39  H    3.687931   6.409489   6.342901   0.000000
    40  H    4.053780   7.552291   8.483982   3.905427   0.000000
    41  H    4.633023   6.730017   8.853603   8.166562   7.483287
    42  H    8.728252   7.719686   9.613504  11.673619  11.970120
    43  H    9.161831   6.595685   8.050359  11.422480  12.375584
    44  H    5.215130   2.622287   2.287352   5.040258   7.456008
                   41         42         43         44
    41  H    0.000000
    42  H    5.070202   0.000000
    43  H    6.620647   2.695496   0.000000
    44  H    7.243981   8.484087   7.301940   0.000000
 Stoichiometry    C24H12N4O2SSi
 Framework group  C1[X(C24H12N4O2SSi)]
 Deg. of freedom   126
 Full point group                 C1      NOp   1
 Largest Abelian subgroup         C1      NOp   1
 Largest concise Abelian subgroup C1      NOp   1
                         Standard orientation:                         
 ---------------------------------------------------------------------
 Center     Atomic      Atomic             Coordinates (Angstroms)
 Number     Number       Type             X           Y           Z
 ---------------------------------------------------------------------
      1         14           0       -0.675979   -2.901992   -1.179620
      2          1           0       -0.679274   -3.447957    0.447814
      3          1           0       -2.111517   -2.895522   -1.054591
      4          6           0       -0.124081   -0.737214   -1.681616
      5          6           0       -0.756938    0.142347   -0.811134
      6          6           0       -0.272611    1.506726   -0.341242
      7          6           0        0.691962    1.799361   -1.051135
      8          6           0        1.636951    1.154798   -0.327276
      9          6           0        1.864407    0.240282    0.844379
     10          7           0        0.921456   -0.106610    1.820102
     11          6           0        0.745074   -1.444191    2.153153
     12          6           0        1.640471   -2.491507    1.779101
     13          6           0        2.739266   -2.097874    0.930984
     14          7           0        3.552786   -2.909940    0.216021
     15         16           0        4.544383   -1.954496   -0.713340
     16          7           0        3.751574   -0.557768   -0.506569
     17          6           0        2.846584   -0.709320    0.477241
     18          6           0        2.171891    2.284560   -0.202571
     19          6           0        3.440103    2.169285   -0.726271
     20          8           0        3.972240    3.183119   -0.141379
     21          6           0        2.844801    3.824566    0.495309
     22          6           0        1.239876    3.474556    0.551170
     23          6           0       -0.498915    2.497534    0.477680
     24          6           0       -2.244085    1.956061    0.337446
     25          6           0       -3.610234    2.453579   -0.046490
     26          7           0       -5.023252    1.904399   -0.235939
     27          6           0       -5.204847    0.558032   -0.082558
     28          6           0       -6.452051   -0.245674   -0.062823
     29          6           0       -6.039238   -1.548977    0.117304
     30          8           0       -4.644411   -1.597286    0.166790
     31          6           0       -4.080070   -0.271737    0.123062
     32          6           0       -2.584654    0.283991    0.314104
     33          6           0       -1.429095   -0.775021    0.057600
     34          6           0       -0.259525   -1.504845   -0.083705
     35          1           0        0.951590   -0.487697   -1.636674
     36          1           0        0.624792    2.879980   -1.441816
     37          1           0       -0.361852   -1.705063    2.183293
     38          1           0        1.255589   -3.496885    1.597205
     39          1           0        4.010490    1.424193   -1.305536
     40          1           0        3.479291    4.653980    0.824877
     41          1           0       -3.825977    3.497105   -0.312786
     42          1           0       -7.519685    0.028645   -0.130414
     43          1           0       -6.612472   -2.484254    0.227362
     44          1           0        0.671768   -2.179845   -0.179460
 ---------------------------------------------------------------------
 Rotational constants (GHZ):      0.2416421      0.1032775      0.0795467
 Standard basis: 6-31++G(d,p) (6D, 7F)
 There are   688 symmetry adapted basis functions of A   symmetry.
 Integral buffers will be    131072 words long.
 Raffenetti 2 integral format.
 Two-electron integral symmetry is turned on.
   688 basis functions,  1168 primitive gaussians,   688 cartesian basis functions
   115 alpha electrons      115 beta electrons
       nuclear repulsion energy      3434.0891760923 Hartrees.
 NAtoms=   44 NActive=   44 NUniq=   44 SFac= 1.00D+00 NAtFMM=   60 NAOKFM=F Big=F
 One-electron integrals computed using PRISM.
 NBasis=   688 RedAO= T  NBF=   688
 NBsUse=   681 1.00D-06 NBFU=   681
 Harris functional with IExCor=  402 diagonalized for initial guess.
 ExpMin= 3.31D-02 ExpMax= 2.19D+04 ExpMxC= 3.30D+03 IAcc=3 IRadAn=         5 AccDes= 0.00D+00
 HarFok:  IExCor=  402 AccDes= 0.00D+00 IRadAn=         5 IDoV= 1
 ScaDFX=  1.000000  1.000000  1.000000  1.000000
 FoFCou: FMM=F IPFlag=           0 FMFlag=      100000 FMFlg1=           0
         NFxFlg=           0 DoJE=T BraDBF=F KetDBF=T FulRan=T
         Omega=  0.000000  0.000000  1.000000  0.000000  0.000000 ICntrl=     500 IOpCl=  0
         NMat0=    1 NMatS0=    1 NMatT0=    0 NMatD0=    1 NMtDS0=    0 NMtDT0=    0
         I1Cent=           4 NGrid=           0.
 Petite list used in FoFCou.
 Initial guess orbital symmetries:
       Occupied  (A) (A) (A) (A) (A) (A) (A) (A) (A) (A) (A) (A)
                 (A) (A) (A) (A) (A) (A) (A) (A) (A) (A) (A) (A)
                 (A) (A) (A) (A) (A) (A) (A) (A) (A) (A) (A) (A)
                 (A) (A) (A) (A) (A) (A) (A) (A) (A) (A) (A) (A)
                 (A) (A) (A) (A) (A) (A) (A) (A) (A) (A) (A) (A)
                 (A) (A) (A) (A) (A) (A) (A) (A) (A) (A) (A) (A)
                 (A) (A) (A) (A) (A) (A) (A) (A) (A) (A) (A) (A)
                 (A) (A) (A) (A) (A) (A) (A) (A) (A) (A) (A) (A)
                 (A) (A) (A) (A) (A) (A) (A) (A) (A) (A) (A) (A)
                 (A) (A) (A) (A) (A) (A) (A)
       Virtual   (A) (A) (A) (A) (A) (A) (A) (A) (A) (A) (A) (A)
                 (A) (A) (A) (A) (A) (A) (A) (A) (A) (A) (A) (A)
                 (A) (A) (A) (A) (A) (A) (A) (A) (A) (A) (A) (A)
                 (A) (A) (A) (A) (A) (A) (A) (A) (A) (A) (A) (A)
                 (A) (A) (A) (A) (A) (A) (A) (A) (A) (A) (A) (A)
                 (A) (A) (A) (A) (A) (A) (A) (A) (A) (A) (A) (A)
                 (A) (A) (A) (A) (A) (A) (A) (A) (A) (A) (A) (A)
                 (A) (A) (A) (A) (A) (A) (A) (A) (A) (A) (A) (A)
                 (A) (A) (A) (A) (A) (A) (A) (A) (A) (A) (A) (A)
                 (A) (A) (A) (A) (A) (A) (A) (A) (A) (A) (A) (A)
                 (A) (A) (A) (A) (A) (A) (A) (A) (A) (A) (A) (A)
                 (A) (A) (A) (A) (A) (A) (A) (A) (A) (A) (A) (A)
                 (A) (A) (A) (A) (A) (A) (A) (A) (A) (A) (A) (A)
                 (A) (A) (A) (A) (A) (A) (A) (A) (A) (A) (A) (A)
                 (A) (A) (A) (A) (A) (A) (A) (A) (A) (A) (A) (A)
                 (A) (A) (A) (A) (A) (A) (A) (A) (A) (A) (A) (A)
                 (A) (A) (A) (A) (A) (A) (A) (A) (A) (A) (A) (A)
                 (A) (A) (A) (A) (A) (A) (A) (A) (A) (A) (A) (A)
                 (A) (A) (A) (A) (A) (A) (A) (A) (A) (A) (A) (A)
                 (A) (A) (A) (A) (A) (A) (A) (A) (A) (A) (A) (A)
                 (A) (A) (A) (A) (A) (A) (A) (A) (A) (A) (A) (A)
                 (A) (A) (A) (A) (A) (A) (A) (A) (A) (A) (A) (A)
                 (A) (A) (A) (A) (A) (A) (A) (A) (A) (A) (A) (A)
                 (A) (A) (A) (A) (A) (A) (A) (A) (A) (A) (A) (A)
                 (A) (A) (A) (A) (A) (A) (A) (A) (A) (A) (A) (A)
                 (A) (A) (A) (A) (A) (A) (A) (A) (A) (A) (A) (A)
                 (A) (A) (A) (A) (A) (A) (A) (A) (A) (A) (A) (A)
                 (A) (A) (A) (A) (A) (A) (A) (A) (A) (A) (A) (A)
                 (A) (A) (A) (A) (A) (A) (A) (A) (A) (A) (A) (A)
                 (A) (A) (A) (A) (A) (A) (A) (A) (A) (A) (A) (A)
                 (A) (A) (A) (A) (A) (A) (A) (A) (A) (A) (A) (A)
                 (A) (A) (A) (A) (A) (A) (A) (A) (A) (A) (A) (A)
                 (A) (A) (A) (A) (A) (A) (A) (A) (A) (A) (A) (A)
                 (A) (A) (A) (A) (A) (A) (A) (A) (A) (A) (A) (A)
                 (A) (A) (A) (A) (A) (A) (A) (A) (A) (A) (A) (A)
                 (A) (A) (A) (A) (A) (A) (A) (A) (A) (A) (A) (A)
                 (A) (A) (A) (A) (A) (A) (A) (A) (A) (A) (A) (A)
                 (A) (A) (A) (A) (A) (A) (A) (A) (A) (A) (A) (A)
                 (A) (A) (A) (A) (A) (A) (A) (A) (A) (A) (A) (A)
                 (A) (A) (A) (A) (A) (A) (A) (A) (A) (A) (A) (A)
                 (A) (A) (A) (A) (A) (A) (A) (A) (A) (A) (A) (A)
                 (A) (A) (A) (A) (A) (A) (A) (A) (A) (A) (A) (A)
                 (A) (A) (A) (A) (A) (A) (A) (A) (A) (A) (A) (A)
                 (A) (A) (A) (A) (A) (A) (A) (A) (A) (A) (A) (A)
                 (A) (A) (A) (A) (A) (A) (A) (A) (A) (A) (A) (A)
                 (A) (A) (A) (A) (A) (A) (A) (A) (A) (A) (A) (A)
                 (A) (A) (A) (A) (A) (A) (A) (A) (A) (A) (A) (A)
                 (A) (A)
 The electronic state of the initial guess is 1-A.
 Requested convergence on RMS density matrix=1.00D-08 within 128 cycles.
 Requested convergence on MAX density matrix=1.00D-06.
 Requested convergence on             energy=1.00D-06.
 No special actions if energy rises.
 EnCoef did     7 forward-backward iterations
 EnCoef did   100 forward-backward iterations
 EnCoef did     2 forward-backward iterations
 EnCoef did     2 forward-backward iterations
 EnCoef did     3 forward-backward iterations
 EnCoef did     2 forward-backward iterations
 Restarting incremental Fock formation.
 SCF Done:  E(RB3LYP) =  -1977.31443861     A.U. after   38 cycles
             Convg  =    0.3208D-08             -V/T =  2.0067

 **********************************************************************

            Population analysis using the SCF density.

 **********************************************************************

 Orbital symmetries:
       Occupied  (A) (A) (A) (A) (A) (A) (A) (A) (A) (A) (A) (A)
                 (A) (A) (A) (A) (A) (A) (A) (A) (A) (A) (A) (A)
                 (A) (A) (A) (A) (A) (A) (A) (A) (A) (A) (A) (A)
                 (A) (A) (A) (A) (A) (A) (A) (A) (A) (A) (A) (A)
                 (A) (A) (A) (A) (A) (A) (A) (A) (A) (A) (A) (A)
                 (A) (A) (A) (A) (A) (A) (A) (A) (A) (A) (A) (A)
                 (A) (A) (A) (A) (A) (A) (A) (A) (A) (A) (A) (A)
                 (A) (A) (A) (A) (A) (A) (A) (A) (A) (A) (A) (A)
                 (A) (A) (A) (A) (A) (A) (A) (A) (A) (A) (A) (A)
                 (A) (A) (A) (A) (A) (A) (A)
       Virtual   (A) (A) (A) (A) (A) (A) (A) (A) (A) (A) (A) (A)
                 (A) (A) (A) (A) (A) (A) (A) (A) (A) (A) (A) (A)
                 (A) (A) (A) (A) (A) (A) (A) (A) (A) (A) (A) (A)
                 (A) (A) (A) (A) (A) (A) (A) (A) (A) (A) (A) (A)
                 (A) (A) (A) (A) (A) (A) (A) (A) (A) (A) (A) (A)
                 (A) (A) (A) (A) (A) (A) (A) (A) (A) (A) (A) (A)
                 (A) (A) (A) (A) (A) (A) (A) (A) (A) (A) (A) (A)
                 (A) (A) (A) (A) (A) (A) (A) (A) (A) (A) (A) (A)
                 (A) (A) (A) (A) (A) (A) (A) (A) (A) (A) (A) (A)
                 (A) (A) (A) (A) (A) (A) (A) (A) (A) (A) (A) (A)
                 (A) (A) (A) (A) (A) (A) (A) (A) (A) (A) (A) (A)
                 (A) (A) (A) (A) (A) (A) (A) (A) (A) (A) (A) (A)
                 (A) (A) (A) (A) (A) (A) (A) (A) (A) (A) (A) (A)
                 (A) (A) (A) (A) (A) (A) (A) (A) (A) (A) (A) (A)
                 (A) (A) (A) (A) (A) (A) (A) (A) (A) (A) (A) (A)
                 (A) (A) (A) (A) (A) (A) (A) (A) (A) (A) (A) (A)
                 (A) (A) (A) (A) (A) (A) (A) (A) (A) (A) (A) (A)
                 (A) (A) (A) (A) (A) (A) (A) (A) (A) (A) (A) (A)
                 (A) (A) (A) (A) (A) (A) (A) (A) (A) (A) (A) (A)
                 (A) (A) (A) (A) (A) (A) (A) (A) (A) (A) (A) (A)
                 (A) (A) (A) (A) (A) (A) (A) (A) (A) (A) (A) (A)
                 (A) (A) (A) (A) (A) (A) (A) (A) (A) (A) (A) (A)
                 (A) (A) (A) (A) (A) (A) (A) (A) (A) (A) (A) (A)
                 (A) (A) (A) (A) (A) (A) (A) (A) (A) (A) (A) (A)
                 (A) (A) (A) (A) (A) (A) (A) (A) (A) (A) (A) (A)
                 (A) (A) (A) (A) (A) (A) (A) (A) (A) (A) (A) (A)
                 (A) (A) (A) (A) (A) (A) (A) (A) (A) (A) (A) (A)
                 (A) (A) (A) (A) (A) (A) (A) (A) (A) (A) (A) (A)
                 (A) (A) (A) (A) (A) (A) (A) (A) (A) (A) (A) (A)
                 (A) (A) (A) (A) (A) (A) (A) (A) (A) (A) (A) (A)
                 (A) (A) (A) (A) (A) (A) (A) (A) (A) (A) (A) (A)
                 (A) (A) (A) (A) (A) (A) (A) (A) (A) (A) (A) (A)
                 (A) (A) (A) (A) (A) (A) (A) (A) (A) (A) (A) (A)
                 (A) (A) (A) (A) (A) (A) (A) (A) (A) (A) (A) (A)
                 (A) (A) (A) (A) (A) (A) (A) (A) (A) (A) (A) (A)
                 (A) (A) (A) (A) (A) (A) (A) (A) (A) (A) (A) (A)
                 (A) (A) (A) (A) (A) (A) (A) (A) (A) (A) (A) (A)
                 (A) (A) (A) (A) (A) (A) (A) (A) (A) (A) (A) (A)
                 (A) (A) (A) (A) (A) (A) (A) (A) (A) (A) (A) (A)
                 (A) (A) (A) (A) (A) (A) (A) (A) (A) (A) (A) (A)
                 (A) (A) (A) (A) (A) (A) (A) (A) (A) (A) (A) (A)
                 (A) (A) (A) (A) (A) (A) (A) (A) (A) (A) (A) (A)
                 (A) (A) (A) (A) (A) (A) (A) (A) (A) (A) (A) (A)
                 (A) (A) (A) (A) (A) (A) (A) (A) (A) (A) (A) (A)
                 (A) (A) (A) (A) (A) (A) (A) (A) (A) (A) (A) (A)
                 (A) (A) (A) (A) (A) (A) (A) (A) (A) (A) (A) (A)
                 (A) (A) (A) (A) (A) (A) (A) (A) (A) (A) (A) (A)
                 (A) (A)
 The electronic state is 1-A.
 Alpha  occ. eigenvalues --  -89.03267 -66.13323 -19.26034 -19.23229 -14.42421
 Alpha  occ. eigenvalues --  -14.41899 -14.40170 -14.36398 -10.32208 -10.31444
 Alpha  occ. eigenvalues --  -10.31096 -10.30249 -10.30159 -10.30016 -10.29908
 Alpha  occ. eigenvalues --  -10.29765 -10.29753 -10.29325 -10.28994 -10.28865
 Alpha  occ. eigenvalues --  -10.28768 -10.28098 -10.27457 -10.26401 -10.26293
 Alpha  occ. eigenvalues --  -10.26287 -10.26231 -10.25797 -10.25398 -10.25366
 Alpha  occ. eigenvalues --  -10.23509 -10.22111  -8.08469  -6.05022  -6.04445
 Alpha  occ. eigenvalues --   -6.04251  -5.27917  -3.64046  -3.63778  -3.63300
 Alpha  occ. eigenvalues --   -1.16841  -1.10038  -1.07181  -1.05686  -0.98705
 Alpha  occ. eigenvalues --   -0.97611  -0.93944  -0.91020  -0.90471  -0.84817
 Alpha  occ. eigenvalues --   -0.82223  -0.81289  -0.78849  -0.77995  -0.76724
 Alpha  occ. eigenvalues --   -0.75623  -0.74394  -0.73463  -0.72267  -0.68849
 Alpha  occ. eigenvalues --   -0.67827  -0.66611  -0.65235  -0.65058  -0.62503
 Alpha  occ. eigenvalues --   -0.60572  -0.60254  -0.58011  -0.57749  -0.57362
 Alpha  occ. eigenvalues --   -0.55526  -0.55035  -0.54879  -0.53013  -0.51308
 Alpha  occ. eigenvalues --   -0.50960  -0.50078  -0.49595  -0.49002  -0.48944
 Alpha  occ. eigenvalues --   -0.47528  -0.46403  -0.45872  -0.45679  -0.45183
 Alpha  occ. eigenvalues --   -0.43860  -0.43648  -0.42739  -0.42429  -0.42134
 Alpha  occ. eigenvalues --   -0.41632  -0.39459  -0.38822  -0.38354  -0.37861
 Alpha  occ. eigenvalues --   -0.37634  -0.37025  -0.36730  -0.35478  -0.34541
 Alpha  occ. eigenvalues --   -0.33593  -0.33162  -0.31556  -0.31025  -0.29933
 Alpha  occ. eigenvalues --   -0.29078  -0.28512  -0.27959  -0.27490  -0.27168
 Alpha  occ. eigenvalues --   -0.25121  -0.23788  -0.23296  -0.20078  -0.19017
 Alpha virt. eigenvalues --   -0.16182  -0.16014  -0.13585  -0.12738  -0.09660
 Alpha virt. eigenvalues --   -0.08485  -0.08076  -0.06939  -0.05448  -0.04925
 Alpha virt. eigenvalues --   -0.03586  -0.02772  -0.02300  -0.01232  -0.01124
 Alpha virt. eigenvalues --   -0.00450  -0.00236   0.00098   0.00283   0.00706
 Alpha virt. eigenvalues --    0.00968   0.01432   0.01729   0.02187   0.02384
 Alpha virt. eigenvalues --    0.02509   0.02857   0.03062   0.03475   0.03714
 Alpha virt. eigenvalues --    0.03884   0.04296   0.04651   0.04768   0.05060
 Alpha virt. eigenvalues --    0.05495   0.05618   0.06124   0.06491   0.06655
 Alpha virt. eigenvalues --    0.07204   0.07586   0.07714   0.07979   0.08023
 Alpha virt. eigenvalues --    0.08131   0.08534   0.08674   0.08881   0.09066
 Alpha virt. eigenvalues --    0.09397   0.09728   0.09897   0.10185   0.10341
 Alpha virt. eigenvalues --    0.10660   0.10908   0.11035   0.11352   0.11496
 Alpha virt. eigenvalues --    0.11578   0.11913   0.12109   0.12209   0.12305
 Alpha virt. eigenvalues --    0.12623   0.12942   0.13091   0.13451   0.13555
 Alpha virt. eigenvalues --    0.13745   0.13843   0.14028   0.14525   0.14646
 Alpha virt. eigenvalues --    0.14880   0.15016   0.15436   0.15537   0.15797
 Alpha virt. eigenvalues --    0.16059   0.16084   0.16250   0.16597   0.16779
 Alpha virt. eigenvalues --    0.17060   0.17575   0.17629   0.17945   0.18214
 Alpha virt. eigenvalues --    0.18284   0.18711   0.18786   0.19005   0.19436
 Alpha virt. eigenvalues --    0.19688   0.19847   0.20055   0.20363   0.20758
 Alpha virt. eigenvalues --    0.20835   0.21238   0.21655   0.21769   0.21963
 Alpha virt. eigenvalues --    0.22238   0.22467   0.22636   0.22807   0.23056
 Alpha virt. eigenvalues --    0.23178   0.23816   0.23966   0.24214   0.24542
 Alpha virt. eigenvalues --    0.24821   0.24905   0.24924   0.25294   0.25473
 Alpha virt. eigenvalues --    0.25878   0.25958   0.26179   0.26292   0.26702
 Alpha virt. eigenvalues --    0.26832   0.27128   0.27406   0.27502   0.27692
 Alpha virt. eigenvalues --    0.27896   0.28241   0.28590   0.28865   0.29022
 Alpha virt. eigenvalues --    0.29046   0.29252   0.29429   0.29874   0.30109
 Alpha virt. eigenvalues --    0.30523   0.30783   0.30993   0.31336   0.31603
 Alpha virt. eigenvalues --    0.32002   0.32211   0.32403   0.32602   0.32883
 Alpha virt. eigenvalues --    0.33151   0.33326   0.33399   0.33705   0.34132
 Alpha virt. eigenvalues --    0.34465   0.34686   0.34728   0.35168   0.35511
 Alpha virt. eigenvalues --    0.35819   0.36021   0.36391   0.36634   0.36748
 Alpha virt. eigenvalues --    0.37130   0.37575   0.37733   0.37963   0.38190
 Alpha virt. eigenvalues --    0.38486   0.38836   0.39295   0.39971   0.40352
 Alpha virt. eigenvalues --    0.40699   0.40809   0.41097   0.41900   0.42589
 Alpha virt. eigenvalues --    0.42936   0.43361   0.43804   0.44092   0.44536
 Alpha virt. eigenvalues --    0.45593   0.46119   0.46555   0.46759   0.47078
 Alpha virt. eigenvalues --    0.47443   0.48364   0.49152   0.49988   0.50545
 Alpha virt. eigenvalues --    0.50879   0.51390   0.52326   0.52977   0.53790
 Alpha virt. eigenvalues --    0.54473   0.55612   0.56060   0.61271   0.62572
 Alpha virt. eigenvalues --    0.62816   0.63794   0.65121   0.65745   0.66520
 Alpha virt. eigenvalues --    0.67125   0.67780   0.68680   0.68873   0.69861
 Alpha virt. eigenvalues --    0.70756   0.70849   0.71782   0.72066   0.72114
 Alpha virt. eigenvalues --    0.73379   0.73639   0.74101   0.74151   0.74903
 Alpha virt. eigenvalues --    0.75284   0.75711   0.76387   0.76600   0.76886
 Alpha virt. eigenvalues --    0.77471   0.77693   0.78325   0.78564   0.79117
 Alpha virt. eigenvalues --    0.79846   0.80298   0.80672   0.81335   0.81836
 Alpha virt. eigenvalues --    0.82453   0.82556   0.82791   0.83308   0.83473
 Alpha virt. eigenvalues --    0.84126   0.85134   0.86125   0.86238   0.86707
 Alpha virt. eigenvalues --    0.87025   0.87542   0.88028   0.88573   0.89159
 Alpha virt. eigenvalues --    0.90015   0.90477   0.91091   0.92030   0.92776
 Alpha virt. eigenvalues --    0.93271   0.94043   0.94712   0.94867   0.95473
 Alpha virt. eigenvalues --    0.95697   0.96337   0.97244   0.97955   0.98228
 Alpha virt. eigenvalues --    0.99127   1.00046   1.00566   1.00877   1.01565
 Alpha virt. eigenvalues --    1.01892   1.02942   1.03862   1.03981   1.05553
 Alpha virt. eigenvalues --    1.05631   1.06170   1.06379   1.07468   1.08033
 Alpha virt. eigenvalues --    1.08528   1.08903   1.09947   1.10916   1.11124
 Alpha virt. eigenvalues --    1.12368   1.13007   1.13399   1.14099   1.14450
 Alpha virt. eigenvalues --    1.14631   1.15282   1.16071   1.16700   1.17698
 Alpha virt. eigenvalues --    1.18354   1.19314   1.19655   1.19843   1.20247
 Alpha virt. eigenvalues --    1.21477   1.21835   1.22260   1.22833   1.23394
 Alpha virt. eigenvalues --    1.23947   1.24378   1.24770   1.25787   1.26478
 Alpha virt. eigenvalues --    1.27688   1.28108   1.28452   1.29043   1.30148
 Alpha virt. eigenvalues --    1.30661   1.31158   1.31881   1.32402   1.33071
 Alpha virt. eigenvalues --    1.33297   1.33708   1.34027   1.34672   1.35513
 Alpha virt. eigenvalues --    1.36369   1.36658   1.38147   1.38887   1.39829
 Alpha virt. eigenvalues --    1.40219   1.41409   1.41633   1.41986   1.42950
 Alpha virt. eigenvalues --    1.43588   1.44534   1.45757   1.46348   1.47322
 Alpha virt. eigenvalues --    1.48367   1.48551   1.48845   1.50437   1.51873
 Alpha virt. eigenvalues --    1.52650   1.53127   1.53627   1.54641   1.55922
 Alpha virt. eigenvalues --    1.57107   1.58511   1.58717   1.59116   1.59565
 Alpha virt. eigenvalues --    1.61331   1.63108   1.63868   1.64538   1.65924
 Alpha virt. eigenvalues --    1.67450   1.67981   1.68477   1.70365   1.70746
 Alpha virt. eigenvalues --    1.71821   1.72449   1.73360   1.74622   1.74881
 Alpha virt. eigenvalues --    1.75222   1.76211   1.77078   1.77760   1.80347
 Alpha virt. eigenvalues --    1.81072   1.81683   1.83073   1.83501   1.84273
 Alpha virt. eigenvalues --    1.85076   1.85415   1.86181   1.87900   1.88112
 Alpha virt. eigenvalues --    1.89411   1.89881   1.90758   1.91719   1.92521
 Alpha virt. eigenvalues --    1.93135   1.94248   1.94527   1.95070   1.96364
 Alpha virt. eigenvalues --    1.97105   1.97287   1.97936   1.99062   2.00641
 Alpha virt. eigenvalues --    2.01573   2.01932   2.02762   2.03293   2.03992
 Alpha virt. eigenvalues --    2.05866   2.07145   2.08137   2.08777   2.09014
 Alpha virt. eigenvalues --    2.09585   2.10193   2.10981   2.12399   2.12833
 Alpha virt. eigenvalues --    2.14054   2.14772   2.15214   2.16267   2.16958
 Alpha virt. eigenvalues --    2.18109   2.19134   2.20317   2.20557   2.21205
 Alpha virt. eigenvalues --    2.22457   2.22818   2.23297   2.24074   2.25291
 Alpha virt. eigenvalues --    2.26064   2.26864   2.27385   2.28527   2.29086
 Alpha virt. eigenvalues --    2.29659   2.31006   2.31862   2.32940   2.33543
 Alpha virt. eigenvalues --    2.35197   2.35591   2.36983   2.37020   2.38720
 Alpha virt. eigenvalues --    2.39415   2.40322   2.41746   2.42548   2.43035
 Alpha virt. eigenvalues --    2.43799   2.44675   2.45594   2.46393   2.46797
 Alpha virt. eigenvalues --    2.47338   2.47921   2.48234   2.48867   2.49939
 Alpha virt. eigenvalues --    2.50677   2.51247   2.51530   2.51876   2.52526
 Alpha virt. eigenvalues --    2.54688   2.54938   2.55640   2.56689   2.58178
 Alpha virt. eigenvalues --    2.59431   2.60188   2.61883   2.62191   2.62992
 Alpha virt. eigenvalues --    2.63412   2.64844   2.66490   2.66916   2.67926
 Alpha virt. eigenvalues --    2.68559   2.69608   2.70464   2.72276   2.73023
 Alpha virt. eigenvalues --    2.73956   2.75496   2.75891   2.77078   2.78386
 Alpha virt. eigenvalues --    2.80151   2.80673   2.81221   2.81456   2.82924
 Alpha virt. eigenvalues --    2.84281   2.85316   2.86167   2.88390   2.89748
 Alpha virt. eigenvalues --    2.90443   2.90907   2.92882   2.94569   2.95206
 Alpha virt. eigenvalues --    2.96181   2.97088   3.00539   3.02144   3.03409
 Alpha virt. eigenvalues --    3.04941   3.07531   3.09937   3.13059   3.15311
 Alpha virt. eigenvalues --    3.16203   3.19188   3.21611   3.21781   3.25853
 Alpha virt. eigenvalues --    3.27704   3.31029   3.42269   3.43852   3.48251
 Alpha virt. eigenvalues --    3.53266   3.54061   3.59918   3.63139   3.68771
 Alpha virt. eigenvalues --    3.96835   4.16247   4.21985   4.25344   4.28442
 Alpha virt. eigenvalues --    4.30929   4.35181   4.36687   4.37772   4.40061
 Alpha virt. eigenvalues --    4.43669   4.45789   4.47605   4.47885   4.50943
 Alpha virt. eigenvalues --    4.52481   4.54119   4.55930   4.57642   4.58931
 Alpha virt. eigenvalues --    4.60073   4.62369   4.66799   4.68792   4.72178
 Alpha virt. eigenvalues --    4.73397   4.75798   4.77425   4.83528   4.90159
 Alpha virt. eigenvalues --    4.99745
          Condensed to atoms (all electrons):
              1          2          3          4          5          6
     1  Si  20.215812  -0.163691  -0.454157   0.945539   2.312802  -0.092099
     2  H   -0.163691   1.040751   0.012217   0.251091  -0.149841   0.023543
     3  H   -0.454157   0.012217   0.956074   0.191660  -0.541804   0.002172
     4  C    0.945539   0.251091   0.191660  44.468142 -26.741684  -7.300250
     5  C    2.312802  -0.149841  -0.541804 -26.741684  40.378950  -1.573832
     6  C   -0.092099   0.023543   0.002172  -7.300250  -1.573832  36.888299
     7  C   -0.120198   0.001565   0.001039   0.827112  -3.053905   8.091077
     8  C   -0.799818   0.044040   0.039159  -6.366444   4.193624  -5.956586
     9  C   -0.790161   0.056641   0.058617  -3.470704   0.262017   1.464153
    10  N    0.251003  -0.016675  -0.018435   0.578631   0.143829  -0.592513
    11  C   -0.749713  -0.178920   0.042995  -0.143748  -0.165507  -1.226247
    12  C   -0.304353   0.035892   0.058828   0.339029  -0.741878   0.646965
    13  C    1.208971   0.031407  -0.069860   1.326765   0.757364  -0.033288
    14  N   -0.042661  -0.004194  -0.001355  -0.187358   0.052031  -0.015975
    15  S    0.048647  -0.004904  -0.005504   0.034808  -0.057448  -0.075165
    16  N    0.098242  -0.002367  -0.004996   0.482892  -0.216398  -0.097504
    17  C   -0.300072   0.031282   0.008857   0.340930  -1.966683  -1.911584
    18  C    0.046997  -0.008069  -0.000274  -0.812486   0.947975  -4.066182
    19  C   -0.033887   0.004597   0.000224  -0.999745   0.703697   0.217284
    20  O    0.001099  -0.000029  -0.000009  -0.016348   0.020541  -0.020112
    21  C    0.042500  -0.002524  -0.001099   0.290655   0.082939  -1.711299
    22  C   -0.084388  -0.005067  -0.004658  -0.606060  -1.587464   4.537577
    23  C    0.016369  -0.011508  -0.031272   1.170224   1.546929 -15.180600
    24  C   -0.069791  -0.007201   0.083113   2.536528  -1.285560  -4.907472
    25  C    0.164019   0.000012  -0.001566   1.187914   2.018574  -3.656548
    26  N   -0.002170   0.000337   0.002118  -0.018750  -0.059434   0.127939
    27  C    0.231627  -0.027964  -0.092328  -0.251716  -0.182986   0.032003
    28  C   -0.215028   0.013363   0.051010   0.138410   0.007140  -0.331781
    29  C    0.175313  -0.009598  -0.028648  -0.114576   0.057930   0.226334
    30  O   -0.003386   0.000531  -0.006396   0.018752  -0.036495  -0.014126
    31  C   -0.701226   0.060720   0.154336  -5.300888   1.806897   5.960133
    32  C   -0.313595   0.068248   0.399441   3.655393  -2.310900   0.126459
    33  C   -1.994040  -0.050039  -0.215160  -0.682756  -4.018812  -3.798066
    34  C   -2.011501   0.252087   0.361838   3.186637  -4.817920  -0.775701
    35  H   -0.060290  -0.008814   0.004580   1.178501  -0.759740  -0.362377
    36  H    0.001073  -0.000744  -0.000504   0.189237  -0.239349   0.088111
    37  H    0.039980  -0.015403   0.000966   0.155600  -0.121447  -0.158651
    38  H    0.128662  -0.010398  -0.003897  -0.028833   0.072138   0.004296
    39  H   -0.015723   0.000567   0.000431  -0.071947   0.001595   0.030142
    40  H    0.000076  -0.000022  -0.000005  -0.001597  -0.001915  -0.052205
    41  H    0.003131   0.000005  -0.000096   0.018516   0.056916  -0.104861
    42  H   -0.001902   0.000104   0.000719  -0.001320   0.000736   0.000275
    43  H    0.006963  -0.000296  -0.000534  -0.002244  -0.000152   0.005296
    44  H   -2.505230  -0.221927   0.044514  -3.887375   0.737824   0.225473
              7          8          9         10         11         12
     1  Si  -0.120198  -0.799818  -0.790161   0.251003  -0.749713  -0.304353
     2  H    0.001565   0.044040   0.056641  -0.016675  -0.178920   0.035892
     3  H    0.001039   0.039159   0.058617  -0.018435   0.042995   0.058828
     4  C    0.827112  -6.366444  -3.470704   0.578631  -0.143748   0.339029
     5  C   -3.053905   4.193624   0.262017   0.143829  -0.165507  -0.741878
     6  C    8.091077  -5.956586   1.464153  -0.592513  -1.226247   0.646965
     7  C   15.585299  -4.360027  -0.331356  -0.095488  -0.524537   0.440510
     8  C   -4.360027  24.440936   0.043643  -1.112579   0.595151  -0.843194
     9  C   -0.331356   0.043643  17.427779  -0.792957  -2.440161   3.156788
    10  N   -0.095488  -1.112579  -0.792957   7.929357   0.268702  -0.817470
    11  C   -0.524537   0.595151  -2.440161   0.268702  12.634499  -5.424273
    12  C    0.440510  -0.843194   3.156788  -0.817470  -5.424273  21.225159
    13  C    0.587503   2.216006  -6.835021  -1.081153   1.777912  -2.123308
    14  N   -0.052510  -0.123451   0.294901   0.048980   0.106673  -0.611856
    15  S   -0.083646  -0.474834   0.072128   0.105435   0.034063  -0.897997
    16  N    0.067202  -0.041922  -0.450235   0.148518   0.065224  -0.015168
    17  C   -2.337480  -6.814434   0.263433   1.613225   0.175308  -8.589317
    18  C   -5.024559   2.760215  -0.429626  -0.419321  -0.090948   0.041149
    19  C   -1.800321  -0.583255   1.100251   0.012705  -0.013894   0.020269
    20  O   -0.070020   0.137709   0.038233   0.010028  -0.001096   0.001702
    21  C   -1.687290   1.060252  -0.142993   0.048374   0.117820  -0.052072
    22  C    6.902472  -1.427571  -0.520352   0.029527   0.079465   0.034384
    23  C   -5.486724   2.814558  -1.350673   0.446118   0.542703  -0.532357
    24  C   -3.492379  -0.137471  -0.302950  -0.162779   0.541912  -0.491098
    25  C   -1.018287  -0.211403  -0.245165   0.091621   0.056363  -0.042675
    26  N    0.003749   0.007168   0.002848  -0.000308  -0.000587  -0.000516
    27  C   -0.007233  -0.031723   0.004612  -0.014893  -0.020841   0.045447
    28  C    0.020225   0.029678  -0.008404  -0.000006   0.005666  -0.004338
    29  C   -0.010387  -0.018177   0.013256  -0.002129  -0.006003   0.003243
    30  O    0.001502  -0.001090  -0.002531  -0.000323  -0.004322   0.002143
    31  C    0.025605   0.176217   0.706290  -0.161373  -0.340123   0.324521
    32  C   -0.543082  -1.310774   1.164200  -0.232513  -0.454178   0.408569
    33  C    2.486175   0.284537  -0.395771   0.195516   0.255846   0.337011
    34  C    0.284962  -1.699257  -0.910277   0.704912  -1.322923   1.325419
    35  H    0.165467  -0.029065  -0.326695  -0.046600   0.064583   0.159783
    36  H    0.845215  -0.234972  -0.081349   0.009178  -0.021540   0.020698
    37  H   -0.030726  -0.003319  -0.180862  -0.028585   0.596038  -0.134724
    38  H   -0.004337  -0.003672   0.069669  -0.006131  -0.268613   0.642137
    39  H    0.060934  -0.118473   0.047224  -0.009003   0.010510  -0.007060
    40  H   -0.032922   0.004919  -0.035206  -0.004298   0.001112  -0.000370
    41  H   -0.028002  -0.028456  -0.008121   0.001401  -0.000260  -0.000297
    42  H    0.000398   0.000308  -0.000004  -0.000029  -0.000033   0.000077
    43  H   -0.000243  -0.000434   0.000397  -0.000042   0.000135  -0.000273
    44  H   -0.150060   0.200847   0.431349   0.029694   1.399209  -1.326054
             13         14         15         16         17         18
     1  Si   1.208971  -0.042661   0.048647   0.098242  -0.300072   0.046997
     2  H    0.031407  -0.004194  -0.004904  -0.002367   0.031282  -0.008069
     3  H   -0.069860  -0.001355  -0.005504  -0.004996   0.008857  -0.000274
     4  C    1.326765  -0.187358   0.034808   0.482892   0.340930  -0.812486
     5  C    0.757364   0.052031  -0.057448  -0.216398  -1.966683   0.947975
     6  C   -0.033288  -0.015975  -0.075165  -0.097504  -1.911584  -4.066182
     7  C    0.587503  -0.052510  -0.083646   0.067202  -2.337480  -5.024559
     8  C    2.216006  -0.123451  -0.474834  -0.041922  -6.814434   2.760215
     9  C   -6.835021   0.294901   0.072128  -0.450235   0.263433  -0.429626
[...]
    22  C    4.843087   3.492452   2.596650   3.308988   3.897323
    23  C    1.380177   2.592452   3.502378   3.814293   3.504972
    24  C    2.510732   3.906176   4.840340   4.995192   4.552601
    25  C    3.811603   5.068474   5.956058   6.073885   5.414265
    26  N    4.949809   6.292247   7.179263   7.198491   6.491379
    27  C    5.144954   6.607887   7.501956   7.435861   6.833255
    28  C    6.478989   7.964644   8.836318   8.685665   8.068473
    29  C    6.538282   8.040667   8.888697   8.690811   8.210767
    30  O    5.393343   6.879687   7.721210   7.557864   7.214850
    31  C    4.372060   5.874534   6.764810   6.693008   6.277687
    32  C    2.981510   4.482513   5.400523   5.438670   5.158739
    33  C    2.526546   3.898186   4.753379   4.818979   4.855991
    34  C    3.476206   4.559398   5.228774   5.192568   5.469584
    35  H    3.230552   3.582601   3.732047   3.582588   4.300426
    36  H    2.213901   1.086611   2.083932   3.471954   4.106075
    37  H    4.827933   5.074255   4.497136   3.272388   2.074941
    38  H    6.216725   6.277747   5.404230   3.915376   3.420649
    39  H    5.026255   3.683240   3.076424   3.972102   5.216995
    40  H    6.983461   5.554435   4.733728   5.424490   6.045518
    41  H    4.095355   5.121282   5.944980   6.133448   5.398394
    42  H    7.405325   8.869714   9.735019   9.572996   8.874196
    43  H    7.451265   8.945472   9.769053   9.524148   9.080142
    44  H    4.519742   5.615090   6.205993   6.024237   6.245839
                   11         12         13         14         15
    11  C    0.000000
    12  C    1.372390   0.000000
    13  C    2.375572   1.421400   0.000000
    14  N    3.656913   2.477812   1.341362   0.000000
    15  S    4.701259   3.801416   2.397703   1.645368   0.000000
    16  N    4.067971   3.639170   2.332827   2.519337   1.642497
    17  C    2.736321   2.471723   1.446132   2.330769   2.392586
    18  C    4.648766   5.128077   4.512543   5.359135   4.863852
    19  C    5.749249   5.996697   5.117477   5.679670   4.808593
    20  O    6.563150   6.795519   5.967427   6.468318   5.623584
    21  C    6.135167   6.537170   5.969515   6.660121   6.137452
    22  C    4.958342   5.527698   5.126482   6.019102   5.720550
    23  C    4.501017   5.596491   5.831377   7.015359   7.214377
    24  C    5.298980   6.361146   6.726684   7.867332   8.170170
    25  C    6.041347   7.212346   7.777494   8.977098   9.416751
    26  N    6.952364   8.057890   8.697375   9.849202  10.364740
    27  C    7.202229   8.146325   8.706691   9.745042  10.233819
    28  C    8.297932   9.143931   9.740401  10.699899  11.243941
    29  C    8.398233   9.079360   9.549490  10.380202  10.854258
    30  O    7.487729   8.116834   8.446450   9.246925   9.610292
    31  C    6.685049   7.491143   7.875378   8.820780   9.191984
    32  C    5.753498   6.586051   6.833505   7.815537   8.064488
    33  C    5.507360   6.131008   6.104035   6.950767   7.002011
    34  C    5.988993   6.304073   6.041236   6.630578   6.522546
    35  H    4.864556   4.896854   4.216267   4.667069   4.282040
    36  H    5.458916   6.248961   5.848216   6.819579   6.369433
    37  H    1.086599   2.139559   3.379060   4.590809   5.747847
    38  H    2.156621   1.084019   2.188590   2.801965   4.357201
    39  H    6.234841   6.337570   5.291145   5.666935   4.544466
    40  H    6.955946   7.349219   6.835346   7.482240   6.987738
    41  H    6.082710   7.354282   7.975278   9.239793   9.699641
    42  H    9.057181   9.940792  10.623810  11.608687  12.218410
    43  H    9.193506   9.772756  10.215228  10.955178  11.428212
    44  H    6.584756   6.768037   6.536335   6.992084   6.952496
                   16         17         18         19         20
    16  N    0.000000
    17  C    1.337471   0.000000
    18  C    3.318722   3.192238   0.000000
    19  C    3.388941   3.773829   1.371203   0.000000
    20  O    4.400086   4.761093   2.256373   1.363450   0.000000
    21  C    4.892286   4.886273   2.253028   2.205117   1.389816
    22  C    4.344163   4.037125   1.435502   2.221496   2.230231
    23  C    5.851803   5.047050   4.798436   5.905363   6.976454
    24  C    6.929229   6.112505   6.177524   7.250684   8.354273
    25  C    8.190773   7.268829   7.207682   8.363367   9.365553
    26  N    9.234424   8.308072   8.474843   9.614839  10.648626
    27  C    9.218630   8.378396   8.888833   9.944155  11.081912
    28  C   10.346201   9.525907  10.250937  11.280953  12.449061
    29  C   10.068234   9.363241  10.339378  11.268324  12.508995
    30  O    8.801849   8.176322   9.172493  10.035865  11.307130
    31  C    8.219439   7.499977   8.194678   9.145733  10.362839
    32  C    6.975395   6.297138   6.818979   7.748054   8.969858
    33  C    5.945304   5.467402   6.162728   6.923127   8.221011
    34  C    5.687662   5.468188   6.568272   7.107844   8.461271
    35  H    3.415080   3.464942   4.890914   5.245343   6.593221
    36  H    4.738395   4.518721   2.596756   3.278018   4.310395
    37  H    5.153055   3.820101   5.460933   6.649104   7.407780
    38  H    4.518046   3.465856   6.179978   7.019917   7.762340
    39  H    3.218529   3.935228   2.247615   1.080625   2.079498
    40  H    5.852986   5.848270   3.323943   3.192116   2.087386
    41  H    8.410410   7.435827   7.060642   8.274099   9.155661
    42  H   11.323263  10.452817  11.129086  12.200661  13.333487
    43  H   10.745445  10.093967  11.229229  12.111217  13.379718
    44  H    6.335087   6.146369   7.547405   8.053202   9.411921
                   21         22         23         24         25
    21  C    0.000000
    22  C    1.343452   0.000000
    23  C    6.732383   5.497951   0.000000
    24  C    8.127783   6.888274   1.395840   0.000000
    25  C    8.978095   7.715243   2.499184   1.442431   0.000000
    26  N   10.279552   9.008882   3.712642   2.445804   1.312293
    27  C   10.855887   9.594470   4.134322   2.746605   2.271606
    28  C   12.253700  10.988865   5.540449   4.158756   3.663826
    29  C   12.451285  11.218723   5.842633   4.532165   4.450879
    30  O   11.334408  10.137621   4.894569   3.715251   4.059088
    31  C   10.287839   9.065243   3.672004   2.402295   2.720293
    32  C    8.931927   7.735082   2.447244   1.460324   2.493749
    33  C    8.374320   7.265043   2.714179   2.425579   3.748325
    34  C    8.818463   7.818041   4.034393   3.894908   5.200419
    35  H    7.083765   6.220979   4.328674   4.887321   6.306156
    36  H    4.408322   3.553670   3.151415   4.399379   5.468910
    37  H    6.840926   5.618148   4.641807   5.260955   5.760837
    38  H    7.472038   6.500634   6.460487   7.095069   7.848977
    39  H    3.206803   3.291650   6.258466   7.530639   8.747798
    40  H    1.077824   2.244562   7.655453   9.044774   9.812660
    41  H    8.629928   7.377195   2.727810   2.172923   1.086142
    42  H   13.069759  11.790745   6.373381   4.993832   4.251850
    43  H   13.376619  12.157058   6.843435   5.564819   5.529451
    44  H    9.797890   8.801816   4.969562   4.649055   5.834498
                   26         27         28         29         30
    26  N    0.000000
    27  C    1.361713   0.000000
    28  C    2.542308   1.438501   0.000000
    29  C    3.570269   2.232834   1.360368   0.000000
    30  O    3.567846   2.268985   2.271010   1.380860   0.000000
    31  C    2.433163   1.396928   2.261682   2.189627   1.362591
    32  C    2.901106   2.451213   3.612179   3.562503   2.478446
    33  C    4.309558   3.812422   4.823798   4.469392   3.156495
    34  C    5.655097   4.955593   5.717099   5.042160   3.662527
    35  H    7.096503   6.710583   7.672670   7.157086   5.803100
    36  H    6.703522   7.085587   8.457191   8.574282   7.434315
    37  H    6.576666   6.913444   7.959701   8.186129   7.425722
    38  H    8.584199   8.626672   9.514559   9.433019   8.558335
    39  H    9.952319  10.149789  11.435154  11.300784  10.012431
    40  H   11.118766  11.764663  13.174231  13.425370  12.336765
    41  H    2.048834   3.254178   4.571525   5.472817   5.142243
    42  H    2.983465   2.263934   1.080182   2.185437   3.311519
    43  H    4.624988   3.303321   2.240064   1.078756   2.081535
    44  H    6.087970   5.187928   5.695135   4.802296   3.479156
                   31         32         33         34         35
    31  C    0.000000
    32  C    1.403850   0.000000
    33  C    2.566035   1.417099   0.000000
    34  C    3.585363   2.773764   1.475468   0.000000
    35  H    5.469970   4.338259   3.016282   2.338984   0.000000
    36  H    6.405132   5.030239   4.492600   5.160539   4.317570
    37  H    6.588059   5.817567   5.826778   6.466100   5.665858
    38  H    8.025334   7.258078   6.873607   6.994633   5.714166
    39  H    9.233757   7.839887   6.860430   6.836860   4.890325
    40  H   11.257762   9.915907   9.410169   9.887527   8.159322
    41  H    3.806025   3.468673   4.596518   6.065054   6.905272
    42  H    3.313084   4.621211   5.878853   6.796844   8.729262
    43  H    3.181613   4.495941   5.230173   5.564200   7.737997
    44  H    3.797969   3.356157   2.321344   1.084843   2.999692
                   36         37         38         39         40
    36  H    0.000000
    37  H    6.068350   0.000000
    38  H    7.318434   2.504123   0.000000
    39  H    3.588789   7.201383   7.346643   0.000000
    40  H    5.358522   7.596372   8.226291   4.115976   0.000000
    41  H    5.439959   5.733130   8.007822   8.776934   9.384284
    42  H    9.339262   8.622347  10.259555  12.400889  13.958106
    43  H    9.489687   8.996861  10.063458  12.083358  14.368126
    44  H    6.239953   7.015938   7.333070   7.729692  10.871218
                   41         42         43         44
    41  H    0.000000
    42  H    5.008525   0.000000
    43  H    6.548898   2.744288   0.000000
    44  H    6.777375   6.760052   5.130256   0.000000
 Stoichiometry    C24H12N4O2SSi
 Framework group  C1[X(C24H12N4O2SSi)]
 Deg. of freedom   126
 Full point group                 C1      NOp   1
 Largest Abelian subgroup         C1      NOp   1
 Largest concise Abelian subgroup C1      NOp   1
                         Standard orientation:                         
 ---------------------------------------------------------------------
 Center     Atomic      Atomic             Coordinates (Angstroms)
 Number     Number       Type             X           Y           Z
 ---------------------------------------------------------------------
      1         14           0       -1.136793   -1.218134   -3.596224
      2          1           0       -1.180945   -2.481562   -4.357849
      3          1           0       -2.003909   -0.134469   -4.075021
      4          6           0       -0.589668   -1.271331   -1.806982
      5          6           0       -1.075853    0.013882   -1.099592
      6          6           0       -0.508480    1.173494   -0.552502
      7          6           0        0.888098    1.652992   -0.835847
      8          6           0        1.988724    1.244642   -0.194025
      9          6           0        2.008691    0.236577    0.903835
     10          7           0        1.338721    0.477254    2.009988
     11          6           0        1.381473   -0.414366    3.057235
     12          6           0        2.101664   -1.582502    3.072567
     13          6           0        2.829819   -1.893634    1.892158
     14          7           0        3.555133   -2.995078    1.647222
     15         16           0        4.131204   -2.838790    0.113941
     16          7           0        3.463951   -1.395233   -0.296804
     17          6           0        2.784915   -0.975065    0.776134
     18          6           0        3.286497    1.913259   -0.487348
     19          6           0        4.181259    1.689844   -1.502081
     20          8           0        5.294878    2.462932   -1.356534
     21          6           0        5.104746    3.212722   -0.201868
     22          6           0        3.933524    2.872970    0.361755
     23          6           0       -1.444967    1.735271    0.291469
     24          6           0       -2.808629    1.462580    0.411614
     25          6           0       -3.710622    2.258825    1.207233
     26          7           0       -4.959635    1.951973    1.467846
     27          6           0       -5.407863    0.768570    0.964944
     28          6           0       -6.673006    0.104290    1.130568
     29          6           0       -6.571848   -1.062881    0.439135
     30          8           0       -5.334676   -1.201505   -0.158329
     31          6           0       -4.635980   -0.077184    0.164753
     32          6           0       -3.317013    0.237273   -0.198890
     33          6           0       -2.371535   -0.480522   -0.972849
     34          6           0       -2.043821   -1.736549   -1.674280
     35          1           0        0.284541   -1.821292   -1.468382
     36          1           0        0.990440    2.436677   -1.581560
     37          1           0        0.780186   -0.125964    3.915124
     38          1           0        2.111481   -2.246834    3.929108
     39          1           0        4.190210    0.993271   -2.328190
     40          1           0        5.885487    3.924385    0.011865
     41          1           0       -3.324388    3.173063    1.648480
     42          1           0       -7.529624    0.452826    1.688708
     43          1           0       -7.255637   -1.879728    0.269117
     44          1           0       -2.581547   -2.678632   -1.688984
 ---------------------------------------------------------------------
 Rotational constants (GHZ):      0.2081219      0.0732450      0.0705450
 Standard basis: 6-31++G(d,p) (6D, 7F)
 There are   688 symmetry adapted basis functions of A   symmetry.
 Integral buffers will be    131072 words long.
 Raffenetti 2 integral format.
 Two-electron integral symmetry is turned on.
   688 basis functions,  1168 primitive gaussians,   688 cartesian basis functions
   115 alpha electrons      115 beta electrons
       nuclear repulsion energy      3189.2195747199 Hartrees.
 NAtoms=   44 NActive=   44 NUniq=   44 SFac= 1.00D+00 NAtFMM=   60 NAOKFM=F Big=F
 One-electron integrals computed using PRISM.
 NBasis=   688 RedAO= T  NBF=   688
 NBsUse=   679 1.00D-06 NBFU=   679
 Initial guess read from the read-write file.
 B after Tr=    -0.000000   -0.000000    0.000000
         Rot=    1.000000    0.000000    0.000000    0.000000 Ang=   0.00 deg.
 Initial guess orbital symmetries:
       Occupied  (A) (A) (A) (A) (A) (A) (A) (A) (A) (A) (A) (A)
                 (A) (A) (A) (A) (A) (A) (A) (A) (A) (A) (A) (A)
                 (A) (A) (A) (A) (A) (A) (A) (A) (A) (A) (A) (A)
                 (A) (A) (A) (A) (A) (A) (A) (A) (A) (A) (A) (A)
                 (A) (A) (A) (A) (A) (A) (A) (A) (A) (A) (A) (A)
                 (A) (A) (A) (A) (A) (A) (A) (A) (A) (A) (A) (A)
                 (A) (A) (A) (A) (A) (A) (A) (A) (A) (A) (A) (A)
                 (A) (A) (A) (A) (A) (A) (A) (A) (A) (A) (A) (A)
                 (A) (A) (A) (A) (A) (A) (A) (A) (A) (A) (A) (A)
                 (A) (A) (A) (A) (A) (A) (A)
       Virtual   (A) (A) (A) (A) (A) (A) (A) (A) (A) (A) (A) (A)
                 (A) (A) (A) (A) (A) (A) (A) (A) (A) (A) (A) (A)
                 (A) (A) (A) (A) (A) (A) (A) (A) (A) (A) (A) (A)
                 (A) (A) (A) (A) (A) (A) (A) (A) (A) (A) (A) (A)
                 (A) (A) (A) (A) (A) (A) (A) (A) (A) (A) (A) (A)
                 (A) (A) (A) (A) (A) (A) (A) (A) (A) (A) (A) (A)
                 (A) (A) (A) (A) (A) (A) (A) (A) (A) (A) (A) (A)
                 (A) (A) (A) (A) (A) (A) (A) (A) (A) (A) (A) (A)
                 (A) (A) (A) (A) (A) (A) (A) (A) (A) (A) (A) (A)
                 (A) (A) (A) (A) (A) (A) (A) (A) (A) (A) (A) (A)
                 (A) (A) (A) (A) (A) (A) (A) (A) (A) (A) (A) (A)
                 (A) (A) (A) (A) (A) (A) (A) (A) (A) (A) (A) (A)
                 (A) (A) (A) (A) (A) (A) (A) (A) (A) (A) (A) (A)
                 (A) (A) (A) (A) (A) (A) (A) (A) (A) (A) (A) (A)
                 (A) (A) (A) (A) (A) (A) (A) (A) (A) (A) (A) (A)
                 (A) (A) (A) (A) (A) (A) (A) (A) (A) (A) (A) (A)
                 (A) (A) (A) (A) (A) (A) (A) (A) (A) (A) (A) (A)
                 (A) (A) (A) (A) (A) (A) (A) (A) (A) (A) (A) (A)
                 (A) (A) (A) (A) (A) (A) (A) (A) (A) (A) (A) (A)
                 (A) (A) (A) (A) (A) (A) (A) (A) (A) (A) (A) (A)
                 (A) (A) (A) (A) (A) (A) (A) (A) (A) (A) (A) (A)
                 (A) (A) (A) (A) (A) (A) (A) (A) (A) (A) (A) (A)
                 (A) (A) (A) (A) (A) (A) (A) (A) (A) (A) (A) (A)
                 (A) (A) (A) (A) (A) (A) (A) (A) (A) (A) (A) (A)
                 (A) (A) (A) (A) (A) (A) (A) (A) (A) (A) (A) (A)
                 (A) (A) (A) (A) (A) (A) (A) (A) (A) (A) (A) (A)
                 (A) (A) (A) (A) (A) (A) (A) (A) (A) (A) (A) (A)
                 (A) (A) (A) (A) (A) (A) (A) (A) (A) (A) (A) (A)
                 (A) (A) (A) (A) (A) (A) (A) (A) (A) (A) (A) (A)
                 (A) (A) (A) (A) (A) (A) (A) (A) (A) (A) (A) (A)
                 (A) (A) (A) (A) (A) (A) (A) (A) (A) (A) (A) (A)
                 (A) (A) (A) (A) (A) (A) (A) (A) (A) (A) (A) (A)
                 (A) (A) (A) (A) (A) (A) (A) (A) (A) (A) (A) (A)
                 (A) (A) (A) (A) (A) (A) (A) (A) (A) (A) (A) (A)
                 (A) (A) (A) (A) (A) (A) (A) (A) (A) (A) (A) (A)
                 (A) (A) (A) (A) (A) (A) (A) (A) (A) (A) (A) (A)
                 (A) (A) (A) (A) (A) (A) (A) (A) (A) (A) (A) (A)
                 (A) (A) (A) (A) (A) (A) (A) (A) (A) (A) (A) (A)
                 (A) (A) (A) (A) (A) (A) (A) (A) (A) (A) (A) (A)
                 (A) (A) (A) (A) (A) (A) (A) (A) (A) (A) (A) (A)
                 (A) (A) (A) (A) (A) (A) (A) (A) (A) (A) (A) (A)
                 (A) (A) (A) (A) (A) (A) (A) (A) (A) (A) (A) (A)
                 (A) (A) (A) (A) (A) (A) (A) (A) (A) (A) (A) (A)
                 (A) (A) (A) (A) (A) (A) (A) (A) (A) (A) (A) (A)
                 (A) (A) (A) (A) (A) (A) (A) (A) (A) (A) (A) (A)
                 (A) (A) (A) (A) (A) (A) (A) (A) (A) (A) (A) (A)
                 (A) (A) (A) (A) (A) (A) (A) (A) (A) (A) (A) (A)
 Harris functional with IExCor=  402 diagonalized for initial guess.
 ExpMin= 3.31D-02 ExpMax= 2.19D+04 ExpMxC= 3.30D+03 IAcc=3 IRadAn=         5 AccDes= 0.00D+00
 HarFok:  IExCor=  402 AccDes= 0.00D+00 IRadAn=         5 IDoV= 1
 ScaDFX=  1.000000  1.000000  1.000000  1.000000
 FoFCou: FMM=F IPFlag=           0 FMFlag=      100000 FMFlg1=           0
         NFxFlg=           0 DoJE=T BraDBF=F KetDBF=T FulRan=T
         Omega=  0.000000  0.000000  1.000000  0.000000  0.000000 ICntrl=     500 IOpCl=  0
         NMat0=    1 NMatS0=    1 NMatT0=    0 NMatD0=    1 NMtDS0=    0 NMtDT0=    0
         I1Cent=           4 NGrid=           0.
 Petite list used in FoFCou.
 Requested convergence on RMS density matrix=1.00D-08 within 128 cycles.
 Requested convergence on MAX density matrix=1.00D-06.
 Requested convergence on             energy=1.00D-06.
 No special actions if energy rises.
 Restarting incremental Fock formation.
 Restarting incremental Fock formation.
 Restarting incremental Fock formation.
 Restarting incremental Fock formation.
 Restarting incremental Fock formation.
 Restarting incremental Fock formation.
 >>>>>>>>>> Convergence criterion not met.
 SCF Done:  E(RB3LYP) =  -1977.99670443     A.U. after  129 cycles
             Convg  =    0.6256D-03             -V/T =  2.0069
 Convergence failure -- run terminated.
 Error termination via Lnk1e in /opt/gaussian/g09/l502.exe at Sun Dec 29 09:14:32 2013.
 Job cpu time:  4 days 21 hours 57 minutes 42.9 seconds.
 File lengths (MBytes):  RWF=    303 Int=      0 D2E=      0 Chk=     35 Scr=      1
