 Entering Gaussian System, Link 0=g09
 Initial command:
 /opt/gaussian/g09/l1.exe /panfs/panfs.cluster/home/shuo/Gau-10030.inp -scrdir=/panfs/panfs.cluster/home/shuo/
 Default is to use a total of  12 processors:
                               12 via shared-memory
                                1 via Linda
 Entering Link 1 = /opt/gaussian/g09/l1.exe PID=     10031.
  
 Copyright (c) 1988,1990,1992,1993,1995,1998,2003,2009,2011,
            Gaussian, Inc.  All Rights Reserved.
  
 This is part of the Gaussian(R) 09 program.  It is based on
 the Gaussian(R) 03 system (copyright 2003, Gaussian, Inc.),
 the Gaussian(R) 98 system (copyright 1998, Gaussian, Inc.),
 the Gaussian(R) 94 system (copyright 1995, Gaussian, Inc.),
 the Gaussian 92(TM) system (copyright 1992, Gaussian, Inc.),
 the Gaussian 90(TM) system (copyright 1990, Gaussian, Inc.),
 the Gaussian 88(TM) system (copyright 1988, Gaussian, Inc.),
 the Gaussian 86(TM) system (copyright 1986, Carnegie Mellon
 University), and the Gaussian 82(TM) system (copyright 1983,
 Carnegie Mellon University). Gaussian is a federally registered
 trademark of Gaussian, Inc.
  
 This software contains proprietary and confidential information,
 including trade secrets, belonging to Gaussian, Inc.
  
 This software is provided under written license and may be
 used, copied, transmitted, or stored only in accord with that
 written license.
  
 The following legend is applicable only to US Government
 contracts under FAR:
  
                    RESTRICTED RIGHTS LEGEND
  
 Use, reproduction and disclosure by the US Government is
 subject to restrictions as set forth in subparagraphs (a)
 and (c) of the Commercial Computer Software - Restricted
 Rights clause in FAR 52.227-19.
  
 Gaussian, Inc.
 340 Quinnipiac St., Bldg. 40, Wallingford CT 06492
  
  
 ---------------------------------------------------------------
 Warning -- This program may not be used in any manner that
 competes with the business of Gaussian, Inc. or will provide
 assistance to any competitor of Gaussian, Inc.  The licensee
 of this program is prohibited from giving any competitor of
 Gaussian, Inc. access to this program.  By using this program,
 the user acknowledges that Gaussian, Inc. is engaged in the
 business of creating and licensing software in the field of
 computational chemistry and represents and warrants to the
 licensee that it is not a competitor of Gaussian, Inc. and that
 it will not use this program in any manner prohibited above.
 ---------------------------------------------------------------
  

 Cite this work as:
 Gaussian 09, Revision C.01,
 M. J. Frisch, G. W. Trucks, H. B. Schlegel, G. E. Scuseria, 
 M. A. Robb, J. R. Cheeseman, G. Scalmani, V. Barone, B. Mennucci, 
 G. A. Petersson, H. Nakatsuji, M. Caricato, X. Li, H. P. Hratchian, 
 A. F. Izmaylov, J. Bloino, G. Zheng, J. L. Sonnenberg, M. Hada, 
 M. Ehara, K. Toyota, R. Fukuda, J. Hasegawa, M. Ishida, T. Nakajima, 
 Y. Honda, O. Kitao, H. Nakai, T. Vreven, J. A. Montgomery, Jr., 
 J. E. Peralta, F. Ogliaro, M. Bearpark, J. J. Heyd, E. Brothers, 
 K. N. Kudin, V. N. Staroverov, T. Keith, R. Kobayashi, J. Normand, 
 K. Raghavachari, A. Rendell, J. C. Burant, S. S. Iyengar, J. Tomasi, 
 M. Cossi, N. Rega, J. M. Millam, M. Klene, J. E. Knox, J. B. Cross, 
 V. Bakken, C. Adamo, J. Jaramillo, R. Gomperts, R. E. Stratmann, 
 O. Yazyev, A. J. Austin, R. Cammi, C. Pomelli, J. W. Ochterski, 
 R. L. Martin, K. Morokuma, V. G. Zakrzewski, G. A. Voth, 
 P. Salvador, J. J. Dannenberg, S. Dapprich, A. D. Daniels, 
 O. Farkas, J. B. Foresman, J. V. Ortiz, J. Cioslowski, 
 and D. J. Fox, Gaussian, Inc., Wallingford CT, 2010.
 
 ******************************************
 Gaussian 09:  EM64L-G09RevC.01 23-Sep-2011
                29-Dec-2013 
 ******************************************
 %chk=60_C18H8N6S3Se.chk
 %NProcShared=12
 Will use up to   12 processors via shared memory.
 %Mem=8000MB
 Default route:  MaxDisk=100GB
 --------------------------------------------
 #B3LYP/6-31++G(d,p) opt scf=direct freq test
 --------------------------------------------
 1/14=-1,18=20,19=15,26=3,38=1/1,3;
 2/9=110,12=2,17=6,18=5,40=1/2;
 3/5=1,6=6,7=1111,11=2,16=1,25=1,30=1,71=1,74=-5/1,2,3;
 4//1;
 5/5=2,38=5/2;
 6/7=2,8=2,9=2,10=2,28=1/1;
 7//1,2,3,16;
 1/14=-1,18=20,19=15/3(2);
 2/9=110/2;
 99//99;
 2/9=110/2;
 3/5=1,6=6,7=1111,11=2,16=1,25=1,30=1,71=1,74=-5/1,2,3;
 4/5=5,16=3/1;
 5/5=2,38=5/2;
 7//1,2,3,16;
 1/14=-1,18=20,19=15/3(-5);
 2/9=110/2;
 6/7=2,8=2,9=2,10=2,19=2,28=1/1;
 99/9=1/99;
 ----------------------------------------------------------------------
 Geom opt of No.60 candidate from the CEPDB database with SMILE code of
  C1ccc2c1c(sc2-c1ncc(-c2nccs2)c2nsnc12)-c1[SiH2]ccc1, HPC, 20131227, S
 huo Dai, Gaussian09
 ----------------------------------------------------------------------
 Charge =  0 Multiplicity = 1
 Symbolic Z-Matrix:
 C                    -1.3919    1.41909   0.02236 
 C                    -2.25316   0.17169  -0.00819 
 C                    -1.47439  -0.93883  -0.02422 
 C                    -0.10519  -0.58091   0.01919 
 C                    -0.01787   0.84112   0.08388 
 C                     1.27111   1.26961   0.19233 
 S                     2.34974  -0.09431   0.16708 
 C                     1.11115  -1.2266    0.02809 
 C                     1.54946  -2.58859  -0.01357 
 N                     2.90152  -2.87346  -0.03195 
 C                     3.34425  -4.15777  -0.02699 
 C                     2.52845  -5.28616  -0.01127 
 C                     3.02625  -6.63921  -0.00737 
 N                     4.30326  -6.96359  -0.02358 
 C                     4.41884  -8.34035  -0.02315 
 C                     3.24118  -9.04487  -0.00512 
 S                     1.9457   -7.98315   0.01972 
 C                     1.13493  -5.0149    0.00087 
 N                     0.11849  -5.89183   0.00904 
 S                    -1.29925  -5.08988   0.03345 
 N                    -0.69185  -3.58805   0.04197 
 C                     0.64948  -3.64227   0.00611 
 C                     2.07885   2.51084   0.18144 
 Si                    2.56303   2.83815  -1.6829 
 H                     3.98514   2.45079  -1.81811 
 H                     1.60344   2.18276  -2.61855 
 C                     2.20066   4.62618  -1.50204 
 C                     1.91513   4.97197  -0.23567 
 C                     1.89038   3.88231   0.81995 
 H                    -1.60214   1.99832   0.92056 
 H                    -1.55419   1.99401  -0.89149 
 H                    -3.32523   0.12337  -0.0036 
 H                    -1.93321  -1.90493  -0.03228 
 H                     4.43525  -4.24414  -0.03596 
 H                     5.40014  -8.78682  -0.03782 
 H                     3.04071  -10.09988  -0.0029 
 H                     2.90111   2.18158   0.82691 
 H                     2.24033   5.27066  -2.36457 
 H                     1.776     6.00617   0.05549 
 H                     1.06789   3.96429   1.52933 
 H                     2.81705   4.05692   1.40042 
 

 GradGradGradGradGradGradGradGradGradGradGradGradGradGradGradGradGradGrad
 Berny optimization.
 Initialization pass.
                           ----------------------------
                           !    Initial Parameters    !
                           ! (Angstroms and Degrees)  !
 --------------------------                            --------------------------
 ! Name  Definition              Value          Derivative Info.                !
 --------------------------------------------------------------------------------
 ! R1    R(1,2)                  1.5161         estimate D2E/DX2                !
 ! R2    R(1,5)                  1.4919         estimate D2E/DX2                !
 ! R3    R(1,30)                 1.0893         estimate D2E/DX2                !
 ! R4    R(1,31)                 1.0918         estimate D2E/DX2                !
 ! R5    R(2,3)                  1.3565         estimate D2E/DX2                !
 ! R6    R(2,32)                 1.0732         estimate D2E/DX2                !
 ! R7    R(3,4)                  1.4159         estimate D2E/DX2                !
 ! R8    R(3,33)                 1.0695         estimate D2E/DX2                !
 ! R9    R(4,5)                  1.4262         estimate D2E/DX2                !
 ! R10   R(4,8)                  1.3771         estimate D2E/DX2                !
 ! R11   R(5,6)                  1.3627         estimate D2E/DX2                !
 ! R12   R(6,7)                  1.7391         estimate D2E/DX2                !
 ! R13   R(6,23)                 1.481          estimate D2E/DX2                !
 ! R14   R(7,8)                  1.6839         estimate D2E/DX2                !
 ! R15   R(8,9)                  1.4314         estimate D2E/DX2                !
 ! R16   R(9,10)                 1.3819         estimate D2E/DX2                !
 ! R17   R(9,22)                 1.3859         estimate D2E/DX2                !
 ! R18   R(10,11)                1.3585         estimate D2E/DX2                !
 ! R19   R(11,12)                1.3925         estimate D2E/DX2                !
 ! R20   R(11,34)                1.0945         estimate D2E/DX2                !
 ! R21   R(12,13)                1.4417         estimate D2E/DX2                !
 ! R22   R(12,18)                1.4197         estimate D2E/DX2                !
 ! R23   R(13,14)                1.3177         estimate D2E/DX2                !
 ! R24   R(13,17)                1.7247         estimate D2E/DX2                !
 ! R25   R(14,15)                1.3816         estimate D2E/DX2                !
 ! R26   R(15,16)                1.3724         estimate D2E/DX2                !
 ! R27   R(15,35)                1.0782         estimate D2E/DX2                !
 ! R28   R(16,17)                1.6752         estimate D2E/DX2                !
 ! R29   R(16,36)                1.0739         estimate D2E/DX2                !
 ! R30   R(18,19)                1.3425         estimate D2E/DX2                !
 ! R31   R(18,22)                1.456          estimate D2E/DX2                !
 ! R32   R(19,20)                1.629          estimate D2E/DX2                !
 ! R33   R(20,21)                1.62           estimate D2E/DX2                !
 ! R34   R(21,22)                1.3429         estimate D2E/DX2                !
 ! R35   R(23,24)                1.9538         estimate D2E/DX2                !
 ! R36   R(23,29)                1.5245         estimate D2E/DX2                !
 ! R37   R(23,37)                1.096          estimate D2E/DX2                !
 ! R38   R(24,25)                1.4801         estimate D2E/DX2                !
 ! R39   R(24,26)                1.4919         estimate D2E/DX2                !
 ! R40   R(24,27)                1.8333         estimate D2E/DX2                !
 ! R41   R(27,28)                1.3434         estimate D2E/DX2                !
 ! R42   R(27,38)                1.0774         estimate D2E/DX2                !
 ! R43   R(28,29)                1.5173         estimate D2E/DX2                !
 ! R44   R(28,39)                1.0834         estimate D2E/DX2                !
 ! R45   R(29,40)                1.0892         estimate D2E/DX2                !
 ! R46   R(29,41)                1.1073         estimate D2E/DX2                !
 ! A1    A(2,1,5)              101.8454         estimate D2E/DX2                !
 ! A2    A(2,1,30)             110.1501         estimate D2E/DX2                !
 ! A3    A(2,1,31)             109.3866         estimate D2E/DX2                !
 ! A4    A(5,1,30)             110.4731         estimate D2E/DX2                !
 ! A5    A(5,1,31)             112.0502         estimate D2E/DX2                !
 ! A6    A(30,1,31)            112.4265         estimate D2E/DX2                !
 ! A7    A(1,2,3)              110.3452         estimate D2E/DX2                !
 ! A8    A(1,2,32)             127.1882         estimate D2E/DX2                !
 ! A9    A(3,2,32)             122.4606         estimate D2E/DX2                !
 ! A10   A(2,3,4)              110.3573         estimate D2E/DX2                !
 ! A11   A(2,3,33)             119.558          estimate D2E/DX2                !
 ! A12   A(4,3,33)             130.047          estimate D2E/DX2                !
 ! A13   A(3,4,5)              108.2193         estimate D2E/DX2                !
 ! A14   A(3,4,8)              137.375          estimate D2E/DX2                !
 ! A15   A(5,4,8)              114.4018         estimate D2E/DX2                !
 ! A16   A(1,5,4)              109.1485         estimate D2E/DX2                !
 ! A17   A(1,5,6)              138.8208         estimate D2E/DX2                !
 ! A18   A(4,5,6)              112.0283         estimate D2E/DX2                !
 ! A19   A(5,6,7)              109.8114         estimate D2E/DX2                !
 ! A20   A(5,6,23)             141.1596         estimate D2E/DX2                !
 ! A21   A(7,6,23)             108.5986         estimate D2E/DX2                !
 ! A22   A(6,7,8)               94.1492         estimate D2E/DX2                !
 ! A23   A(4,8,7)              109.5681         estimate D2E/DX2                !
 ! A24   A(4,8,9)              135.7588         estimate D2E/DX2                !
 ! A25   A(7,8,9)              114.6447         estimate D2E/DX2                !
 ! A26   A(8,9,10)             119.7456         estimate D2E/DX2                !
 ! A27   A(8,9,22)             121.613          estimate D2E/DX2                !
 ! A28   A(10,9,22)            118.6102         estimate D2E/DX2                !
 ! A29   A(9,10,11)            120.9115         estimate D2E/DX2                !
 ! A30   A(10,11,12)           125.1138         estimate D2E/DX2                !
 ! A31   A(10,11,34)           113.5438         estimate D2E/DX2                !
 ! A32   A(12,11,34)           121.3424         estimate D2E/DX2                !
 ! A33   A(11,12,13)           123.9344         estimate D2E/DX2                !
 ! A34   A(11,12,18)           114.8542         estimate D2E/DX2                !
 ! A35   A(13,12,18)           121.2114         estimate D2E/DX2                !
 ! A36   A(12,13,14)           124.4462         estimate D2E/DX2                !
 ! A37   A(12,13,17)           120.9996         estimate D2E/DX2                !
 ! A38   A(14,13,17)           114.5543         estimate D2E/DX2                !
 ! A39   A(13,14,15)           109.0496         estimate D2E/DX2                !
 ! A40   A(14,15,16)           116.0885         estimate D2E/DX2                !
 ! A41   A(14,15,35)           119.26           estimate D2E/DX2                !
 ! A42   A(16,15,35)           124.6514         estimate D2E/DX2                !
 ! A43   A(15,16,17)           109.7818         estimate D2E/DX2                !
 ! A44   A(15,16,36)           131.6459         estimate D2E/DX2                !
 ! A45   A(17,16,36)           118.5722         estimate D2E/DX2                !
 ! A46   A(13,17,16)            90.5233         estimate D2E/DX2                !
 ! A47   A(12,18,19)           128.2001         estimate D2E/DX2                !
 ! A48   A(12,18,22)           120.4928         estimate D2E/DX2                !
 ! A49   A(19,18,22)           111.3071         estimate D2E/DX2                !
 ! A50   A(18,19,20)           109.7222         estimate D2E/DX2                !
 ! A51   A(19,20,21)            97.4781         estimate D2E/DX2                !
 ! A52   A(20,21,22)           109.6894         estimate D2E/DX2                !
 ! A53   A(9,22,18)            120.0146         estimate D2E/DX2                !
 ! A54   A(9,22,21)            128.1939         estimate D2E/DX2                !
 ! A55   A(18,22,21)           111.7893         estimate D2E/DX2                !
 ! A56   A(6,23,24)            106.4147         estimate D2E/DX2                !
 ! A57   A(6,23,29)            133.1164         estimate D2E/DX2                !
 ! A58   A(6,23,37)             98.8053         estimate D2E/DX2                !
 ! A59   A(24,23,29)           106.2352         estimate D2E/DX2                !
 ! A60   A(24,23,37)           115.2384         estimate D2E/DX2                !
 ! A61   A(29,23,37)            96.6816         estimate D2E/DX2                !
 ! A62   A(23,24,25)           106.3455         estimate D2E/DX2                !
 ! A63   A(23,24,26)           111.4352         estimate D2E/DX2                !
 ! A64   A(23,24,27)            91.1614         estimate D2E/DX2                !
 ! A65   A(25,24,26)           116.4702         estimate D2E/DX2                !
 ! A66   A(25,24,27)           117.0114         estimate D2E/DX2                !
 ! A67   A(26,24,27)           111.2956         estimate D2E/DX2                !
 ! A68   A(24,27,28)           112.7082         estimate D2E/DX2                !
 ! A69   A(24,27,38)           119.8101         estimate D2E/DX2                !
 ! A70   A(28,27,38)           127.4797         estimate D2E/DX2                !
 ! A71   A(27,28,29)           118.3219         estimate D2E/DX2                !
 ! A72   A(27,28,39)           121.7588         estimate D2E/DX2                !
 ! A73   A(29,28,39)           119.7671         estimate D2E/DX2                !
 ! A74   A(23,29,28)           110.6494         estimate D2E/DX2                !
 ! A75   A(23,29,40)           115.7107         estimate D2E/DX2                !
 ! A76   A(23,29,41)           104.9487         estimate D2E/DX2                !
 ! A77   A(28,29,40)           114.2901         estimate D2E/DX2                !
 ! A78   A(28,29,41)           103.7571         estimate D2E/DX2                !
 ! A79   A(40,29,41)           106.1797         estimate D2E/DX2                !
 ! D1    D(5,1,2,3)             -2.467          estimate D2E/DX2                !
 ! D2    D(5,1,2,32)           176.6433         estimate D2E/DX2                !
 ! D3    D(30,1,2,3)          -119.7019         estimate D2E/DX2                !
 ! D4    D(30,1,2,32)           59.4083         estimate D2E/DX2                !
 ! D5    D(31,1,2,3)           116.2478         estimate D2E/DX2                !
 ! D6    D(31,1,2,32)          -64.642          estimate D2E/DX2                !
 ! D7    D(2,1,5,4)              2.8922         estimate D2E/DX2                !
 ! D8    D(2,1,5,6)           -176.4523         estimate D2E/DX2                !
 ! D9    D(30,1,5,4)           119.8936         estimate D2E/DX2                !
 ! D10   D(30,1,5,6)           -59.4508         estimate D2E/DX2                !
 ! D11   D(31,1,5,4)          -113.9081         estimate D2E/DX2                !
 ! D12   D(31,1,5,6)            66.7474         estimate D2E/DX2                !
 ! D13   D(1,2,3,4)              1.1452         estimate D2E/DX2                !
 ! D14   D(1,2,3,33)           179.132          estimate D2E/DX2                !
 ! D15   D(32,2,3,4)          -178.0147         estimate D2E/DX2                !
 ! D16   D(32,2,3,33)           -0.0279         estimate D2E/DX2                !
 ! D17   D(2,3,4,5)              0.7846         estimate D2E/DX2                !
 ! D18   D(2,3,4,8)            179.9879         estimate D2E/DX2                !
 ! D19   D(33,3,4,5)          -176.9277         estimate D2E/DX2                !
 ! D20   D(33,3,4,8)             2.2756         estimate D2E/DX2                !
 ! D21   D(3,4,5,1)             -2.4139         estimate D2E/DX2                !
 ! D22   D(3,4,5,6)            177.1205         estimate D2E/DX2                !
 ! D23   D(8,4,5,1)            178.1785         estimate D2E/DX2                !
 ! D24   D(8,4,5,6)             -2.2871         estimate D2E/DX2                !
 ! D25   D(3,4,8,7)           -177.2987         estimate D2E/DX2                !
 ! D26   D(3,4,8,9)              0.5793         estimate D2E/DX2                !
 ! D27   D(5,4,8,7)              1.8703         estimate D2E/DX2                !
 ! D28   D(5,4,8,9)            179.7483         estimate D2E/DX2                !
 ! D29   D(1,5,6,7)           -179.0939         estimate D2E/DX2                !
 ! D30   D(1,5,6,23)            -7.9981         estimate D2E/DX2                !
 ! D31   D(4,5,6,7)              1.5742         estimate D2E/DX2                !
 ! D32   D(4,5,6,23)           172.67           estimate D2E/DX2                !
 ! D33   D(5,6,7,8)             -0.467          estimate D2E/DX2                !
 ! D34   D(23,6,7,8)          -174.5884         estimate D2E/DX2                !
 ! D35   D(5,6,23,24)          -89.1471         estimate D2E/DX2                !
 ! D36   D(5,6,23,29)           43.316          estimate D2E/DX2                !
 ! D37   D(5,6,23,37)          151.1543         estimate D2E/DX2                !
 ! D38   D(7,6,23,24)           82.0147         estimate D2E/DX2                !
 ! D39   D(7,6,23,29)         -145.5223         estimate D2E/DX2                !
 ! D40   D(7,6,23,37)          -37.684          estimate D2E/DX2                !
 ! D41   D(6,7,8,4)             -0.7999         estimate D2E/DX2                !
 ! D42   D(6,7,8,9)           -179.1712         estimate D2E/DX2                !
 ! D43   D(4,8,9,10)           177.8306         estimate D2E/DX2                !
 ! D44   D(4,8,9,22)            -4.2277         estimate D2E/DX2                !
 ! D45   D(7,8,9,10)            -4.3693         estimate D2E/DX2                !
 ! D46   D(7,8,9,22)           173.5725         estimate D2E/DX2                !
 ! D47   D(8,9,10,11)          177.8143         estimate D2E/DX2                !
 ! D48   D(22,9,10,11)          -0.189          estimate D2E/DX2                !
 ! D49   D(8,9,22,18)         -178.2483         estimate D2E/DX2                !
 ! D50   D(8,9,22,21)            1.1531         estimate D2E/DX2                !
 ! D51   D(10,9,22,18)          -0.2839         estimate D2E/DX2                !
 ! D52   D(10,9,22,21)         179.1175         estimate D2E/DX2                !
 ! D53   D(9,10,11,12)           0.3699         estimate D2E/DX2                !
 ! D54   D(9,10,11,34)        -179.5898         estimate D2E/DX2                !
 ! D55   D(10,11,12,13)        179.9507         estimate D2E/DX2                !
 ! D56   D(10,11,12,18)         -0.0412         estimate D2E/DX2                !
 ! D57   D(34,11,12,13)         -0.0925         estimate D2E/DX2                !
 ! D58   D(34,11,12,18)        179.9156         estimate D2E/DX2                !
 ! D59   D(11,12,13,14)         -0.2857         estimate D2E/DX2                !
 ! D60   D(11,12,13,17)        179.7185         estimate D2E/DX2                !
 ! D61   D(18,12,13,14)        179.7057         estimate D2E/DX2                !
 ! D62   D(18,12,13,17)         -0.2901         estimate D2E/DX2                !
 ! D63   D(11,12,18,19)        179.5722         estimate D2E/DX2                !
 ! D64   D(11,12,18,22)         -0.4367         estimate D2E/DX2                !
 ! D65   D(13,12,18,19)         -0.4199         estimate D2E/DX2                !
 ! D66   D(13,12,18,22)        179.5711         estimate D2E/DX2                !
 ! D67   D(12,13,14,15)       -179.5908         estimate D2E/DX2                !
 ! D68   D(17,13,14,15)          0.4052         estimate D2E/DX2                !
 ! D69   D(12,13,17,16)        179.502          estimate D2E/DX2                !
 ! D70   D(14,13,17,16)         -0.4942         estimate D2E/DX2                !
 ! D71   D(13,14,15,16)         -0.0775         estimate D2E/DX2                !
 ! D72   D(13,14,15,35)        179.8483         estimate D2E/DX2                !
 ! D73   D(14,15,16,17)         -0.2835         estimate D2E/DX2                !
 ! D74   D(14,15,16,36)        179.8378         estimate D2E/DX2                !
 ! D75   D(35,15,16,17)        179.7952         estimate D2E/DX2                !
 ! D76   D(35,15,16,36)         -0.0835         estimate D2E/DX2                !
 ! D77   D(15,16,17,13)          0.4135         estimate D2E/DX2                !
 ! D78   D(36,16,17,13)       -179.6897         estimate D2E/DX2                !
 ! D79   D(12,18,19,20)        179.562          estimate D2E/DX2                !
 ! D80   D(22,18,19,20)         -0.4297         estimate D2E/DX2                !
 ! D81   D(12,18,22,9)           0.6117         estimate D2E/DX2                !
 ! D82   D(12,18,22,21)       -178.8817         estimate D2E/DX2                !
 ! D83   D(19,18,22,9)        -179.3959         estimate D2E/DX2                !
 ! D84   D(19,18,22,21)          1.1108         estimate D2E/DX2                !
 ! D85   D(18,19,20,21)         -0.2539         estimate D2E/DX2                !
 ! D86   D(19,20,21,22)          0.9067         estimate D2E/DX2                !
 ! D87   D(20,21,22,9)         179.3006         estimate D2E/DX2                !
 ! D88   D(20,21,22,18)         -1.2576         estimate D2E/DX2                !
 ! D89   D(6,23,24,25)        -104.2029         estimate D2E/DX2                !
 ! D90   D(6,23,24,26)          23.6886         estimate D2E/DX2                !
 ! D91   D(6,23,24,27)         137.1547         estimate D2E/DX2                !
 ! D92   D(29,23,24,25)        109.9132         estimate D2E/DX2                !
 ! D93   D(29,23,24,26)       -122.1953         estimate D2E/DX2                !
 ! D94   D(29,23,24,27)         -8.7292         estimate D2E/DX2                !
 ! D95   D(37,23,24,25)          4.1754         estimate D2E/DX2                !
 ! D96   D(37,23,24,26)        132.0669         estimate D2E/DX2                !
 ! D97   D(37,23,24,27)       -114.467          estimate D2E/DX2                !
 ! D98   D(6,23,29,28)        -123.2857         estimate D2E/DX2                !
 ! D99   D(6,23,29,40)           8.732          estimate D2E/DX2                !
 ! D100  D(6,23,29,41)         125.3896         estimate D2E/DX2                !
 ! D101  D(24,23,29,28)          9.2348         estimate D2E/DX2                !
 ! D102  D(24,23,29,40)        141.2524         estimate D2E/DX2                !
 ! D103  D(24,23,29,41)       -102.0899         estimate D2E/DX2                !
 ! D104  D(37,23,29,28)        128.0015         estimate D2E/DX2                !
 ! D105  D(37,23,29,40)        -99.9809         estimate D2E/DX2                !
 ! D106  D(37,23,29,41)         16.6768         estimate D2E/DX2                !
 ! D107  D(23,24,27,28)          6.2238         estimate D2E/DX2                !
 ! D108  D(23,24,27,38)       -174.2493         estimate D2E/DX2                !
 ! D109  D(25,24,27,28)       -102.8198         estimate D2E/DX2                !
 ! D110  D(25,24,27,38)         76.7071         estimate D2E/DX2                !
 ! D111  D(26,24,27,28)        119.8153         estimate D2E/DX2                !
 ! D112  D(26,24,27,38)        -60.6578         estimate D2E/DX2                !
 ! D113  D(24,27,28,29)         -1.7297         estimate D2E/DX2                !
 ! D114  D(24,27,28,39)        173.7729         estimate D2E/DX2                !
 ! D115  D(38,27,28,29)        178.7875         estimate D2E/DX2                !
 ! D116  D(38,27,28,39)         -5.7098         estimate D2E/DX2                !
 ! D117  D(27,28,29,23)         -5.5066         estimate D2E/DX2                !
 ! D118  D(27,28,29,40)       -138.2503         estimate D2E/DX2                !
 ! D119  D(27,28,29,41)        106.584          estimate D2E/DX2                !
 ! D120  D(39,28,29,23)        178.8984         estimate D2E/DX2                !
 ! D121  D(39,28,29,40)         46.1547         estimate D2E/DX2                !
 ! D122  D(39,28,29,41)        -69.011          estimate D2E/DX2                !
 --------------------------------------------------------------------------------
 Trust Radius=3.00D-01 FncErr=1.00D-07 GrdErr=1.00D-06
 Number of steps in this run=    246 maximum allowed number of steps=    246.
 GradGradGradGradGradGradGradGradGradGradGradGradGradGradGradGradGradGrad

                          Input orientation:                          
 ---------------------------------------------------------------------
 Center     Atomic      Atomic             Coordinates (Angstroms)
 Number     Number       Type             X           Y           Z
 ---------------------------------------------------------------------
      1          6           0       -1.391900    1.419090    0.022360
      2          6           0       -2.253160    0.171690   -0.008190
      3          6           0       -1.474390   -0.938830   -0.024220
      4          6           0       -0.105190   -0.580910    0.019190
      5          6           0       -0.017870    0.841120    0.083880
      6          6           0        1.271110    1.269610    0.192330
      7         16           0        2.349740   -0.094310    0.167080
      8          6           0        1.111150   -1.226600    0.028090
      9          6           0        1.549460   -2.588590   -0.013570
     10          7           0        2.901520   -2.873460   -0.031950
     11          6           0        3.344250   -4.157770   -0.026990
     12          6           0        2.528450   -5.286160   -0.011270
     13          6           0        3.026250   -6.639210   -0.007370
     14          7           0        4.303260   -6.963590   -0.023580
     15          6           0        4.418840   -8.340350   -0.023150
     16          6           0        3.241180   -9.044870   -0.005120
     17         16           0        1.945700   -7.983150    0.019720
     18          6           0        1.134930   -5.014900    0.000870
     19          7           0        0.118490   -5.891830    0.009040
     20         16           0       -1.299250   -5.089880    0.033450
     21          7           0       -0.691850   -3.588050    0.041970
     22          6           0        0.649480   -3.642270    0.006110
     23          6           0        2.078850    2.510840    0.181440
     24         14           0        2.563030    2.838150   -1.682900
     25          1           0        3.985140    2.450790   -1.818110
     26          1           0        1.603440    2.182760   -2.618550
     27          6           0        2.200660    4.626180   -1.502040
     28          6           0        1.915130    4.971970   -0.235670
     29          6           0        1.890380    3.882310    0.819950
     30          1           0       -1.602140    1.998320    0.920560
     31          1           0       -1.554190    1.994010   -0.891490
     32          1           0       -3.325230    0.123370   -0.003600
     33          1           0       -1.933210   -1.904930   -0.032280
     34          1           0        4.435250   -4.244140   -0.035960
     35          1           0        5.400140   -8.786820   -0.037820
     36          1           0        3.040710  -10.099880   -0.002900
     37          1           0        2.901110    2.181580    0.826910
     38          1           0        2.240330    5.270660   -2.364570
     39          1           0        1.776000    6.006170    0.055490
     40          1           0        1.067890    3.964290    1.529330
     41          1           0        2.817050    4.056920    1.400420
 ---------------------------------------------------------------------
                    Distance matrix (angstroms):
                    1          2          3          4          5
     1  C    0.000000
     2  C    1.516149   0.000000
     3  C    2.359822   1.356464   0.000000
     4  C    2.378157   2.276166   1.415874   0.000000
     5  C    1.491909   2.335195   2.302468   1.426176   0.000000
     6  C    2.672612   3.696771   3.530138   2.312705   1.362657
     7  S    4.038712   4.613910   3.920941   2.507057   2.547063
     8  C    3.642110   3.643503   2.602031   1.377127   2.356537
     9  C    4.971357   4.698840   3.444632   2.601868   3.772125
    10  N    6.071441   5.987005   4.784500   3.781363   4.725924
    11  C    7.316756   7.076410   5.794901   4.969376   6.025367
    12  C    7.767281   7.256165   5.909499   5.392250   6.635990
    13  C    9.190056   8.617455   7.262945   6.819796   8.076530
    14  N   10.134411   9.690155   8.347393   7.757246   8.921727
    15  C   11.358408  10.815296   9.461113   8.982068  10.197806
    16  C   11.443804  10.729993   9.377892   9.101505  10.409713
    17  S    9.977059   9.172384   7.830798   7.681101   9.040324
    18  C    6.912421   6.195156   4.839786   4.604183   5.968987
    19  N    7.465320   6.510860   5.202940   5.315638   6.734747
    20  S    6.509639   5.347504   4.155143   4.664418   6.068051
    21  N    5.055878   4.071345   2.763171   3.063916   4.480352
    22  C    5.457551   4.792892   3.438071   3.153034   4.533452
    23  C    3.641886   4.926854   4.956615   3.788835   2.682111
    24  Si   4.534657   5.754159   5.772136   4.659021   3.710887
    25  H    5.776183   6.883785   6.671884   5.412733   4.715156
    26  H    4.065668   5.072647   5.093909   4.185088   3.425167
    27  C    5.051308   6.473838   6.830760   5.894478   4.665158
    28  C    4.860657   6.361531   6.816972   5.914484   4.571928
    29  C    4.180546   5.623472   5.939503   4.954175   3.664977
    30  H    1.089253   2.150112   3.088006   3.115406   2.132852
    31  H    1.091784   2.142342   3.059424   3.091788   2.154247
    32  H    2.327516   1.073168   2.134081   3.296238   3.385476
    33  H    3.368250   2.101261   1.069547   2.257728   3.350046
    34  H    8.125962   8.014684   6.771193   5.834200   6.760511
    35  H   12.259528  11.782563  10.433134   9.881744  11.048388
    36  H   12.342420  11.555528  10.213296  10.025366  11.360806
    37  H    4.433805   5.594957   5.441175   4.161923   3.296873
    38  H    5.807333   7.193294   7.604877   6.739781   5.542129
    39  H    5.574764   7.090793   7.668404   6.850534   5.467771
    40  H    3.847021   5.270404   5.737359   4.931073   3.608655
    41  H    5.154848   6.541118   6.738217   5.653030   4.484576
                    6          7          8          9         10
     6  C    0.000000
     7  S    1.739068   0.000000
     8  C    2.506716   1.683895   0.000000
     9  C    3.873704   2.625741   1.431387   0.000000
    10  N    4.457978   2.840378   2.433347   1.381866   0.000000
    11  C    5.813989   4.187890   3.685312   2.384067   1.358487
    12  C    6.678359   5.197985   4.300037   2.869723   2.441461
    13  C    8.103692   6.582083   5.741534   4.311435   3.767895
    14  N    8.776453   7.144200   6.565462   5.169540   4.323668
    15  C   10.114641   8.503796   7.845309   6.427766   5.673555
    16  C   10.502793   8.996491   8.103300   6.674244   6.180808
    17  S    9.278924   7.900554   6.807901   5.409195   5.198576
    18  C    6.288900   5.071055   3.788472   2.461508   2.776271
    19  N    7.255918   6.214072   4.769707   3.599942   4.105788
    20  S    6.861130   6.187787   4.553569   3.791281   4.750080
    21  N    5.241439   4.633912   2.971102   2.454684   3.664480
    22  C    4.954560   3.937615   2.459489   1.385855   2.379958
    23  C    1.480951   2.619235   3.863731   5.130543   5.450964
    24  Si   2.765115   3.473793   4.643020   5.767451   5.955057
    25  H    3.578130   3.618431   5.019110   5.880838   5.719461
    26  H    2.974110   3.674472   4.344052   5.436416   5.825879
    27  C    3.873179   5.009113   6.146817   7.395438   7.674436
    28  C    3.782250   5.100812   6.256055   7.572655   7.909819
    29  C    2.757463   4.055953   5.228308   6.533263   6.883935
    30  H    3.052360   4.534775   4.307964   5.643131   6.702572
    31  H    3.111550   4.552178   4.280420   5.603892   6.654654
    32  H    4.741160   5.681708   4.637337   5.578300   6.910442
    33  H    4.516173   4.654219   3.119600   3.549187   4.930787
    34  H    6.361237   4.648835   4.489910   3.327030   2.056966
    35  H   10.873529   9.214481   8.692336   7.297012   6.419577
    36  H   11.508036  10.030841   9.080708   7.657899   7.227819
    37  H    1.972633   2.432912   3.931636   5.028706   5.127482
    38  H    4.846187   5.933306   7.015287   8.232394   8.497351
    39  H    4.765358   6.128416   7.263315   8.598022   8.951104
    40  H    3.014990   4.468903   5.403789   6.749273   7.249456
    41  H    3.408593   4.355711   5.719175   6.911509   7.077357
                   11         12         13         14         15
    11  C    0.000000
    12  C    1.392494   0.000000
    13  C    2.501810   1.441723   0.000000
    14  N    2.965188   2.442104   1.317664   0.000000
    15  C    4.318418   3.591906   2.198507   1.381603   0.000000
    16  C    4.888236   3.825692   2.415243   2.336682   1.372427
    17  S    4.073286   2.759404   1.724673   2.568943   2.499170
    18  C    2.369925   1.419728   2.493099   3.719718   4.673677
    19  N    3.662484   2.484986   3.002318   4.319958   4.948666
    20  S    4.736515   3.832990   4.594784   5.907805   6.577637
    21  N    4.076695   3.640981   4.810019   6.029070   6.979094
    22  C    2.743833   2.496639   3.825032   4.937829   6.023362
    23  C    6.790806   7.812329   9.200904   9.734211  11.102510
    24  Si   7.231545   8.294574   9.635472  10.092366  11.452409
    25  H    6.876912   8.077562   9.318066   9.589165  10.947999
    26  H    7.067455   7.964818   9.309662   9.883249  11.198144
    27  C    8.980053  10.029174  11.394062  11.871375  13.237762
    28  C    9.243272  10.278898  11.666457  12.173978  13.547383
    29  C    8.214252   9.228158  10.614944  11.143028  12.509890
    30  H    7.953746   8.425778   9.843270  10.774088  12.001287
    31  H    7.911161   8.393069   9.812981  10.737858  11.967878
    32  H    7.925318   7.970486   9.277597  10.412457  11.471947
    33  H    5.738197   5.598175   6.856404   8.030173   9.042304
    34  H    1.094450   2.173086   2.778931   2.722679   4.096263
    35  H    5.065067   4.527906   3.201329   2.127796   1.078193
    36  H    5.949907   4.840907   3.460703   3.380943   2.235083
    37  H    6.411932   7.523866   8.861039   9.291044  10.664761
    38  H    9.776411  10.819773  12.166309  12.625878  13.981693
    39  H   10.284546  11.317568  12.707191  13.213931  14.588126
    40  H    8.577401   9.490917  10.891778  11.502074  12.846915
    41  H    8.354434   9.453534  10.790405  11.211077  12.581120
                   16         17         18         19         20
    16  C    0.000000
    17  S    1.675152   0.000000
    18  C    4.547195   3.077046   0.000000
    19  N    4.437686   2.777126   1.342469   0.000000
    20  S    6.021540   4.347517   2.435552   1.629020   0.000000
    21  N    6.726651   5.125824   2.318343   2.442363   1.620031
    22  C    5.992088   4.530299   1.455954   2.311380   2.427730
    23  C   11.615518  10.496081   7.586854   8.630040   8.318919
    24  Si  12.020025  10.971807   8.157509   9.222309   8.984249
    25  H   11.661501  10.789070   8.195664   9.374901   9.392271
    26  H   11.643534  10.508251   7.673798   8.620227   8.267406
    27  C   13.792065  12.703384   9.815546  10.828081  10.440734
    28  C   14.081313  12.957673  10.020092  11.014080  10.566243
    29  C   13.023724  11.892543   8.966713   9.966493   9.554712
    30  H   12.094076  10.631483   7.584368   8.126863   7.149915
    31  H   12.068061  10.612410   7.559927   8.111429   7.148567
    32  H   11.277161   9.669484   6.804033   6.931234   5.593205
    33  H    8.817811   7.210645   4.368809   4.484033   3.248097
    34  H    4.947096   4.492344   3.389327   4.620749   5.796946
    35  H    2.174573   3.547161   5.693935   6.023204   7.652076
    36  H    1.073890   2.383297   5.430381   5.123202   6.628474
    37  H   11.262375  10.241392   7.455941   8.578568   8.434852
    38  H   14.543146  13.469786  10.611784  11.607645  11.208029
    39  H   15.122309  13.990395  11.039834  12.012989  11.514338
    40  H   13.278402  12.074386   9.108597  10.017771   9.477289
    41  H   13.183790  12.150262   9.331998  10.401721  10.123067
                   21         22         23         24         25
    21  N    0.000000
    22  C    1.342904   0.000000
    23  C    6.700201   6.319383   0.000000
    24  Si   7.407123   6.964932   1.953798   0.000000
    25  H    7.861407   7.181907   2.763286   1.480110   0.000000
    26  H    6.756402   6.459865   2.858950   1.491908   2.526864
    27  C    8.844442   8.546809   2.706216   1.833323   2.831358
    28  C    8.952506   8.710078   2.501589   2.658465   3.625659
    29  C    7.942257   7.669516   1.524515   2.794098   3.660141
    30  H    5.727834   6.141846   3.789283   4.983168   6.238809
    31  H    5.724891   6.117965   3.823254   4.276728   5.634842
    32  H    4.550978   5.475259   5.910866   6.697887   7.883580
    33  H    2.092697   3.112894   5.970036   6.740736   7.562298
    34  H    5.169495   3.833546   7.157488   7.508425   6.942676
    35  H    8.009115   7.002649  11.777783  12.078717  11.465406
    36  H    7.505861   6.886130  12.648692  13.055390  12.716377
    37  H    6.842085   6.297680   1.095972   2.616205   2.871189
    38  H    9.636693   9.359020   3.758304   2.546746   3.360751
    39  H    9.906539   9.714107   3.510686   3.698346   4.586001
    40  H    7.895997   7.768849   2.225166   3.717803   4.691096
    41  H    8.520759   8.119112   2.102669   3.325175   3.781934
                   26         27         28         29         30
    26  H    0.000000
    27  C    2.752012   0.000000
    28  C    3.681706   1.343425   0.000000
    29  C    3.846308   2.457896   1.517335   0.000000
    30  H    4.778604   5.218805   4.748753   3.969539   0.000000
    31  H    3.604024   4.626012   4.618931   4.284830   1.812689
    32  H    5.947339   7.283961   7.143119   6.481547   2.708976
    33  H    5.992153   7.867940   7.883073   6.988439   4.031485
    34  H    7.482911   9.264198   9.556546   8.558512   8.736894
    35  H   11.891458  13.866837  14.194673  13.174257  12.894559
    36  H   12.640040  14.825989  15.115614  14.053540  12.991354
    37  H    3.681731   3.448291   3.144441   1.978410   4.507950
    38  H    3.163109   1.077444   2.174209   3.491583   6.022032
    39  H    4.668911   2.123819   1.083375   2.260147   5.312536
    40  H    4.545940   3.303100   2.201922   1.089234   3.371157
    41  H    4.597548   3.021302   2.080280   1.107317   4.898708
                   31         32         33         34         35
    31  H    0.000000
    32  H    2.724743   0.000000
    33  H    4.010440   2.460192   0.000000
    34  H    8.690215   8.905124   6.784482   0.000000
    35  H   12.857595  12.470956  10.056762   4.644024   0.000000
    36  H   12.967840  12.043257   9.586342   6.019595   2.700418
    37  H    4.778889   6.610090   6.388147   6.662433  11.282673
    38  H    5.225398   7.940040   8.622477  10.038502  14.594893
    39  H    5.299468   7.786744   8.737931  10.590034  15.230747
    40  H    4.076478   6.033411   6.774435   9.009305  13.557845
    41  H    5.349410   7.427765   7.756369   8.578424  13.179626
                   36         37         38         39         40
    36  H    0.000000
    37  H   12.310253   0.000000
    38  H   15.571499   4.490500   0.000000
    39  H   16.155734   4.060597   2.571627   0.000000
    40  H   14.284279   2.651819   4.271262   2.615893   0.000000
    41  H   14.227941   1.962875   3.997614   2.586928   1.756348
                   41
    41  H    0.000000
 Stoichiometry    C19H14N4S3Si
 Framework group  C1[X(C19H14N4S3Si)]
 Deg. of freedom   117
 Full point group                 C1      NOp   1
 Largest Abelian subgroup         C1      NOp   1
 Largest concise Abelian subgroup C1      NOp   1
                         Standard orientation:                         
 ---------------------------------------------------------------------
 Center     Atomic      Atomic             Coordinates (Angstroms)
 Number     Number       Type             X           Y           Z
 ---------------------------------------------------------------------
      1          6           0       -3.773267    2.486873   -0.087244
      2          6           0       -2.604105    3.438575    0.074106
      3          6           0       -1.434349    2.751824    0.080153
      4          6           0       -1.675138    1.367293   -0.092457
      5          6           0       -3.081063    1.173319   -0.232920
      6          6           0       -3.396074   -0.131575   -0.467131
      7         16           0       -1.949481   -1.096830   -0.464163
      8          6           0       -0.930801    0.211224   -0.169564
      9          6           0        0.459979   -0.119638   -0.097953
     10          7           0        0.855200   -1.441450   -0.176498
     11          6           0        2.170945   -1.778876   -0.155422
     12          6           0        3.227316   -0.877806   -0.049621
     13          6           0        4.616036   -1.264565   -0.028665
     14          7           0        5.044450   -2.508520   -0.101313
     15          6           0        6.424872   -2.514084   -0.044475
     16          6           0        7.029236   -1.287043    0.068098
     17         16           0        5.865499   -0.082485    0.097931
     18          6           0        2.841942    0.485729    0.039188
     19          7           0        3.630956    1.565480    0.156738
     20         16           0        2.715687    2.912030    0.209595
     21          7           0        1.271185    2.190393    0.078619
     22          6           0        1.435134    0.859451    0.007174
     23          6           0       -4.565266   -1.033175   -0.582550
     24         14           0       -4.928565   -1.699429    1.217852
     25          1           0       -4.430343   -3.092674    1.254842
     26          1           0       -4.394714   -0.774415    2.259554
     27          6           0       -6.731434   -1.465875    0.980809
     28          6           0       -7.046716   -1.101432   -0.273212
     29          6           0       -5.919869   -0.900164   -1.269210
     30          1           0       -4.330055    2.726544   -0.992240
     31          1           0       -4.397241    2.524316    0.807880
     32          1           0       -2.644887    4.507553    0.159613
     33          1           0       -0.510892    3.283445    0.172547
     34          1           0        2.347224   -2.856347   -0.231591
     35          1           0        6.950339   -3.454532   -0.088539
     36          1           0        8.063113   -1.004079    0.133425
     37          1           0       -4.142225   -1.768517   -1.276427
     38          1           0       -7.405748   -1.630143    1.804947
     39          1           0       -8.075875   -1.020377   -0.601789
     40          1           0       -6.040297   -0.029130   -1.912038
     41          1           0       -5.992549   -1.784723   -1.931347
 ---------------------------------------------------------------------
 Rotational constants (GHZ):      0.3629808      0.0695179      0.0599025
 Standard basis: 6-31++G(d,p) (6D, 7F)
 There are   613 symmetry adapted basis functions of A   symmetry.
 Integral buffers will be    131072 words long.
 Raffenetti 2 integral format.
 Two-electron integral symmetry is turned on.
   613 basis functions,  1072 primitive gaussians,   613 cartesian basis functions
   109 alpha electrons      109 beta electrons
       nuclear repulsion energy      2880.4533831084 Hartrees.
 NAtoms=   41 NActive=   41 NUniq=   41 SFac= 1.00D+00 NAtFMM=   60 NAOKFM=F Big=F
 One-electron integrals computed using PRISM.
 NBasis=   613 RedAO= T  NBF=   613
 NBsUse=   605 1.00D-06 NBFU=   605
 Harris functional with IExCor=  402 diagonalized for initial guess.
 ExpMin= 3.31D-02 ExpMax= 2.19D+04 ExpMxC= 3.30D+03 IAcc=3 IRadAn=         5 AccDes= 0.00D+00
 HarFok:  IExCor=  402 AccDes= 0.00D+00 IRadAn=         5 IDoV= 1
 ScaDFX=  1.000000  1.000000  1.000000  1.000000
 FoFCou: FMM=F IPFlag=           0 FMFlag=      100000 FMFlg1=           0
         NFxFlg=           0 DoJE=T BraDBF=F KetDBF=T FulRan=T
         Omega=  0.000000  0.000000  1.000000  0.000000  0.000000 ICntrl=     500 IOpCl=  0
         NMat0=    1 NMatS0=    1 NMatT0=    0 NMatD0=    1 NMtDS0=    0 NMtDT0=    0
         I1Cent=           4 NGrid=           0.
 Petite list used in FoFCou.
 Initial guess orbital symmetries:
       Occupied  (A) (A) (A) (A) (A) (A) (A) (A) (A) (A) (A) (A)
                 (A) (A) (A) (A) (A) (A) (A) (A) (A) (A) (A) (A)
                 (A) (A) (A) (A) (A) (A) (A) (A) (A) (A) (A) (A)
                 (A) (A) (A) (A) (A) (A) (A) (A) (A) (A) (A) (A)
                 (A) (A) (A) (A) (A) (A) (A) (A) (A) (A) (A) (A)
                 (A) (A) (A) (A) (A) (A) (A) (A) (A) (A) (A) (A)
                 (A) (A) (A) (A) (A) (A) (A) (A) (A) (A) (A) (A)
                 (A) (A) (A) (A) (A) (A) (A) (A) (A) (A) (A) (A)
                 (A) (A) (A) (A) (A) (A) (A) (A) (A) (A) (A) (A)
                 (A)
       Virtual   (A) (A) (A) (A) (A) (A) (A) (A) (A) (A) (A) (A)
                 (A) (A) (A) (A) (A) (A) (A) (A) (A) (A) (A) (A)
                 (A) (A) (A) (A) (A) (A) (A) (A) (A) (A) (A) (A)
                 (A) (A) (A) (A) (A) (A) (A) (A) (A) (A) (A) (A)
                 (A) (A) (A) (A) (A) (A) (A) (A) (A) (A) (A) (A)
                 (A) (A) (A) (A) (A) (A) (A) (A) (A) (A) (A) (A)
                 (A) (A) (A) (A) (A) (A) (A) (A) (A) (A) (A) (A)
                 (A) (A) (A) (A) (A) (A) (A) (A) (A) (A) (A) (A)
                 (A) (A) (A) (A) (A) (A) (A) (A) (A) (A) (A) (A)
                 (A) (A) (A) (A) (A) (A) (A) (A) (A) (A) (A) (A)
                 (A) (A) (A) (A) (A) (A) (A) (A) (A) (A) (A) (A)
                 (A) (A) (A) (A) (A) (A) (A) (A) (A) (A) (A) (A)
                 (A) (A) (A) (A) (A) (A) (A) (A) (A) (A) (A) (A)
                 (A) (A) (A) (A) (A) (A) (A) (A) (A) (A) (A) (A)
                 (A) (A) (A) (A) (A) (A) (A) (A) (A) (A) (A) (A)
                 (A) (A) (A) (A) (A) (A) (A) (A) (A) (A) (A) (A)
                 (A) (A) (A) (A) (A) (A) (A) (A) (A) (A) (A) (A)
                 (A) (A) (A) (A) (A) (A) (A) (A) (A) (A) (A) (A)
                 (A) (A) (A) (A) (A) (A) (A) (A) (A) (A) (A) (A)
                 (A) (A) (A) (A) (A) (A) (A) (A) (A) (A) (A) (A)
                 (A) (A) (A) (A) (A) (A) (A) (A) (A) (A) (A) (A)
                 (A) (A) (A) (A) (A) (A) (A) (A) (A) (A) (A) (A)
                 (A) (A) (A) (A) (A) (A) (A) (A) (A) (A) (A) (A)
                 (A) (A) (A) (A) (A) (A) (A) (A) (A) (A) (A) (A)
                 (A) (A) (A) (A) (A) (A) (A) (A) (A) (A) (A) (A)
                 (A) (A) (A) (A) (A) (A) (A) (A) (A) (A) (A) (A)
                 (A) (A) (A) (A) (A) (A) (A) (A) (A) (A) (A) (A)
                 (A) (A) (A) (A) (A) (A) (A) (A) (A) (A) (A) (A)
                 (A) (A) (A) (A) (A) (A) (A) (A) (A) (A) (A) (A)
                 (A) (A) (A) (A) (A) (A) (A) (A) (A) (A) (A) (A)
                 (A) (A) (A) (A) (A) (A) (A) (A) (A) (A) (A) (A)
                 (A) (A) (A) (A) (A) (A) (A) (A) (A) (A) (A) (A)
                 (A) (A) (A) (A) (A) (A) (A) (A) (A) (A) (A) (A)
                 (A) (A) (A) (A) (A) (A) (A) (A) (A) (A) (A) (A)
                 (A) (A) (A) (A) (A) (A) (A) (A) (A) (A) (A) (A)
                 (A) (A) (A) (A) (A) (A) (A) (A) (A) (A) (A) (A)
                 (A) (A) (A) (A) (A) (A) (A) (A) (A) (A) (A) (A)
                 (A) (A) (A) (A) (A) (A) (A) (A) (A) (A) (A) (A)
                 (A) (A) (A) (A) (A) (A) (A) (A) (A) (A) (A) (A)
                 (A) (A) (A) (A) (A) (A) (A) (A) (A) (A) (A) (A)
                 (A) (A) (A) (A) (A) (A) (A) (A) (A) (A) (A) (A)
                 (A) (A) (A) (A)
 The electronic state of the initial guess is 1-A.
 Requested convergence on RMS density matrix=1.00D-08 within 128 cycles.
 Requested convergence on MAX density matrix=1.00D-06.
 Requested convergence on             energy=1.00D-06.
 No special actions if energy rises.
 EnCoef did     6 forward-backward iterations
 EnCoef did   100 forward-backward iterations
 EnCoef did     6 forward-backward iterations
 Restarting incremental Fock formation.
 SCF Done:  E(RB3LYP) =  -2435.44706207     A.U. after   23 cycles
             Convg  =    0.1885D-08             -V/T =  2.0054

 **********************************************************************

            Population analysis using the SCF density.

 **********************************************************************

 Orbital symmetries:
       Occupied  (A) (A) (A) (A) (A) (A) (A) (A) (A) (A) (A) (A)
                 (A) (A) (A) (A) (A) (A) (A) (A) (A) (A) (A) (A)
                 (A) (A) (A) (A) (A) (A) (A) (A) (A) (A) (A) (A)
                 (A) (A) (A) (A) (A) (A) (A) (A) (A) (A) (A) (A)
                 (A) (A) (A) (A) (A) (A) (A) (A) (A) (A) (A) (A)
                 (A) (A) (A) (A) (A) (A) (A) (A) (A) (A) (A) (A)
                 (A) (A) (A) (A) (A) (A) (A) (A) (A) (A) (A) (A)
                 (A) (A) (A) (A) (A) (A) (A) (A) (A) (A) (A) (A)
                 (A) (A) (A) (A) (A) (A) (A) (A) (A) (A) (A) (A)
                 (A)
       Virtual   (A) (A) (A) (A) (A) (A) (A) (A) (A) (A) (A) (A)
                 (A) (A) (A) (A) (A) (A) (A) (A) (A) (A) (A) (A)
                 (A) (A) (A) (A) (A) (A) (A) (A) (A) (A) (A) (A)
                 (A) (A) (A) (A) (A) (A) (A) (A) (A) (A) (A) (A)
                 (A) (A) (A) (A) (A) (A) (A) (A) (A) (A) (A) (A)
                 (A) (A) (A) (A) (A) (A) (A) (A) (A) (A) (A) (A)
                 (A) (A) (A) (A) (A) (A) (A) (A) (A) (A) (A) (A)
                 (A) (A) (A) (A) (A) (A) (A) (A) (A) (A) (A) (A)
                 (A) (A) (A) (A) (A) (A) (A) (A) (A) (A) (A) (A)
                 (A) (A) (A) (A) (A) (A) (A) (A) (A) (A) (A) (A)
                 (A) (A) (A) (A) (A) (A) (A) (A) (A) (A) (A) (A)
                 (A) (A) (A) (A) (A) (A) (A) (A) (A) (A) (A) (A)
                 (A) (A) (A) (A) (A) (A) (A) (A) (A) (A) (A) (A)
                 (A) (A) (A) (A) (A) (A) (A) (A) (A) (A) (A) (A)
                 (A) (A) (A) (A) (A) (A) (A) (A) (A) (A) (A) (A)
                 (A) (A) (A) (A) (A) (A) (A) (A) (A) (A) (A) (A)
                 (A) (A) (A) (A) (A) (A) (A) (A) (A) (A) (A) (A)
                 (A) (A) (A) (A) (A) (A) (A) (A) (A) (A) (A) (A)
                 (A) (A) (A) (A) (A) (A) (A) (A) (A) (A) (A) (A)
                 (A) (A) (A) (A) (A) (A) (A) (A) (A) (A) (A) (A)
                 (A) (A) (A) (A) (A) (A) (A) (A) (A) (A) (A) (A)
                 (A) (A) (A) (A) (A) (A) (A) (A) (A) (A) (A) (A)
                 (A) (A) (A) (A) (A) (A) (A) (A) (A) (A) (A) (A)
                 (A) (A) (A) (A) (A) (A) (A) (A) (A) (A) (A) (A)
                 (A) (A) (A) (A) (A) (A) (A) (A) (A) (A) (A) (A)
                 (A) (A) (A) (A) (A) (A) (A) (A) (A) (A) (A) (A)
                 (A) (A) (A) (A) (A) (A) (A) (A) (A) (A) (A) (A)
                 (A) (A) (A) (A) (A) (A) (A) (A) (A) (A) (A) (A)
                 (A) (A) (A) (A) (A) (A) (A) (A) (A) (A) (A) (A)
                 (A) (A) (A) (A) (A) (A) (A) (A) (A) (A) (A) (A)
                 (A) (A) (A) (A) (A) (A) (A) (A) (A) (A) (A) (A)
                 (A) (A) (A) (A) (A) (A) (A) (A) (A) (A) (A) (A)
                 (A) (A) (A) (A) (A) (A) (A) (A) (A) (A) (A) (A)
                 (A) (A) (A) (A) (A) (A) (A) (A) (A) (A) (A) (A)
                 (A) (A) (A) (A) (A) (A) (A) (A) (A) (A) (A) (A)
                 (A) (A) (A) (A) (A) (A) (A) (A) (A) (A) (A) (A)
                 (A) (A) (A) (A) (A) (A) (A) (A) (A) (A) (A) (A)
                 (A) (A) (A) (A) (A) (A) (A) (A) (A) (A) (A) (A)
                 (A) (A) (A) (A) (A) (A) (A) (A) (A) (A) (A) (A)
                 (A) (A) (A) (A) (A) (A) (A) (A) (A) (A) (A) (A)
                 (A) (A) (A) (A) (A) (A) (A) (A) (A) (A) (A) (A)
                 (A) (A) (A) (A)
 The electronic state is 1-A.
 Alpha  occ. eigenvalues --  -88.99673 -88.91520 -88.90444 -66.13678 -14.38393
 Alpha  occ. eigenvalues --  -14.37928 -14.34881 -14.33917 -10.25915 -10.25905
 Alpha  occ. eigenvalues --  -10.25560 -10.25509 -10.23982 -10.23546 -10.22189
 Alpha  occ. eigenvalues --  -10.22122 -10.22050 -10.21751 -10.21484 -10.21155
 Alpha  occ. eigenvalues --  -10.20735 -10.20734 -10.20057 -10.19887 -10.19877
 Alpha  occ. eigenvalues --  -10.18716 -10.18348  -8.04937  -7.97607  -7.96505
 Alpha  occ. eigenvalues --   -6.01507  -6.00908  -6.00706  -5.93990  -5.93601
 Alpha  occ. eigenvalues --   -5.93365  -5.92951  -5.92523  -5.92188  -5.28505
 Alpha  occ. eigenvalues --   -3.64469  -3.64307  -3.64269  -1.03891  -0.96881
 Alpha  occ. eigenvalues --   -0.94971  -0.91535  -0.90435  -0.85038  -0.83351
 Alpha  occ. eigenvalues --   -0.82252  -0.81100  -0.80279  -0.77328  -0.73936
 Alpha  occ. eigenvalues --   -0.72984  -0.71592  -0.70160  -0.68296  -0.65149
 Alpha  occ. eigenvalues --   -0.64370  -0.62270  -0.59371  -0.58647  -0.57480
 Alpha  occ. eigenvalues --   -0.56494  -0.54294  -0.53361  -0.52748  -0.52475
 Alpha  occ. eigenvalues --   -0.50952  -0.50410  -0.49895  -0.47670  -0.47410
 Alpha  occ. eigenvalues --   -0.46346  -0.45990  -0.44488  -0.43139  -0.42182
 Alpha  occ. eigenvalues --   -0.42146  -0.41826  -0.41428  -0.41148  -0.40561
 Alpha  occ. eigenvalues --   -0.40265  -0.39526  -0.38322  -0.38072  -0.37316
 Alpha  occ. eigenvalues --   -0.36785  -0.36482  -0.35427  -0.33976  -0.33414
 Alpha  occ. eigenvalues --   -0.32813  -0.32554  -0.32120  -0.30201  -0.29694
 Alpha  occ. eigenvalues --   -0.29427  -0.28915  -0.28507  -0.27370  -0.27029
 Alpha  occ. eigenvalues --   -0.26809  -0.24596  -0.23099  -0.19952
 Alpha virt. eigenvalues --   -0.11616  -0.05161  -0.03456  -0.02552  -0.02185
 Alpha virt. eigenvalues --   -0.01869  -0.01051  -0.00544  -0.00233  -0.00137
 Alpha virt. eigenvalues --    0.00085   0.00905   0.01182   0.01286   0.01480
 Alpha virt. eigenvalues --    0.01914   0.02147   0.02417   0.02701   0.02825
 Alpha virt. eigenvalues --    0.02968   0.03452   0.03711   0.04167   0.04704
 Alpha virt. eigenvalues --    0.05013   0.05212   0.05312   0.05448   0.06085
 Alpha virt. eigenvalues --    0.06154   0.06411   0.06484   0.07001   0.07272
 Alpha virt. eigenvalues --    0.07361   0.07982   0.08582   0.08869   0.09036
 Alpha virt. eigenvalues --    0.09507   0.09656   0.09793   0.10101   0.10269
 Alpha virt. eigenvalues --    0.10781   0.11170   0.11260   0.11656   0.11716
 Alpha virt. eigenvalues --    0.11851   0.12040   0.12091   0.12382   0.12439
 Alpha virt. eigenvalues --    0.12850   0.12940   0.13213   0.13283   0.13437
 Alpha virt. eigenvalues --    0.13487   0.13714   0.14113   0.14329   0.14409
 Alpha virt. eigenvalues --    0.14690   0.14900   0.15232   0.15463   0.15595
 Alpha virt. eigenvalues --    0.15788   0.15915   0.16128   0.16590   0.16696
 Alpha virt. eigenvalues --    0.16996   0.17191   0.17331   0.17629   0.17747
 Alpha virt. eigenvalues --    0.17952   0.18083   0.18291   0.18710   0.19069
 Alpha virt. eigenvalues --    0.19239   0.19594   0.19771   0.19879   0.20457
 Alpha virt. eigenvalues --    0.20528   0.20664   0.20841   0.21511   0.21865
 Alpha virt. eigenvalues --    0.21994   0.22290   0.22557   0.22688   0.23501
 Alpha virt. eigenvalues --    0.23618   0.23688   0.24161   0.24532   0.24957
 Alpha virt. eigenvalues --    0.25036   0.25332   0.25596   0.25783   0.25923
 Alpha virt. eigenvalues --    0.26275   0.26586   0.26968   0.27070   0.27164
 Alpha virt. eigenvalues --    0.27615   0.27783   0.27911   0.28495   0.28727
 Alpha virt. eigenvalues --    0.28947   0.29235   0.29488   0.29683   0.29856
 Alpha virt. eigenvalues --    0.30377   0.30597   0.30855   0.31202   0.31432
 Alpha virt. eigenvalues --    0.31810   0.31987   0.32579   0.32988   0.33440
 Alpha virt. eigenvalues --    0.33768   0.33912   0.34154   0.34692   0.34935
 Alpha virt. eigenvalues --    0.35701   0.36117   0.36389   0.36995   0.37238
 Alpha virt. eigenvalues --    0.37481   0.37741   0.38230   0.38576   0.39304
 Alpha virt. eigenvalues --    0.39389   0.39851   0.39963   0.41152   0.42034
 Alpha virt. eigenvalues --    0.42168   0.42425   0.43071   0.43724   0.44531
 Alpha virt. eigenvalues --    0.44848   0.45071   0.45444   0.47758   0.48200
 Alpha virt. eigenvalues --    0.49024   0.49560   0.50552   0.51035   0.51336
 Alpha virt. eigenvalues --    0.51682   0.52054   0.53862   0.54545   0.56488
 Alpha virt. eigenvalues --    0.57541   0.58450   0.59914   0.61085   0.62577
 Alpha virt. eigenvalues --    0.63167   0.63594   0.64106   0.64782   0.65399
 Alpha virt. eigenvalues --    0.66453   0.66567   0.67652   0.68024   0.68258
 Alpha virt. eigenvalues --    0.68479   0.69334   0.69745   0.70120   0.70263
 Alpha virt. eigenvalues --    0.70761   0.71650   0.72390   0.72440   0.73008
 Alpha virt. eigenvalues --    0.73769   0.73830   0.74195   0.75233   0.75408
 Alpha virt. eigenvalues --    0.75752   0.76274   0.77081   0.77495   0.78092
 Alpha virt. eigenvalues --    0.78420   0.78582   0.78983   0.79670   0.80040
 Alpha virt. eigenvalues --    0.80416   0.80966   0.81036   0.81913   0.82332
 Alpha virt. eigenvalues --    0.83398   0.84012   0.84309   0.84458   0.85202
 Alpha virt. eigenvalues --    0.87214   0.88116   0.88488   0.88628   0.89333
 Alpha virt. eigenvalues --    0.90600   0.90721   0.91443   0.92121   0.93282
 Alpha virt. eigenvalues --    0.93798   0.94471   0.94826   0.96859   0.97352
 Alpha virt. eigenvalues --    0.97613   0.98960   0.99247   1.00586   1.00614
 Alpha virt. eigenvalues --    1.01354   1.01458   1.02129   1.02650   1.02999
 Alpha virt. eigenvalues --    1.03139   1.03718   1.04166   1.05180   1.06401
 Alpha virt. eigenvalues --    1.06617   1.07571   1.07666   1.08342   1.08734
 Alpha virt. eigenvalues --    1.09053   1.09731   1.10796   1.11892   1.12910
 Alpha virt. eigenvalues --    1.13729   1.14637   1.15338   1.15562   1.15797
 Alpha virt. eigenvalues --    1.17152   1.17260   1.18116   1.19691   1.19972
 Alpha virt. eigenvalues --    1.20390   1.20443   1.21188   1.21544   1.22619
 Alpha virt. eigenvalues --    1.23150   1.24372   1.25106   1.25734   1.26116
 Alpha virt. eigenvalues --    1.27296   1.27577   1.27626   1.28821   1.30317
 Alpha virt. eigenvalues --    1.30751   1.31249   1.31969   1.32399   1.32503
 Alpha virt. eigenvalues --    1.34381   1.35064   1.35449   1.36698   1.37137
 Alpha virt. eigenvalues --    1.37547   1.38390   1.39612   1.40185   1.40440
 Alpha virt. eigenvalues --    1.40696   1.41582   1.43618   1.44684   1.46267
 Alpha virt. eigenvalues --    1.47120   1.48078   1.49872   1.51253   1.53075
 Alpha virt. eigenvalues --    1.54472   1.56015   1.56813   1.57751   1.61246
 Alpha virt. eigenvalues --    1.62124   1.67307   1.67783   1.70046   1.70706
 Alpha virt. eigenvalues --    1.72569   1.73222   1.73431   1.74380   1.75841
 Alpha virt. eigenvalues --    1.76585   1.78599   1.79323   1.80118   1.80372
 Alpha virt. eigenvalues --    1.80623   1.81597   1.82699   1.83396   1.84000
 Alpha virt. eigenvalues --    1.84557   1.86958   1.88707   1.89923   1.90437
 Alpha virt. eigenvalues --    1.91338   1.91733   1.93053   1.93621   1.94995
 Alpha virt. eigenvalues --    1.95151   1.96850   1.97400   1.97920   1.98777
 Alpha virt. eigenvalues --    1.99429   1.99613   2.00136   2.02416   2.04214
 Alpha virt. eigenvalues --    2.06792   2.07533   2.08218   2.09710   2.11089
 Alpha virt. eigenvalues --    2.11738   2.12046   2.13124   2.14568   2.14844
 Alpha virt. eigenvalues --    2.16091   2.16691   2.18848   2.19991   2.20716
 Alpha virt. eigenvalues --    2.21101   2.22228   2.23832   2.24835   2.25003
 Alpha virt. eigenvalues --    2.26085   2.27023   2.28577   2.29223   2.30098
 Alpha virt. eigenvalues --    2.30608   2.32037   2.33130   2.33682   2.33903
 Alpha virt. eigenvalues --    2.34992   2.35527   2.36077   2.36248   2.38217
 Alpha virt. eigenvalues --    2.39778   2.41286   2.42160   2.44695   2.45593
 Alpha virt. eigenvalues --    2.46000   2.46930   2.47448   2.48075   2.48710
 Alpha virt. eigenvalues --    2.49057   2.49539   2.51227   2.52046   2.53187
 Alpha virt. eigenvalues --    2.54275   2.54787   2.56099   2.56982   2.57546
 Alpha virt. eigenvalues --    2.60537   2.61305   2.61528   2.62616   2.63576
 Alpha virt. eigenvalues --    2.64054   2.64485   2.65344   2.66287   2.67159
 Alpha virt. eigenvalues --    2.68745   2.69113   2.70433   2.71446   2.71844
 Alpha virt. eigenvalues --    2.72509   2.75585   2.77216   2.77818   2.79551
 Alpha virt. eigenvalues --    2.80272   2.81420   2.82310   2.83781   2.85162
 Alpha virt. eigenvalues --    2.89234   2.91327   2.92896   2.93873   2.94838
 Alpha virt. eigenvalues --    2.96163   2.98989   3.04119   3.06354   3.07095
 Alpha virt. eigenvalues --    3.10058   3.12631   3.13274   3.16520   3.18526
 Alpha virt. eigenvalues --    3.30182   3.30903   3.31881   3.32333   3.33987
 Alpha virt. eigenvalues --    3.36800   3.40368   3.43330   3.46235   3.47213
 Alpha virt. eigenvalues --    3.50246   3.59596   3.62682   3.67947   3.72580
 Alpha virt. eigenvalues --    3.97917   4.01009   4.03455   4.17013   4.24373
 Alpha virt. eigenvalues --    4.26174   4.32723   4.33860   4.34849   4.35240
 Alpha virt. eigenvalues --    4.35843   4.37800   4.38868   4.42361   4.45139
 Alpha virt. eigenvalues --    4.46295   4.51854   4.55712   4.59917   4.61572
 Alpha virt. eigenvalues --    4.64424   4.64795   4.72560   4.79446   4.83421
 Alpha virt. eigenvalues --    4.88897
          Condensed to atoms (all electrons):
              1          2          3          4          5          6
     1  C   17.371449  -6.400569   4.463890  -1.819847 -10.451183   2.058058
     2  C   -6.400569  16.331262  -7.721683  -0.076489   6.545230  -0.190352
     3  C    4.463890  -7.721683  19.565041  -4.151990  -7.475850  -1.999398
     4  C   -1.819847  -0.076489  -4.151990  14.337944   2.032366   2.396318
     5  C  -10.451183   6.545230  -7.475850   2.032366  18.800176  -1.183346
     6  C    2.058058  -0.190352  -1.999398   2.396318  -1.183346  24.801294
     7  S    1.505323  -0.504743   0.984417  -1.771172  -1.591614  -0.871643
     8  C    0.371919  -1.415103   3.429870  -1.744242  -1.836733  -1.389861
     9  C    0.976691  -1.303619   1.600722  -2.272299  -0.907969  -0.117687
    10  N   -0.016025   0.013265   0.070178   0.040424  -0.082294   0.022680
    11  C    0.035413  -0.008183  -0.065501  -0.345776   0.133463  -0.145653
    12  C   -0.000081  -0.044448  -0.391999   0.581918   0.110834   0.102211
    13  C   -0.011009   0.022544  -0.066113   0.204622   0.005781   0.026931
    14  N    0.000036  -0.000049   0.000139  -0.001672   0.000218  -0.000253
    15  C   -0.000086   0.000298  -0.000112   0.003678   0.000038   0.000283
    16  C    0.000030  -0.000230  -0.000649  -0.002116  -0.000114  -0.000127
    17  S    0.000605  -0.002338  -0.004079  -0.008678   0.000006  -0.000436
    18  C   -0.159453   0.304048  -0.960275   1.147462   0.295584   0.213474
    19  N    0.004490  -0.003347   0.121314  -0.185083  -0.003919  -0.020202
    20  S   -0.010169   0.066897  -0.094590   0.134141   0.039915   0.017724
    21  N    0.003999   0.062240  -0.020855   0.163110  -0.025729  -0.055873
    22  C   -0.412734   0.253688  -1.145913   0.721094   0.687654   0.215921
    23  C   -0.864039  -0.021832  -0.691099  -4.077623   0.147890 -16.841847
    24  Si  -0.098546   0.052193  -0.162133  -0.256689   0.206129  -1.167616
    25  H    0.031726  -0.000033   0.002056   0.013548  -0.017146   0.301716
    26  H   -0.118832   0.010307   0.020688   0.015535   0.092237  -0.114195
    27  C    0.037364  -0.034831   0.044541   0.120479  -0.149775   0.610791
    28  C   -0.002907   0.010729  -0.008578  -0.098160   0.149071  -0.449593
    29  C   -0.712138   0.037702   0.177965   0.643049   0.569586   0.198357
    30  H    0.825627  -0.327078   0.234345   0.060600  -0.534239   0.109614
    31  H    0.499514  -0.184011   0.067786  -0.039260  -0.118530  -0.025686
    32  H   -0.310247   0.650360  -0.273554   0.034924   0.215045  -0.011298
    33  H    0.097505   0.001692   0.489735  -0.209121  -0.038418  -0.017184
    34  H    0.001235  -0.000963  -0.005767  -0.008696   0.005192  -0.010397
    35  H   -0.000002   0.000006  -0.000003   0.000099  -0.000004   0.000007
    36  H    0.000001  -0.000004  -0.000016  -0.000023  -0.000001  -0.000003
    37  H   -0.131886   0.027933   0.049949   0.171740   0.124596   0.114757
    38  H    0.004449  -0.003101   0.002745   0.008914  -0.012028   0.060264
    39  H   -0.013816   0.002265   0.000171   0.003864   0.024554   0.002505
    40  H    0.008651   0.012942  -0.017373  -0.024593   0.032306  -0.032113
    41  H    0.005950  -0.005112   0.000862  -0.017907  -0.041321  -0.222665
              7          8          9         10         11         12
     1  C    1.505323   0.371919   0.976691  -0.016025   0.035413  -0.000081
     2  C   -0.504743  -1.415103  -1.303619   0.013265  -0.008183  -0.044448
     3  C    0.984417   3.429870   1.600722   0.070178  -0.065501  -0.391999
     4  C   -1.771172  -1.744242  -2.272299   0.040424  -0.345776   0.581918
     5  C   -1.591614  -1.836733  -0.907969  -0.082294   0.133463   0.110834
     6  C   -0.871643  -1.389861  -0.117687   0.022680  -0.145653   0.102211
     7  S   19.753120  -0.627824   0.383178   0.331633  -0.130070  -0.219633
     8  C   -0.627824  11.927406   1.620364  -0.336553  -0.505360   0.460120
     9  C    0.383178   1.620364  11.399385   0.479922  -2.755817   1.544092
    10  N    0.331633  -0.336553   0.479922   7.215375  -0.519193   0.209627
    11  C   -0.130070  -0.505360  -2.755817  -0.519193  13.266350  -6.252328
    12  C   -0.219633   0.460120   1.544092   0.209627  -6.252328  12.772169
    13  C   -0.057448  -0.041350  -0.051258   0.061255  -2.359432   1.930760
    14  N   -0.000107  -0.000394   0.008099  -0.003198   0.107282  -0.282504
    15  C   -0.002435   0.000887  -0.033827  -0.006510  -0.089014   0.122908
    16  C    0.001979  -0.003854   0.002556   0.006081   0.094367  -0.019722
    17  S    0.004254   0.010285  -0.005112   0.004087   0.145917  -0.434831
    18  C   -0.109032  -0.784766  -1.739386  -0.190264   2.261776  -1.614386
    19  N    0.001359   0.020783   0.126537  -0.008892   0.089032  -0.254705
    20  S   -0.005160  -0.104775  -0.234954   0.004915   0.030095  -0.029625
    21  N    0.018013  -0.121654  -0.224561   0.026033  -0.055627   0.102033
    22  C   -0.753831  -1.126321  -2.097787  -0.069211   1.655266  -1.514478
    23  C    0.519648  -1.591183  -0.401595   0.023967   0.086229  -0.030246
    24  Si  -0.120087   0.088043  -0.011345  -0.005347   0.014389   0.000987
    25  H    0.099290   0.009930   0.004157   0.000719  -0.001400   0.000504
    26  H   -0.095808   0.020432  -0.006225  -0.000235  -0.003507  -0.000222
    27  C   -0.017575   0.091723  -0.000513  -0.000694  -0.001290   0.000018
    28  C    0.029292  -0.097171   0.001257   0.000767   0.000729  -0.000038
    29  C   -0.760906  -0.099402  -0.030312   0.003792  -0.009626   0.000232
    30  H    0.015877   0.060330   0.005157  -0.000161  -0.000356   0.000137
    31  H    0.000208  -0.014949   0.009945  -0.000075   0.000469   0.000068
    32  H   -0.007059  -0.009282  -0.026435   0.000162  -0.000813   0.000405
    33  H    0.000102   0.012965   0.040038  -0.001527  -0.007152   0.009500
    34  H   -0.017986  -0.010378  -0.153106  -0.155041   0.868321  -0.426343
    35  H   -0.000049  -0.000050  -0.000382   0.000004  -0.008764   0.006376
    36  H    0.000040  -0.000151  -0.000054   0.000148   0.003302   0.006005
    37  H   -0.234550  -0.129520   0.003307   0.008426  -0.016475   0.002407
    38  H   -0.006793   0.007641  -0.000257  -0.000018  -0.000052   0.000006
    39  H   -0.011372  -0.001442  -0.000332   0.000010  -0.000028  -0.000002
    40  H   -0.013548  -0.012249   0.002157  -0.000148   0.000164  -0.000013
    41  H    0.037621   0.011803  -0.000649  -0.000039   0.000381  -0.000083
             13         14         15         16         17         18
     1  C   -0.011009   0.000036  -0.000086   0.000030   0.000605  -0.159453
     2  C    0.022544  -0.000049   0.000298  -0.000230  -0.002338   0.304048
     3  C   -0.066113   0.000139  -0.000112  -0.000649  -0.004079  -0.960275
     4  C    0.204622  -0.001672   0.003678  -0.002116  -0.008678   1.147462
     5  C    0.005781   0.000218   0.000038  -0.000114   0.000006   0.295584
     6  C    0.026931  -0.000253   0.000283  -0.000127  -0.000436   0.213474
     7  S   -0.057448  -0.000107  -0.002435   0.001979   0.004254  -0.109032
     8  C   -0.041350  -0.000394   0.000887  -0.003854   0.010285  -0.784766
     9  C   -0.051258   0.008099  -0.033827   0.002556  -0.005112  -1.739386
    10  N    0.061255  -0.003198  -0.006510   0.006081   0.004087  -0.190264
    11  C   -2.359432   0.107282  -0.089014   0.094367   0.145917   2.261776
    12  C    1.930760  -0.282504   0.122908  -0.019722  -0.434831  -1.614386
    13  C    8.509750   0.278613  -0.056050  -0.085768  -0.338452  -0.873996
    14  N    0.278613   7.039277  -0.075086   0.069459   0.010592   0.043656
    15  C   -0.056050  -0.075086   6.254841  -0.657565   0.254669  -0.288684
    16  C   -0.085768   0.069459  -0.657565   7.021994  -0.595396   0.264863
    17  S   -0.338452   0.010592   0.254669  -0.595396  16.608771  -0.239523
    18  C   -0.873996   0.043656  -0.288684   0.264863  -0.239523   7.840154
    19  N   -0.098866  -0.001341   0.015648   0.004635   0.026424  -0.018787
    20  S    0.020091   0.001217   0.012193  -0.020818   0.028675  -0.095798
    21  N    0.026623   0.000343  -0.005540   0.004171  -0.013951   0.194328
    22  C   -0.260247  -0.004984   0.014477  -0.004008   0.034291   0.575225
    23  C   -0.000332  -0.000038   0.000038  -0.000014  -0.000220   0.062508
    24  Si   0.000339   0.000013  -0.000009   0.000005  -0.000059   0.001660
    25  H   -0.000068  -0.000001  -0.000002  -0.000000   0.000008  -0.000561
    26  H    0.000132  -0.000005   0.000002   0.000000   0.000006   0.000120
    27  C   -0.000001  -0.000000  -0.000000   0.000000   0.000003  -0.000535
    28  C   -0.000009   0.000000  -0.000000  -0.000000  -0.000001   0.000189
    29  C    0.000010  -0.000003   0.000003  -0.000001   0.000005  -0.001019
    30  H   -0.000058  -0.000000  -0.000001   0.000001   0.000003  -0.002398
    31  H   -0.000059   0.000000  -0.000000  -0.000001   0.000001  -0.000011
    32  H    0.000439   0.000000   0.000005  -0.000004  -0.000004   0.007933
    33  H   -0.002492  -0.000127  -0.000035   0.000107  -0.000848  -0.036891
    34  H   -0.112851  -0.000804  -0.005164   0.006867  -0.002195   0.081023
    35  H    0.006523  -0.101534   0.516013  -0.219949   0.036075  -0.011420
    36  H   -0.008250   0.015414  -0.023512   0.307446  -0.006123   0.000290
    37  H    0.000209  -0.000022   0.000001  -0.000001   0.000009  -0.001580
    38  H   -0.000000  -0.000000  -0.000000   0.000000   0.000000  -0.000038
    39  H    0.000000  -0.000000   0.000000  -0.000000  -0.000000  -0.000001
    40  H    0.000008   0.000000   0.000000  -0.000000   0.000000   0.000313
    41  H   -0.000004   0.000000  -0.000000   0.000000   0.000000   0.000001
             19         20         21         22         23         24
     1  C    0.004490  -0.010169   0.003999  -0.412734  -0.864039  -0.098546
     2  C   -0.003347   0.066897   0.062240   0.253688  -0.021832   0.052193
     3  C    0.121314  -0.094590  -0.020855  -1.145913  -0.691099  -0.162133
     4  C   -0.185083   0.134141   0.163110   0.721094  -4.077623  -0.256689
     5  C   -0.003919   0.039915  -0.025729   0.687654   0.147890   0.206129
     6  C   -0.020202   0.017724  -0.055873   0.215921 -16.841847  -1.167616
     7  S    0.001359  -0.005160   0.018013  -0.753831   0.519648  -0.120087
     8  C    0.020783  -0.104775  -0.121654  -1.126321  -1.591183   0.088043
     9  C    0.126537  -0.234954  -0.224561  -2.097787  -0.401595  -0.011345
    10  N   -0.008892   0.004915   0.026033  -0.069211   0.023967  -0.005347
    11  C    0.089032   0.030095  -0.055627   1.655266   0.086229   0.014389
    12  C   -0.254705  -0.029625   0.102033  -1.514478  -0.030246   0.000987
    13  C   -0.098866   0.020091   0.026623  -0.260247  -0.000332   0.000339
    14  N   -0.001341   0.001217   0.000343  -0.004984  -0.000038   0.000013
    15  C    0.015648   0.012193  -0.005540   0.014477   0.000038  -0.000009
    16  C    0.004635  -0.020818   0.004171  -0.004008  -0.000014   0.000005
    17  S    0.026424   0.028675  -0.013951   0.034291  -0.000220  -0.000059
    18  C   -0.018787  -0.095798   0.194328   0.575225   0.062508   0.001660
    19  N    7.734487  -0.159144  -0.204098   0.202033  -0.001271   0.000020
    20  S   -0.159144  15.785592  -0.080777  -0.243568   0.008908   0.000144
    21  N   -0.204098  -0.080777   7.776849  -0.011383  -0.018958  -0.002465
    22  C    0.202033  -0.243568  -0.011383   8.865256   0.482065   0.060062
    23  C   -0.001271   0.008908  -0.018958   0.482065  32.052252   2.004475
    24  Si   0.000020   0.000144  -0.002465   0.060062   2.004475  13.221514
    25  H    0.000014  -0.000031   0.000190  -0.007244  -0.362728   0.281574
    26  H   -0.000006   0.000036   0.000292   0.003452   0.086748   0.391948
    27  C    0.000011  -0.000038   0.000382  -0.004405  -1.351362  -0.584025
    28  C   -0.000007   0.000015  -0.000246  -0.000304   0.987746   0.330718
    29  C   -0.000013  -0.000130   0.001478  -0.039715  -3.733351  -0.936430
    30  H    0.000102  -0.000212   0.000588  -0.000324  -0.140071  -0.006463
    31  H   -0.000094  -0.000176  -0.000406  -0.004270   0.118172  -0.017487
    32  H   -0.000496   0.002304   0.002676   0.002550   0.002712   0.001775
    33  H    0.005444  -0.027486  -0.062828  -0.018725  -0.011225   0.000510
    34  H    0.001006   0.001859  -0.000827   0.079964   0.006233   0.001094
    35  H    0.000797   0.000265  -0.000050   0.000427   0.000002  -0.000001
    36  H    0.001695  -0.000286   0.000183   0.000108  -0.000000   0.000000
    37  H   -0.000097  -0.000319   0.000511  -0.027655  -0.058936  -0.093413
    38  H    0.000001  -0.000002   0.000015  -0.000144  -0.113360  -0.073857
    39  H   -0.000000   0.000000  -0.000001  -0.000066  -0.090039  -0.012143
    40  H   -0.000003   0.000026  -0.000044   0.000822  -0.040341   0.018095
    41  H    0.000003   0.000012   0.000016   0.001164   0.261253   0.019836
             25         26         27         28         29         30
     1  C    0.031726  -0.118832   0.037364  -0.002907  -0.712138   0.825627
     2  C   -0.000033   0.010307  -0.034831   0.010729   0.037702  -0.327078
     3  C    0.002056   0.020688   0.044541  -0.008578   0.177965   0.234345
     4  C    0.013548   0.015535   0.120479  -0.098160   0.643049   0.060600
     5  C   -0.017146   0.092237  -0.149775   0.149071   0.569586  -0.534239
     6  C    0.301716  -0.114195   0.610791  -0.449593   0.198357   0.109614
     7  S    0.099290  -0.095808  -0.017575   0.029292  -0.760906   0.015877
     8  C    0.009930   0.020432   0.091723  -0.097171  -0.099402   0.060330
     9  C    0.004157  -0.006225  -0.000513   0.001257  -0.030312   0.005157
    10  N    0.000719  -0.000235  -0.000694   0.000767   0.003792  -0.000161
    11  C   -0.001400  -0.003507  -0.001290   0.000729  -0.009626  -0.000356
    12  C    0.000504  -0.000222   0.000018  -0.000038   0.000232   0.000137
    13  C   -0.000068   0.000132  -0.000001  -0.000009   0.000010  -0.000058
    14  N   -0.000001  -0.000005  -0.000000   0.000000  -0.000003  -0.000000
    15  C   -0.000002   0.000002  -0.000000  -0.000000   0.000003  -0.000001
    16  C   -0.000000   0.000000   0.000000  -0.000000  -0.000001   0.000001
    17  S    0.000008   0.000006   0.000003  -0.000001   0.000005   0.000003
[...]
 0929,-0.00010478,0.00002233,-0.00004308,-0.00002472,-0.00003106,0.0000
 0093,-0.00015677,0.00001482,-0.00002774,-0.00000119,-0.00000232,0.0000
 0269,0.00000134,-0.00000124,-0.00000005,0.00000002,0.00000112,0.000000
 49,-0.03709921,0.06231048,0.00021013,-0.00010568,-0.00016480,0.0000018
 5,-0.00000795,0.00011247,-0.00007959,0.00001497,-0.00006966,0.00008988
 ,0.00059946,0.00064222,-0.00061083,-0.00032735,0.00127529,0.00313346,0
 .00140400,-0.00171925,0.00005925,-0.00040485,0.00091529,0.00022432,-0.
 00047719,-0.00039538,-0.00006317,0.00021808,-0.00021978,0.00014740,-0.
 00010205,0.00001183,-0.00003455,0.00007672,-0.00003917,-0.00001518,-0.
 00004458,0.00000382,-0.00001050,0.00004764,0.00000308,0.00001653,0.000
 00101,-0.00000278,-0.00001777,-0.00002090,-0.00000011,0.00003036,-0.00
 001681,0.00000120,-0.00001880,0.00000596,0.00000073,0.00001340,-0.0000
 1705,0.00001293,0.00002524,-0.00001448,-0.00000064,-0.00004957,-0.0000
 0921,-0.00000377,0.00004411,0.00001490,-0.00000171,-0.00005734,-0.0000
 2498,0.00004940,-0.04213404,0.00381032,-0.03979314,-0.01937856,0.00244
 068,-0.00417472,0.00091470,-0.00118568,0.00168116,-0.00003192,0.002166
 45,-0.00276096,0.00121506,0.00088249,0.00010832,0.00030577,0.00075291,
 -0.00131181,0.02517322,-0.00669903,-0.00190232,-0.00008087,0.00000653,
 0.00004457,0.00013648,0.00003109,0.00002377,-0.00000290,-0.00000442,-0
 .00002932,0.00000734,-0.00000422,-0.00004536,0.00000176,-0.00000310,-0
 .00000116,0.00000236,-0.00000187,0.00000145,0.00000097,-0.00000027,-0.
 00000008,0.02862377,0.00012830,0.04913319,-0.00007415,0.00007617,-0.00
 004803,-0.00002328,-0.00001826,0.00000437,0.00000567,0.00003140,-0.000
 00176,0.00002009,-0.00013579,0.00007949,0.00009307,0.00015879,0.000136
 48,-0.00002699,0.00008726,-0.00046759,0.00001745,-0.00001279,-0.000009
 08,-0.00003474,0.00019364,-0.00000441,0.00004330,-0.00013922,0.0000101
 7,-0.00008278,0.00004847,-0.00000859,0.00002198,-0.00003511,0.00000365
 ,0.00000443,0.00001959,0.00000484,0.00000521,-0.00002690,0.00000062,-0
 .00001104,-0.00000129,-0.00000066,0.00001254,0.00001491,0.00000009,-0.
 00001910,0.00000980,-0.00000140,0.00001089,-0.00000361,0.00000077,-0.0
 0000302,0.00000866,-0.00000682,-0.00001880,0.00001192,-0.00000031,0.00
 002691,-0.00000364,0.00000117,-0.00002544,-0.00000232,-0.00000304,0.00
 003316,0.00002101,-0.00000129,0.00148635,0.00061905,0.00051698,0.00027
 450,0.00116838,-0.00074383,-0.00020463,-0.00025279,0.00027423,-0.00020
 798,0.00021460,-0.00025315,-0.03272748,0.00940656,-0.00295111,0.002565
 07,-0.00336820,0.00152232,0.01273190,0.00099219,0.00204753,-0.00004147
 ,-0.00002090,-0.00002635,-0.00000007,-0.00002347,-0.00001252,0.0000006
 9,-0.00000005,0.00000292,0.00000078,-0.00000185,-0.00000481,-0.0000019
 6,0.00000177,-0.00000013,-0.00000180,0.00000122,-0.00000017,-0.0000005
 7,-0.00000029,0.00000015,-0.00012828,-0.00014772,0.00026084,0.02393171
 ,0.00005369,-0.00004659,0.00001386,-0.00002857,0.00003667,0.00000238,0
 .00002533,-0.00001669,-0.00000093,-0.00004634,0.00015768,-0.00001552,-
 0.00004740,-0.00021238,0.00006517,0.00038537,0.00003616,0.00047468,-0.
 00013091,0.00008125,0.00008263,0.00004996,-0.00043814,-0.00001705,-0.0
 0013012,0.00036012,-0.00005225,0.00019081,-0.00012905,0.00002034,-0.00
 006132,0.00009709,-0.00001261,-0.00001823,-0.00005226,0.00000136,-0.00
 000186,0.00007920,-0.00000256,0.00001759,0.00000044,0.00000056,-0.0000
 3714,-0.00004048,0.00000060,0.00005610,-0.00003065,0.00000277,-0.00003
 409,0.00000444,-0.00000108,0.00001190,-0.00002903,0.00000345,0.0000442
 8,-0.00003784,0.00000273,-0.00008143,-0.00001429,-0.00000187,0.0000687
 3,0.00002700,0.00000002,-0.00008414,-0.00005859,0.00000522,-0.00009457
 ,-0.00165423,-0.00015708,-0.00006203,-0.00510001,0.00669481,0.00023714
 ,-0.00022270,-0.00056370,-0.00018027,-0.00034504,-0.00059692,0.0076769
 3,-0.30791362,0.10391459,0.00055120,-0.00150434,-0.00309713,0.00098562
 ,0.00096611,-0.00021248,-0.00002286,0.00001312,0.00002865,0.00002194,-
 0.00000730,-0.00003124,-0.00001768,-0.00001052,0.00000120,-0.00000956,
 -0.00000530,-0.00000124,0.00000624,-0.00000106,-0.00000035,0.00000585,
 -0.00000251,0.00000045,0.00000200,0.00000158,-0.00000003,0.00006167,-0
 .00015807,0.00015580,-0.00854713,0.31514085,0.00006411,-0.00002280,-0.
 00000359,-0.00003318,0.00001382,0.00001752,0.00001453,0.00000665,0.000
 00060,-0.00000322,0.00011853,-0.00001571,-0.00015006,-0.00020826,0.000
 08791,0.00046136,0.00023841,0.00074451,-0.00002895,-0.00000985,0.00007
 315,-0.00000253,-0.00035224,-0.00004936,-0.00010499,0.00025089,-0.0000
 5783,0.00014300,-0.00007890,0.00002322,-0.00003512,0.00006949,-0.00001
 292,-0.00001096,-0.00003889,-0.00000054,-0.00000438,0.00005095,-0.0000
 0102,0.00001224,0.00000080,0.00000063,-0.00002088,-0.00002382,0.000000
 64,0.00003488,-0.00001957,0.00000168,-0.00002152,0.00000501,-0.0000006
 9,0.00000780,-0.00001925,0.00000426,0.00002788,-0.00001871,0.00000202,
 -0.00005920,-0.00001797,-0.00000204,0.00004941,0.00002291,0.00000041,-
 0.00006162,-0.00003691,0.00000986,0.00021216,-0.00344176,-0.00045986,0
 .00032119,-0.00890796,0.00473362,0.00023992,0.00020306,-0.00043524,-0.
 00026701,-0.00001764,-0.00057631,-0.00160370,0.08658237,-0.08033372,-0
 .00086970,0.03293241,-0.00854174,0.00148793,-0.00122943,-0.00454648,-0
 .00007398,0.00002577,0.00001871,0.00001400,0.00000650,-0.00002552,-0.0
 0000697,-0.00000122,0.00000003,-0.00000500,-0.00000458,-0.00000506,0.0
 0000306,-0.00000105,-0.00000093,0.00000274,-0.00000158,0.00000017,0.00
 000123,-0.00000025,-0.00000010,-0.00000057,-0.00006331,0.00016650,0.00
 111787,-0.10742285,0.08820959,-0.00001440,0.00002402,0.00002188,-0.000
 06266,-0.00004129,-0.00000895,-0.00000575,0.00004864,-0.00000753,0.000
 04040,-0.00005500,-0.00001529,0.00000244,-0.00002102,-0.00007304,-0.00
 007507,0.00033056,0.00043147,0.00000769,0.00001022,0.00001020,-0.00003
 514,0.00011320,0.00000254,0.00002294,-0.00009297,-0.00000216,-0.000056
 51,0.00003405,-0.00000215,0.00001950,-0.00001830,0.00000020,0.00000159
 ,0.00001077,-0.00000095,0.00000465,-0.00001806,0.00000177,-0.00000943,
 -0.00000106,-0.00000057,0.00000870,0.00001077,-0.00000009,-0.00001364,
 0.00000708,-0.00000123,0.00000763,-0.00000455,0.00000081,0.00000023,0.
 00000566,0.00000185,-0.00001578,0.00001022,-0.00000120,0.00001367,-0.0
 0001099,0.00000103,-0.00001531,0.00000541,-0.00000153,0.00002235,0.000
 01593,0.00000055,0.00198320,0.00049746,0.00061933,0.00842873,0.0003790
 4,0.00111310,-0.00026614,-0.00150428,-0.00073594,-0.00052065,0.0017981
 9,0.00091790,0.01248615,0.00257862,0.00274381,-0.04660522,0.02268155,0
 .02143781,0.00320865,-0.00056021,-0.00059677,-0.00001839,-0.00001607,0
 .00002180,-0.00004163,-0.00000441,0.00000038,0.00000046,-0.00000009,-0
 .00000114,-0.00000365,-0.00000169,0.00000436,-0.00000112,0.00000211,0.
 00000002,-0.00000128,0.00000107,0.00000004,-0.00000038,0.00000036,0.,0
 .00000524,-0.00042215,-0.00059850,-0.00726893,-0.00056413,-0.00084691,
 0.02863620,0.00005828,-0.00006335,-0.00004505,-0.00005372,0.00003412,0
 .00000080,0.00002480,-0.00001603,-0.00000378,-0.00006080,0.00017202,0.
 00001893,-0.00004346,-0.00024251,0.00001261,0.00106871,-0.00040126,-0.
 00074546,-0.00028745,-0.00001174,-0.00014846,0.00012106,-0.00052122,0.
 00005751,-0.00016632,0.00036685,0.00003391,0.00019919,-0.00014581,0.00
 000248,-0.00006876,0.00009902,0.00000152,-0.00001745,-0.00005731,0.000
 00192,-0.00000415,0.00008119,-0.00000529,0.00001739,0.00000074,0.00000
 165,-0.00003483,-0.00004048,0.00000044,0.00005801,-0.00003234,0.000003
 95,-0.00003538,0.00000867,-0.00000193,0.00000996,-0.00003210,-0.000002
 03,0.00004333,-0.00003977,0.00000264,-0.00008282,-0.00001773,-0.000002
 90,0.00006876,0.00002929,0.00000457,-0.00007649,-0.00007020,-0.0000062
 0,-0.00128647,-0.00329055,0.00231078,0.00041497,-0.00086075,0.00160397
 ,-0.00009428,0.00033335,-0.00018441,-0.00004064,0.00048383,-0.00014824
 ,-0.00032334,0.00785826,0.00666430,0.02289049,-0.20562538,-0.13330132,
 0.00395630,-0.01417812,-0.01957267,0.00000845,-0.00000381,0.00002246,-
 0.00003259,0.00001432,-0.00002443,-0.00002059,-0.00001110,-0.00000476,
 -0.00001365,-0.00000532,-0.00000252,0.00000599,-0.00000182,0.00000033,
 0.00000458,-0.00000246,-0.00000012,0.00000221,-0.00000086,-0.00000009,
 0.00022239,-0.00031799,-0.00019913,-0.00046639,0.00115865,-0.00039046,
 -0.02584481,0.21458602,-0.00002432,0.00000349,-0.00002317,0.00000460,0
 .00000260,0.00003100,-0.00000267,-0.00000150,-0.00000083,-0.00001573,0
 .00002147,-0.00002255,-0.00000245,0.00001379,0.00002024,-0.00030247,0.
 00035150,0.00054186,0.00004654,0.00007969,0.00002896,0.00001434,0.0000
 7928,-0.00003479,0.00002275,-0.00000054,-0.00003781,-0.00000450,-0.000
 00402,0.00001335,-0.00000122,0.00000434,-0.00000572,-0.00000338,-0.000
 00055,0.00000010,0.00000155,0.00000569,0.00000092,-0.00000099,-0.00000
 190,0.00000118,-0.00000111,-0.00000067,0.00000014,0.00000316,-0.000002
 30,0.00000059,-0.00000312,0.00000135,-0.00000071,0.00000323,-0.0000022
 5,0.00000181,0.00000257,-0.00000320,0.00000150,0.00000049,0.00000348,-
 0.00000236,-0.00000007,-0.00000093,0.00000333,-0.00000654,0.00000490,0
 .00000666,0.00050890,0.00251214,-0.00029868,0.00113664,0.00243626,-0.0
 0338521,0.00013769,-0.00119954,-0.00032087,-0.00012360,-0.00070424,-0.
 00007230,0.00445834,-0.02337718,-0.01906250,0.02136101,-0.13159198,-0.
 17291142,-0.00171272,0.00906005,0.00897987,-0.00000615,-0.00001869,0.0
 0001124,0.00005531,-0.00001762,-0.00000530,-0.00000325,-0.00000407,-0.
 00000409,0.00000128,0.00000073,-0.00000629,0.00000010,0.00000128,-0.00
 000189,-0.00000002,0.00000031,-0.00000045,0.00000027,-0.00000099,-0.00
 000037,-0.00008634,0.00000585,-0.00001356,-0.00087643,0.00032905,0.001
 63477,-0.02472454,0.14347642,0.18434877,-0.00038960,-0.00096595,-0.000
 48136,-0.00002357,-0.00011765,-0.00014374,-0.00009869,0.00002464,0.000
 02470,0.00023155,0.00018557,-0.00001822,0.00014646,0.00041696,-0.00036
 488,0.00027776,-0.00129841,-0.00027122,0.00005217,0.00002150,-0.000069
 75,-0.00006796,0.00000402,0.00000529,0.00004387,0.00001038,0.00001181,
 -0.00000301,0.00000673,-0.00000954,-0.00000030,-0.00001074,0.00000403,
 0.00000421,0.00000513,-0.00000041,-0.00000183,-0.00000400,-0.00000150,
 0.00000352,0.00000089,-0.00000202,0.00000043,0.00000025,0.00000015,-0.
 00000157,0.00000141,-0.00000123,0.00000167,0.00000252,0.00000112,-0.00
 000182,0.00000699,0.00000521,0.00000125,0.00000176,-0.00000363,0.00001
 318,0.00001602,0.00000368,-0.00000120,-0.00001304,-0.00000547,-0.00000
 663,0.00000385,0.00000281,-0.00671367,0.00050862,0.00215179,-0.0004145
 9,0.00076001,-0.00043000,0.00004034,-0.00011594,0.00015866,0.00001307,
 -0.00008436,0.00017543,0.00042859,-0.00005908,-0.00132101,0.00328875,-
 0.00160076,0.00030327,-0.26305739,-0.05316387,0.07391650,-0.00028074,-
 0.00024822,-0.00024233,0.00003624,0.00017585,0.00015870,-0.00000717,-0
 .00001341,0.00000468,0.00001904,-0.00000005,0.00000793,-0.00000135,-0.
 00000185,0.00000171,0.00000005,-0.00000039,0.00000072,-0.00000009,-0.0
 0000007,0.00000056,0.00053387,0.00064009,0.00179687,-0.00023581,-0.000
 06156,-0.00004238,-0.00007619,-0.00072776,0.00033325,0.28627835,-0.000
 64870,-0.00020324,-0.00018999,0.00001796,-0.00007238,-0.00000366,-0.00
 000554,0.00003041,-0.00005698,-0.00006349,-0.00030392,0.00017597,-0.00
 023775,-0.00013380,-0.00009367,0.00138886,0.00080638,-0.00039612,-0.00
 003009,0.00010695,0.00001796,0.00002666,0.00035492,-0.00000513,0.00004
 469,-0.00025770,-0.00001692,-0.00013018,0.00006998,0.00000634,0.000027
 15,-0.00005276,-0.00000459,0.00000689,0.00002909,0.00000365,0.00000419
 ,-0.00003764,0.00000302,-0.00001055,-0.00000267,-0.00000067,0.00001629
 ,0.00002022,-0.00000008,-0.00002704,0.00001388,-0.00000227,0.00001533,
 -0.00000438,0.00000111,-0.00001046,0.00001232,-0.00000141,-0.00002338,
 0.00001436,-0.00000153,0.00003859,0.00000259,0.00000100,-0.00004022,-0
 .00001145,-0.00000108,0.00006189,0.00003041,-0.00000014,0.01888288,0.0
 0178618,-0.00720340,0.00004400,-0.00276058,0.00024328,-0.00014482,0.00
 068735,-0.00018848,-0.00009434,0.00023022,0.00001245,0.00002807,-0.002
 19561,0.00006355,-0.02853742,-0.00803600,0.01290020,-0.05896859,-0.056
 87627,0.01878925,-0.00047370,0.00004249,-0.00038298,0.00008561,0.00013
 599,0.00010916,0.00001968,0.00002524,0.00001163,0.00001501,-0.00000096
 ,-0.00000841,-0.00000227,0.00000247,0.00000002,-0.00000203,0.00000129,
 0.,-0.00000085,-0.00000020,0.00000021,0.00138562,-0.00204022,-0.003494
 23,0.00241974,0.00011986,0.00091071,0.00109917,0.00014648,-0.00059698,
 0.06087654,0.06687835,0.00000779,0.00021329,-0.00042210,-0.00033723,-0
 .00013337,0.00019987,0.00012290,0.00027296,-0.00002276,-0.00001580,-0.
 00029324,0.00005128,0.00040829,-0.00034769,0.00019894,0.00070206,0.001
 13688,0.00093823,-0.00018446,0.00012147,0.00007044,-0.00002708,0.00037
 041,0.00000656,0.00002383,-0.00027882,-0.00003569,-0.00015170,0.000086
 74,0.00001647,0.00003347,-0.00005417,-0.00001032,0.00000814,0.00003049
 ,-0.00000051,0.00000412,-0.00004612,0.00000425,-0.00001383,-0.00000331
 ,-0.00000018,0.00002087,0.00002644,-0.00000071,-0.00003509,0.00001788,
 -0.00000184,0.00002067,-0.00000700,0.00000145,-0.00001236,0.00001891,-
 0.00000075,-0.00003725,0.00002760,-0.00000224,0.00003886,-0.00001793,0
 .00000528,-0.00004444,0.00000661,-0.00001074,0.00007570,0.00003224,0.0
 0000343,0.01924018,0.00292519,-0.00707463,0.00219487,-0.00061495,0.000
 24443,-0.00020855,0.00022360,-0.00070455,-0.00022451,0.00011891,0.0001
 3360,0.00025181,0.00153379,0.00059604,0.01054163,0.00634964,-0.0062645
 7,0.07409136,0.01576896,-0.06930459,-0.00078996,-0.00021919,0.00024912
 ,-0.00003314,-0.00008354,-0.00014953,0.00004508,0.00005305,0.00001495,
 -0.00002106,0.00000989,-0.00003934,-0.00000307,0.00000283,-0.00000181,
 -0.00000303,0.00000188,0.,-0.00000115,-0.00000015,-0.00000011,0.000971
 37,-0.00154886,-0.00266378,-0.00135652,0.00018134,-0.00036637,-0.00006
 836,0.00016144,0.00011031,-0.08113936,-0.01955631,0.07632125,-0.000193
 59,-0.00019597,0.00015876,0.00016186,0.00004925,-0.00011932,-0.0000593
 4,-0.00014693,0.00001634,-0.00005822,-0.00009788,-0.00011208,-0.000082
 20,0.00025039,-0.00016725,-0.00053471,-0.00083962,0.00054759,0.0000310
 3,-0.00004841,-0.00009241,0.00000663,0.00001080,0.00002672,0.00001033,
 -0.00000307,0.00001232,-0.00000326,-0.00001867,0.00000122,-0.00000644,
 -0.00000701,0.00000249,0.00000052,0.00000119,0.00000111,0.00000257,0.0
 0000185,-0.00000140,-0.00000163,0.00000057,0.00000248,-0.00000152,-0.0
 0000344,0.00000040,0.00000374,-0.00000189,0.00000175,-0.00000273,0.000
 00059,-0.00000182,-0.00000059,-0.00000422,0.00000100,0.00000530,-0.000
 01214,0.00000263,0.00000568,0.00001397,-0.00000519,-0.00000323,-0.0000
 1274,0.00001177,0.00000030,-0.00000988,-0.00000793,0.00521154,0.001278
 78,0.01029312,0.00022533,0.00145420,0.00147312,-0.00006234,-0.00029299
 ,0.00000811,0.00006966,-0.00039624,0.00034815,0.00017306,0.00001290,0.
 00023970,0.00181864,-0.00123039,0.00256759,-0.14167042,0.01406027,-0.1
 2548721,0.00031981,0.00002704,-0.00016322,0.00002589,0.00003709,0.0000
 8012,-0.00002412,-0.00002617,-0.00000900,0.00001088,-0.00000289,0.0000
 2233,0.00000161,0.00000007,-0.00000131,0.00000043,-0.00000012,-0.00000
 096,0.00000027,-0.00000029,-0.00000063,0.00169038,-0.00007805,0.000749
 00,-0.00014735,-0.00019099,0.00003749,0.00020687,0.00060731,-0.0001903
 9,-0.02003122,0.00294659,-0.02409508,0.15290059,0.00008775,-0.00013188
 ,0.00001519,0.00002399,-0.00001672,-0.00002503,-0.00007853,-0.00003297
 ,-0.00003190,0.00002032,0.00040464,-0.00007693,-0.00079194,-0.00049051
 ,0.00033034,0.00097954,0.00172575,-0.00075111,0.00017872,-0.00014022,0
 .00000686,0.00002529,-0.00048259,0.00004928,-0.00010907,0.00030285,0.0
 0002211,0.00018387,-0.00008584,0.00000824,-0.00002769,0.00008014,0.000
 00905,-0.00001189,-0.00004694,0.00000220,-0.00000990,0.00004914,-0.000
 00385,0.00001556,0.00000209,0.00000101,-0.00001778,-0.00002149,0.00000
 054,0.00003103,-0.00001692,0.00000173,-0.00001941,0.00000506,-0.000001
 20,0.00001063,-0.00001815,-0.00000264,0.00002933,-0.00001130,0.0000005
 1,-0.00006161,-0.00001833,-0.00000356,0.00005633,0.00002062,0.00001178
 ,-0.00007816,-0.00003193,-0.00000838,-0.00956297,-0.00126566,-0.018292
 16,0.00112190,-0.00390746,-0.00092893,-0.00000976,0.00061177,-0.000144
 53,-0.00015665,0.00080236,-0.00010294,0.00005577,-0.00397977,0.0012894
 9,0.02004326,-0.00150661,0.02623097,0.01362366,-0.04860044,0.01794093,
 0.00009762,0.00004707,-0.00000019,-0.00002958,-0.00000405,0.00001994,-
 0.00001096,-0.00001090,-0.00000471,0.00000170,-0.00000451,0.00000859,0
 .00000273,-0.00000261,-0.00000085,0.00000219,-0.00000168,-0.00000020,0
 .00000096,0.00000003,0.00000005,-0.00052035,0.00086208,0.00040772,-0.0
 0229737,-0.00024952,0.00089097,-0.00048303,0.00061719,-0.00086451,-0.0
 0518262,0.00144234,-0.00648781,-0.01713289,0.05410587,0.00019962,-0.00
 000937,-0.00014332,-0.00001250,0.00003994,0.00007127,0.00002751,-0.000
 00565,-0.00000072,0.00001993,0.00025506,-0.00004368,-0.00034875,-0.000
 42251,0.00013502,0.00095065,0.00118035,-0.00064186,0.00005578,-0.00009
 127,-0.00001191,-0.00008836,-0.00069729,0.00004075,-0.00017681,0.00045
 452,-0.00000657,0.00025716,-0.00011127,0.00001759,-0.00005663,0.000102
 80,0.00000240,-0.00001044,-0.00005941,0.00000077,-0.00001133,0.0000755
 1,-0.00000551,0.00002290,0.00000426,0.00000335,-0.00003116,-0.00003719
 ,0.00000071,0.00005271,-0.00002854,0.00000437,-0.00003125,0.00001013,-
 0.00000275,0.00001063,-0.00002553,-0.00000153,0.00004636,-0.00002009,0
 .00000292,-0.00009208,-0.00002592,-0.00000396,0.00008303,0.00003297,0.
 00000713,-0.00010918,-0.00006270,-0.00000139,-0.00886125,-0.00184341,-
 0.01802556,-0.00015489,-0.00244795,-0.00070976,0.00010926,0.00049559,-
 0.00029709,-0.00009887,0.00033504,-0.00055792,-0.00111996,0.00172016,0
 .00115840,-0.00501475,0.00344374,-0.00970360,-0.12595951,0.01771237,-0
 .20382856,-0.00009230,0.00007570,0.00010222,-0.00002174,-0.00001668,0.
 00001925,-0.00000502,0.00000036,-0.00000101,-0.00000349,-0.00000501,-0
 .00001222,0.00000385,-0.00000446,-0.00000200,0.00000402,-0.00000308,-0
 .00000073,0.00000164,-0.00000069,-0.00000037,-0.00002331,-0.00007179,0
 .00112605,0.00079350,0.00020524,-0.00029478,0.00035598,0.00040662,0.00
 047427,0.00547917,-0.00104448,0.00791119,0.13384989,-0.01951608,0.2232
 1912\\0.00000136,-0.00000023,-0.00000617,-0.00000016,0.00000011,-0.000
 00365,0.00000243,-0.00000144,-0.00000950,-0.00000116,0.00000253,0.0000
 0314,0.00000198,-0.00000229,0.00000508,-0.00000364,-0.00000212,-0.0000
 0471,0.00000139,0.00000040,0.00000389,-0.00000037,-0.00000201,-0.00000
 357,-0.00000501,0.00000111,-0.00000080,0.00000331,0.00000036,0.0000020
 2,-0.00000162,-0.00000413,0.00000058,0.00000097,0.00000177,-0.00000009
 ,-0.00000357,-0.00000001,-0.00000058,-0.00000218,-0.00000007,0.0000044
 4,-0.00000219,-0.00000240,0.00000223,-0.00000335,-0.00000079,-0.000000
 71,0.00000156,-0.00000113,-0.00000177,0.00000013,-0.00000283,-0.000000
 56,-0.00000210,0.00000375,-0.00000792,-0.00000021,0.00000286,-0.000004
 85,-0.00000404,0.00000074,-0.00000897,-0.00000216,0.00000185,-0.000001
 36,0.00000462,0.00000269,0.00000257,0.00000648,-0.00000008,0.00000769,
 0.00000531,0.00000003,0.00000518,0.00000506,0.00000225,-0.00000022,-0.
 00000039,-0.00000141,0.00000732,0.00000084,-0.00000137,0.00000054,-0.0
 0000258,0.00000212,0.00000504,-0.00000103,-0.00000081,-0.00000481,0.00
 000269,0.00000273,-0.00000265,0.00000156,0.00000074,-0.00000791,-0.000
 00050,0.00000169,-0.00000574,-0.00000025,-0.00000065,0.00000368,-0.000
 00274,-0.00000112,0.00000448,-0.00000343,-0.00000035,-0.00000043,0.000
 00091,-0.00000056,0.00000535,0.00000528,-0.00000013,0.00000457,-0.0000
 0071,-0.00000007,0.00000349,-0.00000009,-0.00000082,0.00000074,-0.0000
 0243,-0.00000091,0.00000493\\\@


 If your ship doesn't come in, swim out to it!
                          -- Jonathan Winters
 Job cpu time:  0 days 16 hours 33 minutes 38.5 seconds.
 File lengths (MBytes):  RWF=   1649 Int=      0 D2E=      0 Chk=     28 Scr=      1
 Normal termination of Gaussian 09 at Sun Dec 29 20:18:09 2013.
